# kMean  POINT_DATA 34169
# x  y  z  kMean
0 -1.85076e-05 6.54374e-09 0.00180097
-1.65436e-24 0.00114845 0 0.00178372
0 0.00123149 0.00116943 0.00178312
0 -0.0012685 0.00116944 0.00181883
-2.58494e-25 -1.85056e-05 0.00219071 0.00121369
0 -1.85055e-05 0.00233887 0.00117397
0 -0.000603648 0.00233887 0.00117686
1.65436e-24 0.00248149 7.47496e-09 0.00176401
0 -0.00251848 9.1726e-09 0.00183519
-2.06683e-20 0.00248149 0.00233887 0.00116266
0 -0.0025185 0.00233887 0.00118629
0 0.00371837 0 0.0017438
0 0.0012315 0.00356873 0.000543102
-1.0842e-19 -0.0012685 0.00356873 0.000530768
0 0.00373149 0.00116943 0.00174491
0 -0.0037685 0.00116944 0.00185155
-4.9658e-20 -1.85024e-05 0.00479858 0.000437732
0 0.00498151 7.6335e-09 0.00172316
0 -0.00501848 1.11264e-08 0.00186543
1.0842e-19 0.0037315 0.00356872 0.000560263
-2.1684e-19 -0.0037685 0.00356872 0.000523238
9.26277e-21 0.0024815 0.00479858 0.000453379
7.51248e-26 -0.0025185 0.00479221 0.000427787
0 -0.0025185 0.00479858 0.000425816
7.27014e-27 -0.00254754 0.00479858 0.000425727
0 0.0049216 0.00233887 0.00115165
-3.23117e-27 0.0049815 0.00233887 0.00115138
0 -0.0050185 0.00233887 0.00119933
3.23117e-27 0.0049815 0.00257695 0.00108566
-1.0842e-19 0.0012315 0.00608215 0.000344665
0 -0.0012685 0.00608215 0.000329526
0 0.0062315 0.00116943 0.00170141
0 -0.0062685 0.00116943 0.0018793
0 0.0049815 0.00479858 0.000472339
5.16988e-26 -0.0050185 0.00479858 0.000418145
-1.0842e-19 0.0037315 0.00608215 0.000362646
-2.1684e-19 -0.0037685 0.00608215 0.000316806
0 0.0062315 0.00356872 0.000580654
0 -0.0062685 0.00356872 0.000521918
1.27958e-19 -1.85008e-05 0.00736572 0.000343519
0 0.00748152 1.05804e-08 0.00167709
0 -0.00751848 1.07668e-08 0.00189004
-2.58494e-26 0.00580956 0.00479858 0.000479428
-3.36443e-20 0.0024815 0.00736572 0.000358968
8.49695e-20 -0.0025185 0.00736572 0.000330157
-2.05331e-20 0.0074815 0.00233887 0.00113852
0 -0.0075185 0.00233887 0.00121246
-2.58494e-26 -0.0050185 0.00708651 0.000329759
0 0.0062315 0.00608215 0.000382959
0 -0.0062685 0.00608215 0.000307598
-2.1684e-19 0.0012315 0.008656 0.000356764
-1.0842e-19 -0.0012685 0.00865601 0.000343143
1.0842e-19 0.0087315 0.00116944 0.00165278
0 -0.0087685 0.00116943 0.00190077
0 0.0074815 0.00479858 0.00049374
1.62448e-19 0.0049815 0.00736572 0.000376454
0 -0.0050185 0.00736572 0.000318973
2.58494e-26 -0.0075185 0.00479858 0.00041519
-6.46235e-27 0.00528894 0.00736572 0.000378868
0 0.0037315 0.008656 0.000371819
0 0.0087315 0.00356873 0.000602002
0 -0.0037685 0.008656 0.00033118
-2.1684e-19 -0.0087685 0.00356872 0.000526157
1.29247e-26 -0.0075185 0.00648561 0.000346274
-8.08278e-20 -1.85002e-05 0.00994629 0.00037921
1.65436e-24 0.0099815 1.38294e-08 0.00162622
-1.65436e-24 -0.0100185 9.43505e-09 0.00190694
1.00403e-19 0.0024815 0.00994629 0.000394015
-8.27181e-25 0.0099815 0.00233887 0.00112293
-7.30726e-20 -0.0025185 0.00994629 0.000364815
-2.06795e-25 -0.0100185 0.00233887 0.0012243
-1.61559e-27 0.0049815 0.00900557 0.000397159
0 0.0074815 0.00736572 0.000396089
0 -0.0075185 0.00736572 0.000310321
-6.46235e-27 -0.00947855 0.00479858 0.000416355
1.0842e-19 0.0087315 0.00608215 0.000406523
0 0.0062315 0.008656 0.000388404
0 -0.0087685 0.00608215 0.000301941
1.0842e-19 -0.0062685 0.008656 0.000320332
0 0.00400269 0.00994629 0.000403155
1.29247e-26 -0.0100185 0.00470539 0.000447274
0 0.0099815 0.00479858 0.00051649
6.46235e-27 -0.0100185 0.00479858 0.000416676
0 0.0049815 0.00994629 0.000409037
6.83146e-20 -0.0050185 0.00994629 0.000351217
0 0.0012315 0.011217 0.000416211
1.0842e-19 -0.0012685 0.011217 0.000400416
0 0.0112315 0.00116943 0.00159966
0 -0.0112685 0.00116944 0.0019131
0 0.0112315 0.00356872 0.000621153
-1.0842e-19 -0.0112685 0.00356873 0.000535328
1.0842e-19 0.0037315 0.011217 0.000430954
2.1684e-19 -0.0037685 0.011217 0.000384233
1.0842e-19 0.0087315 0.008656 0.000406474
-1.0842e-19 -0.0087685 0.00865601 0.000311434
0 0.0099815 0.00736572 0.000417972
-5.17539e-20 -0.0100185 0.00736572 0.000304542
-1.29247e-26 0.0074815 0.00994629 0.000424361
1.03847e-19 -0.0075185 0.00994629 0.000339043
0 0.0124815 1.62363e-08 0.00156693
-2.40255e-20 -1.85e-05 0.0124878 0.000423906
1.65436e-24 -0.0125185 8.85477e-09 0.00191427
0 0.0124815 0.00233888 0.00110175
0 0.0024815 0.0124878 0.000441794
-2.06795e-25 -0.0125185 0.00233887 0.0012335
-1.2277e-19 -0.0025185 0.0124878 0.000405704
0 0.0112315 0.00608215 0.000433532
0 -0.0112685 0.00608215 0.000299981
1.0842e-19 0.0062315 0.011217 0.000444667
2.01948e-28 0.00299048 0.0124878 0.000445245
-1.0842e-19 -0.0062685 0.011217 0.000368857
0 0.0124815 0.00479858 0.000539598
-7.10858e-26 -0.0125185 0.00470415 0.000452984
-6.46235e-27 -0.0125185 0.00479858 0.000421824
0 0.0049815 0.0124878 0.000458746
3.68881e-20 -0.0050185 0.0124878 0.000388243
-1.0842e-19 0.0137315 0.00116943 0.0015342
2.1684e-19 0.0012315 0.0137433 0.000449792
0 -0.0012685 0.0137433 0.00042908
-1.0842e-19 -0.0137685 0.00116944 0.00191543
1.9387e-26 -0.0130041 0.00479858 0.000423362
-2.58494e-26 0.0099815 0.00994629 0.000439991
-3.84674e-21 -0.0100185 0.00994629 0.000328975
-2.1684e-19 0.0112315 0.008656 0.00042535
-2.1684e-19 0.0137315 0.00356873 0.000637089
1.0842e-19 -0.0112685 0.00865601 0.000304824
1.0842e-19 0.0087315 0.011217 0.000457616
-2.1684e-19 -0.0137685 0.00356872 0.000548363
1.0842e-19 -0.0087685 0.011217 0.000355306
-1.0842e-19 0.0037315 0.0137433 0.00047007
1.0842e-19 -0.0037685 0.0137433 0.000408977
0 0.0124815 0.00736572 0.000441885
-3.59216e-20 -0.0125185 0.00736572 0.000301485
3.23117e-27 0.0074815 0.0124878 0.000474566
-1.95644e-20 -0.0075185 0.0124878 0.0003726
0 0.0149815 1.68918e-08 0.00148846
-3.71475e-20 -1.85e-05 0.0149988 0.000437531
-1.0842e-19 0.0137315 0.00608215 0.000464029
0 -0.0150185 9.26868e-09 0.00191365
2.1684e-19 -0.0137685 0.00608215 0.000300156
0 0.0062315 0.0137433 0.000489119
0 -0.0062685 0.0137433 0.000390811
8.27181e-25 0.0149815 0.00233888 0.0010706
2.06795e-25 -0.0150185 0.00233887 0.00124049
1.4527e-19 0.0024815 0.0149988 0.000459285
1.28828e-19 -0.0025185 0.0149988 0.000416437
7.88861e-29 0.00254987 0.0149988 0.000459869
0 0.0149815 0.00479858 0.000563902
-5.16988e-26 -0.0150185 0.00479858 0.000429743
0 0.0049815 0.0149988 0.000480622
1.43184e-19 -0.0050185 0.0149988 0.000397205
0 0.0112315 0.011217 0.000470272
-2.1684e-19 -0.0112685 0.011217 0.000344118
-5.16988e-26 0.0124815 0.00994629 0.000455793
0 0.0099815 0.0124878 0.0004893
5.35398e-21 -0.0125185 0.00994629 0.000321386
3.33886e-20 -0.0100185 0.0124878 0.000359382
-1.0842e-19 0.0137315 0.008656 0.000444604
0 -0.0137685 0.008656 0.000300983
-1.0842e-19 0.0162315 0.00116944 0.00144273
2.1684e-19 0.0087315 0.0137433 0.000506668
0 0.0012315 0.0162494 0.000447009
1.0842e-19 -0.0012685 0.0162494 0.00042425
0 -0.0087685 0.0137433 0.000375339
-1.0842e-19 -0.0162685 0.00116944 0.00191187
2.58494e-26 -0.0150185 0.00699134 0.00031938
0 0.0162315 0.00356873 0.000655014
0 -0.0162685 0.00356872 0.000564754
-1.0842e-19 0.0037315 0.0162494 0.000470271
-2.1684e-19 -0.0037685 0.0162494 0.00040345
-1.09656e-19 0.0149815 0.00736572 0.000467302
0 -0.0150185 0.00736572 0.000300537
-4.03897e-28 0.0074815 0.0149988 0.000500871
7.17699e-20 -0.0075185 0.0149988 0.000380662
-6.46235e-27 -0.0156476 0.00736572 0.00030072
1.0842e-19 0.0162315 0.00608215 0.000497102
2.1684e-19 -0.0162685 0.00608215 0.000302033
-1.0842e-19 0.0062315 0.0162494 0.000493022
-2.1684e-19 -0.0062685 0.0162494 0.000385592
0 0.0174815 1.67042e-08 0.00137354
-1.91555e-20 -1.85e-05 0.0175 0.000420514
0 -0.0175185 1.03701e-08 0.00190665
0 0.0174815 0.00233888 0.00102372
0 0.0124815 0.0124878 0.000502999
4.1359e-25 -0.0175185 0.00233887 0.00124601
1.58401e-19 0.0024815 0.0175 0.000443362
8.08441e-20 -0.0025185 0.0175 0.000399705
-1.17075e-19 -0.0125185 0.0124878 0.00034872
-2.1684e-19 0.0137315 0.011217 0.000482726
0 0.0112315 0.0137433 0.000522437
1.0842e-19 -0.0137685 0.011217 0.000335428
0 -0.0112685 0.0137433 0.000362685
0 0.0149815 0.00994629 0.000471486
-9.59889e-21 -0.0150185 0.00994629 0.000316121
8.07794e-28 0.0099815 0.0149988 0.000519645
-6.56678e-20 -0.0100185 0.0149988 0.000366994
0 0.0174815 0.00479858 0.000591628
0 -0.0175185 0.00479858 0.00044034
-4.57539e-29 0.0049815 0.0174753 0.000467277
-1.57772e-30 0.0049815 0.0175 0.000467144
8.08441e-20 -0.0050185 0.0175 0.000381763
-1.0842e-19 0.0162315 0.008656 0.000463425
1.0842e-19 -0.0162685 0.00865601 0.000298974
2.1684e-19 0.0087315 0.0162494 0.000514667
0 -0.0087685 0.0162494 0.000370915
0 0.0187315 0.00116944 0.00130436
-1.0842e-19 0.0012315 0.01875 0.000416142
0 -0.0012685 0.01875 0.000394662
0 -0.0187685 0.00116943 0.00190143
0 0.0174815 0.00736572 0.000493049
0 -0.0175185 0.00736572 0.000301266
-9.15079e-29 0.0074815 0.0174897 0.000490899
-1.57772e-30 0.0074815 0.0175 0.000490858
1.42064e-19 -0.0075185 0.0175 0.000366891
-1.0842e-19 0.0187315 0.00356873 0.000681562
-1.0842e-19 -0.0187685 0.00356872 0.00058483
0 0.0037315 0.01875 0.000440032
0 -0.0037685 0.01875 0.000376462
-1.0842e-19 0.0137315 0.0137433 0.000536343
-2.1684e-19 -0.0137685 0.0137433 0.000352578
6.46235e-27 0.0149815 0.0124878 0.000515729
0 0.0124815 0.0149988 0.000536626
3.30689e-20 -0.0150185 0.0124878 0.000340404
6.97801e-20 -0.0125185 0.0149988 0.000355955
0 -0.016963 0.00994629 0.000313377
0 0.0187315 0.00608215 0.000530619
0 -0.0187685 0.00608215 0.00030586
-1.0842e-19 0.0162315 0.011217 0.000495006
0 0.0112315 0.0162494 0.000534795
1.0842e-19 0.0062315 0.01875 0.000465254
-1.0842e-19 -0.0162685 0.011217 0.000328929
-1.0842e-19 -0.0062685 0.01875 0.000361555
0 -0.0112685 0.0162494 0.000359044
0 0.0199815 1.72687e-08 0.00123004
1.58401e-19 -1.85e-05 0.02 0.000380949
0 -0.0200185 1.16628e-08 0.00189343
-5.16988e-26 0.0174815 0.00994629 0.000486607
0 0.0199815 0.00233888 0.000966794
-1.41995e-29 0.0099815 0.0174933 0.00051362
-1.61559e-27 -0.0175185 0.00994629 0.000312593
-1.57772e-30 0.0099815 0.0175 0.000513604
-1.91544e-20 0.0024815 0.02 0.000400923
0 -0.0200185 0.00233887 0.00124965
-4.15987e-20 -0.0025185 0.02 0.000363736
4.20638e-20 -0.0100185 0.0175 0.000354784
0 0.0199815 0.00479858 0.000623601
-2.06795e-25 -0.0200185 0.00479858 0.000453209
-9.67102e-20 0.0049815 0.02 0.000423158
1.58401e-19 -0.0050185 0.02 0.000349424
-1.0842e-19 0.0187315 0.00865601 0.000480972
1.0842e-19 -0.0187685 0.008656 0.000298186
0 0.0087315 0.01875 0.000490493
0 -0.0087685 0.01875 0.000349509
0 0.0149815 0.0149988 0.000551739
4.61343e-20 -0.0150185 0.0149988 0.000347129
1.0842e-19 0.0212315 0.00116944 0.00115572
-1.0842e-19 0.0162315 0.0137433 0.000548621
0 0.0137315 0.0162494 0.000552907
0 0.0012315 0.02125 0.000364451
-1.0842e-19 -0.0012685 0.02125 0.000348541
0 0.0199815 0.00736572 0.000517752
-1.0842e-19 -0.0162685 0.0137433 0.000344614
0 -0.0137685 0.0162494 0.000349516
0 -0.0212685 0.00116943 0.00188542
0 -0.0200185 0.00736572 0.000303553
8.08456e-20 0.0074815 0.02 0.000446897
8.08456e-20 -0.0075185 0.02 0.000337734
2.01948e-28 -0.0175185 0.0122529 0.000332051
0 0.0174815 0.0124878 0.000527714
0 0.0124815 0.0175 0.000534628
-2.01948e-28 -0.0175185 0.0124878 0.000334032
8.08456e-20 -0.0125185 0.0175 0.000344955
0 0.0212315 0.00356873 0.000717114
0 -0.0212685 0.00356872 0.000606289
0 0.0037315 0.02125 0.000383067
-1.0842e-19 -0.0037685 0.02125 0.000335279
1.0842e-19 0.0187315 0.011217 0.000506875
0 0.0112315 0.01875 0.000514465
0 -0.0187685 0.011217 0.000324135
0 -0.0112685 0.01875 0.000339673
1.00974e-28 -0.0181344 0.0124878 0.000332866
0 0.0212315 0.00608215 0.00056292
0 -0.0212685 0.00608215 0.000311744
0 0.0062315 0.02125 0.000404279
0 -0.0062685 0.02125 0.0003244
0 0.0199815 0.00994629 0.000500662
-1.91544e-20 0.0099815 0.02 0.000471069
-6.46235e-27 -0.0200185 0.00994629 0.000310455
3.28979e-21 -0.0100185 0.02 0.000328158
-3.30872e-24 0.0224815 1.82997e-08 0.00109975
-1.91544e-20 -1.85e-05 0.0225 0.000330953
-1.65436e-24 -0.0225185 1.24017e-08 0.00187735
8.27181e-25 0.0224815 0.00233888 0.000919677
8.08456e-20 0.0024815 0.0225 0.000345543
0 -0.0225185 0.00233887 0.00125252
5.84013e-20 -0.0025185 0.0225 0.000318591
1.0842e-19 0.0212315 0.008656 0.00049639
-1.0842e-19 -0.0212685 0.008656 0.000298405
0 0.0162315 0.0162494 0.000569059
-1.0842e-19 0.0087315 0.02125 0.000427563
0 0.0224815 0.00479858 0.000656948
1.0842e-19 -0.0087685 0.02125 0.000315471
0 -0.0162685 0.0162494 0.000341813
2.06795e-25 -0.0225185 0.00479858 0.000467868
-1.41995e-28 0.0149815 0.0174942 0.000553545
0 0.0174815 0.0149988 0.000565379
8.08456e-20 0.0049815 0.0225 0.000362352
5.84013e-20 -0.0050185 0.0225 0.000308285
8.08443e-20 -0.0150185 0.0175 0.000336943
1.27468e-19 -0.0175185 0.0149988 0.000340095
1.0842e-19 0.0187315 0.0137433 0.000560135
1.0842e-19 0.0137315 0.01875 0.000536345
0 -0.0137685 0.01875 0.00033159
0 -0.0187685 0.0137433 0.000338389
0 0.0199815 0.0124878 0.000539296
1.58401e-19 0.0124815 0.02 0.000494574
4.03897e-28 -0.0200185 0.0124878 0.000329298
-3.54881e-20 -0.0125185 0.02 0.000320209
0 0.0224815 0.00736572 0.000539407
0 -0.0225185 0.00736572 0.000307521
-1.91544e-20 0.0074815 0.0225 0.000381232
1.58401e-19 -0.0075185 0.0225 0.000299709
0 0.0237315 0.00116944 0.00104379
0 0.0012315 0.02375 0.000310914
1.0842e-19 -0.0012685 0.02375 0.000299908
1.0842e-19 -0.0237685 0.00116943 0.00186927
0 0.0237315 0.00356873 0.000756329
0 0.0212315 0.011217 0.000518284
0 -0.0237685 0.00356872 0.000629073
0 0.0112315 0.02125 0.000451757
-1.0842e-19 0.0037315 0.02375 0.000323742
-2.1684e-19 -0.0212685 0.011217 0.000320967
-1.0842e-19 -0.0037685 0.02375 0.000290638
0 -0.0112685 0.02125 0.000307982
1.0842e-19 0.0237315 0.00608215 0.000589122
-2.1684e-19 -0.0237685 0.00608215 0.000320036
0 0.0062315 0.02375 0.000338319
0 -0.0062685 0.02375 0.000282825
2.58494e-26 0.0224815 0.00994629 0.000513228
-1.91544e-20 0.0099815 0.0225 0.00040181
0 -0.0225185 0.00994629 0.000309683
1.58401e-19 -0.0100185 0.0225 0.000292482
-6.31089e-30 -0.0196434 0.0149988 0.000335359
-4.40184e-28 0.0174815 0.0174936 0.00057044
-3.54802e-20 0.0174815 0.0175 0.000570453
8.08443e-20 -0.0175185 0.0175 0.00033035
0 0.0187315 0.0162494 0.000583671
0 0.0162315 0.01875 0.000555874
1.0842e-19 -0.0162685 0.01875 0.000324856
1.0842e-19 -0.0187685 0.0162494 0.00033557
0 0.0249815 1.76875e-08 0.00101351
0 0.0199815 0.0149988 0.000578232
1.58401e-19 0.0149815 0.02 0.000516575
-1.91544e-20 -1.85e-05 0.025 0.000280181
-3.54881e-20 -0.0150185 0.02 0.000313519
6.31089e-30 -0.0200185 0.0149988 0.000334523
1.65436e-24 -0.0250185 1.26415e-08 0.00186408
0 0.0249815 0.00233888 0.000896472
-1.91544e-20 0.0024815 0.025 0.000290334
1.58401e-19 -0.0025185 0.025 0.000271454
0 -0.0250185 0.00233887 0.00125767
0 0.0237315 0.00865601 0.000509064
1.0842e-19 0.0212315 0.0137433 0.00057167
1.0842e-19 -0.0237685 0.008656 0.000299872
0 0.0137315 0.02125 0.000475731
0 0.0087315 0.02375 0.000354768
0 -0.0087685 0.02375 0.000276141
0 -0.0137685 0.02125 0.000301591
-1.0842e-19 -0.0212685 0.0137433 0.000333644
4.1359e-25 0.0249815 0.00479858 0.00068858
0 -0.0250185 0.00479858 0.00048475
1.58401e-19 0.0049815 0.025 0.000301889
-1.91544e-20 -0.0050185 0.025 0.00026401
0 0.0224815 0.0124878 0.000550837
1.58401e-19 0.0124815 0.0225 0.000423407
8.08456e-20 -0.0125185 0.0225 0.000286277
8.07794e-28 -0.0225185 0.0124878 0.000326014
-1.03398e-25 0.0249815 0.00736572 0.000556199
5.16988e-26 -0.0250185 0.00736572 0.000313607
1.58401e-19 0.0074815 0.025 0.000314818
8.08456e-20 -0.0075185 0.025 0.000257612
0 0.0237315 0.011217 0.000529062
0 0.0262315 0.00116943 0.000983238
1.0842e-19 0.0112315 0.02375 0.000373151
1.0842e-19 0.0012315 0.02625 0.000258873
0 -0.0012685 0.02625 0.000251031
1.0842e-19 -0.0237685 0.011217 0.000319377
-1.0842e-19 -0.0112685 0.02375 0.000270333
0 -0.0200185 0.0170411 0.000326649
0 -0.0262685 0.00116943 0.00185889
0 0.0262315 0.00356873 0.000798789
0 0.0187315 0.01875 0.00057321
1.0842e-19 -0.0262685 0.00356872 0.000654043
0 0.0037315 0.02625 0.000267809
0 -0.0037685 0.02625 0.000244239
0 -0.0187685 0.01875 0.000319164
-1.78283e-28 0.0199815 0.017493 0.000585752
-3.54808e-20 0.0199815 0.0175 0.000585773
-9.67102e-20 0.0174815 0.02 0.000536603
3.28979e-21 -0.0175185 0.02 0.000307798
0 -0.0200185 0.0175 0.00032488
1.0842e-19 0.0212315 0.0162494 0.00059742
-1.0842e-19 0.0162315 0.02125 0.00049835
0 -0.0162685 0.02125 0.00029604
0 -0.0212685 0.0162494 0.000330493
0 0.0249815 0.00994629 0.000524145
-1.91544e-20 0.0099815 0.025 0.000329183
-1.29247e-26 -0.0250185 0.00994629 0.000310343
-1.0842e-19 0.0262315 0.00608215 0.000607506
1.58401e-19 -0.0100185 0.025 0.000252028
0 -0.0262685 0.00608215 0.000331318
-1.0842e-19 0.0062315 0.02625 0.000277686
0 -0.0062685 0.02625 0.00023834
0 0.0224815 0.0149988 0.000591079
-1.91544e-20 0.0149815 0.0225 0.000445099
3.28979e-21 -0.0150185 0.0225 0.000280852
0 -0.0225185 0.0149988 0.000330113
1.0842e-19 0.0237315 0.0137433 0.000584108
0 0.0137315 0.02375 0.000392988
0 -0.0137685 0.02375 0.000265204
0 -0.0237685 0.0137433 0.000330018
0 0.0274815 1.36323e-09 0.000966845
1.58401e-19 -1.85e-05 0.0275 0.000230192
1.65436e-24 -0.0275185 1.29131e-08 0.00185779
0 0.0274815 0.00233887 0.000893395
-1.91571e-20 0.0024815 0.0275 0.000237492
1.584e-19 -0.0025185 0.0275 0.000223768
-8.53899e-21 -0.0275185 0.00233886 0.00126728
-2.1684e-19 0.0262315 0.008656 0.000518952
2.1684e-19 -0.0262685 0.008656 0.00030316
1.0842e-19 0.0087315 0.02625 0.000288499
0 -0.0087685 0.02625 0.000233143
-5.16988e-26 0.0274815 0.00479858 0.000716423
-3.23117e-27 0.0249815 0.0124878 0.00056254
2.63192e-20 -0.0275185 0.00479858 0.000504042
-9.67102e-20 0.0124815 0.025 0.000344956
5.84013e-20 0.0049815 0.0275 0.000245579
-1.91544e-20 -0.0050185 0.0275 0.000218151
1.58401e-19 -0.0125185 0.025 0.000247084
1.61559e-27 -0.0250185 0.0124878 0.000323884
5.16988e-26 0.0278127 0.00479858 0.000719387
3.28979e-21 0.0199815 0.02 0.00055457
2.58494e-26 0.0273129 0.00736572 0.000566797
-9.67102e-20 -0.0200185 0.02 0.000302847
0 0.0212315 0.01875 0.000588791
1.0842e-19 0.0187315 0.02125 0.00051898
1.0842e-19 -0.0187685 0.02125 0.000291132
0 -0.0212685 0.01875 0.000314296
-2.58494e-26 0.0274815 0.00708861 0.000583631
-3.15544e-30 -0.0225185 0.0173267 0.00032096
0 0.0274815 0.00736572 0.000567563
-1.21485e-28 0.0224815 0.0174925 0.00060011
-5.16988e-26 -0.0275185 0.00736572 0.000322095
-1.57772e-30 0.0224815 0.0175 0.000600137
-9.67102e-20 0.0174815 0.0225 0.000465923
1.58401e-19 0.0074815 0.0275 0.000254338
4.2064e-20 -0.0075185 0.0275 0.000213203
3.28979e-21 -0.0175185 0.0225 0.000276036
-1.57772e-30 -0.0225185 0.0175 0.000320279
0 0.0262315 0.011217 0.000539396
1.0842e-19 0.0112315 0.02625 0.000300316
-1.0842e-19 -0.0262685 0.011217 0.000318871
0 -0.0112685 0.02625 0.000228494
-7.88861e-30 0.0074815 0.0276324 0.000251412
1.0842e-19 0.0287315 0.00116943 0.000950452
0 0.0237315 0.0162494 0.000611084
0 0.0162315 0.02375 0.000413326
1.0842e-19 0.0012315 0.0287506 0.000208368
-1.0842e-19 -0.0012685 0.0287506 0.000202491
0 -0.0162685 0.02375 0.000260574
0 -0.0237685 0.0162494 0.0003263
1.0842e-19 -0.0287685 0.00116943 0.00185669
1.0842e-19 0.0287315 0.00356873 0.000838747
1.0842e-19 -0.0287685 0.00356872 0.000680573
0 0.0037315 0.0287506 0.000214909
1.0842e-19 -0.0037685 0.0287506 0.000197303
-4.03897e-28 0.0249815 0.0149988 0.000604377
0 0.0274815 0.00969854 0.000536772
3.28979e-21 0.0149815 0.025 0.000361846
-1.91544e-20 -0.0150185 0.025 0.000242645
0 -0.0250185 0.0149988 0.000326573
0 0.0274815 0.00994629 0.000533502
8.08456e-20 0.0099815 0.0275 0.000263756
-1.29247e-26 -0.0275185 0.00994629 0.000312355
8.08456e-20 -0.0100185 0.0275 0.00020879
0 0.0275288 0.00994629 0.000533653
9.30856e-29 0.0099815 0.0275163 0.000263377
0 0.0287315 0.00608215 0.000617691
0 -0.0287685 0.00608215 0.000345516
0 0.0062315 0.0287506 0.000221903
1.0842e-19 -0.0062685 0.0287506 0.000192716
0 0.0293435 0.00233887 0.000901335
-1.0842e-19 0.0262315 0.0137433 0.000597362
1.0842e-19 0.0137315 0.02625 0.000313367
0 -0.0137685 0.02625 0.000224308
-1.0842e-19 -0.0262685 0.0137433 0.000327231
-1.65436e-24 0.0299815 1.10974e-08 0.000949367
1.09589e-19 -1.85e-05 0.0300012 0.000181573
1.0842e-19 0.0287315 0.008656 0.00052594
-1.65436e-24 -0.0300185 1.29568e-08 0.00185916
1.0842e-19 0.0212315 0.02125 0.000537299
0 -0.0287685 0.008656 0.00030833
0 0.0087315 0.0287506 0.000229256
1.0842e-19 -0.0087685 0.0287506 0.000188605
-1.03398e-24 0.0299815 0.00217865 0.00090716
0 -0.0212685 0.02125 0.000286797
0 0.0299815 0.00233887 0.000904057
-1.91544e-20 0.0224815 0.02 0.000570707
-3.54881e-20 0.0199815 0.0225 0.000485122
-1.09081e-19 0.0024815 0.0300012 0.000187009
-2.05885e-20 -0.0025185 0.0300012 0.000176709
-5.82335e-21 -0.0300185 0.00233886 0.00128188
6.45119e-20 -0.0200185 0.0225 0.000271752
1.58401e-19 -0.0225185 0.02 0.000298511
-1.61559e-27 0.0274815 0.0124878 0.000574436
3.28979e-21 0.0124815 0.0275 0.000273941
2.24036e-28 0.0124815 0.0275129 0.000273622
-1.91544e-20 -0.0125185 0.0275 0.000204819
0 -0.0275185 0.0124878 0.000322519
0 0.0237315 0.01875 0.000603255
1.0842e-19 0.0187315 0.02375 0.000433035
0 -0.0187685 0.02375 0.0002564
-1.0842e-19 -0.0237685 0.01875 0.000310028
2.36834e-20 0.0299815 0.00479858 0.000738789
3.4018e-20 -0.0300185 0.00479858 0.000525832
1.25384e-20 0.0049815 0.0300012 0.00019289
1.22849e-19 -0.0050185 0.0300012 0.0001724
0 0.0249815 0.0174915 0.00061401
-1.57772e-30 0.0249815 0.0175 0.000614043
2.68213e-29 -0.0250185 0.0174512 0.000316524
-3.54881e-20 0.0174815 0.025 0.000379254
-9.67102e-20 -0.0175185 0.025 0.000238632
0 -0.0250185 0.0175 0.000316324
-1.00974e-28 0.00711119 0.0300012 0.000198143
0 0.0287315 0.011217 0.000549605
0 0.0262315 0.0162494 0.000624915
0 0.0162315 0.02625 0.000327703
-1.0842e-19 0.0112315 0.0287506 0.000236945
5.80184e-20 0.0299815 0.00736572 0.000573046
-2.1684e-19 -0.0287685 0.011217 0.000318989
2.1684e-19 -0.0112685 0.0287506 0.000184912
0 -0.0162685 0.02625 0.000220494
2.1684e-19 -0.0262685 0.0162494 0.000322746
1.03398e-25 -0.0300185 0.00736572 0.000332721
-2.52435e-29 0.0074815 0.0300012 0.000199056
6.28265e-20 -0.0075185 0.0300012 0.000168558
-2.1684e-19 0.0312315 0.00116943 0.000948281
0 0.0012315 0.0312567 0.000159908
0 -0.0012685 0.0312567 0.000155463
0 -0.0312685 0.00116943 0.00186163
-4.03897e-28 0.0274815 0.0149988 0.000618128
3.28979e-21 0.0149815 0.0275 0.000285054
1.58401e-19 -0.0150185 0.0275 0.00020122
-4.73317e-29 0.0149815 0.0275251 0.000284392
-2.01948e-28 -0.0275185 0.0149988 0.000323637
0 0.0287473 0.0124878 0.000580493
1.0842e-19 0.0312315 0.00356873 0.000877296
0 -0.0312685 0.00356872 0.000710129
-1.0842e-19 0.0037315 0.0312567 0.000164789
-1.0842e-19 -0.0037685 0.0312567 0.000151519
-1.24835e-19 0.0299815 0.00994629 0.000541482
0 0.0099815 0.0300012 0.000205437
0 -0.0300185 0.00994629 0.000315429
-4.58756e-20 -0.0100185 0.0300012 0.000165109
-9.67102e-20 0.0224815 0.0225 0.000502326
0 0.0312315 0.00608215 0.000617976
3.28979e-21 -0.0225185 0.0225 0.000267929
0 0.0287315 0.0137433 0.000611137
0 -0.0312685 0.00608215 0.000362211
0 0.0237315 0.02125 0.000553481
0 0.0212315 0.02375 0.000451172
0 0.0137315 0.0287506 0.000245125
-1.0842e-19 0.0062315 0.0312567 0.000169894
1.0842e-19 -0.0137685 0.0287506 0.000181557
-1.0842e-19 -0.0062685 0.0312567 0.000148003
-1.0842e-19 -0.0212685 0.02375 0.000252682
-1.0842e-19 -0.0237685 0.02125 0.000282923
0 -0.0287685 0.0137433 0.000324956
8.08456e-20 0.0249815 0.02 0.000585355
6.45119e-20 0.0199815 0.025 0.000396395
3.28979e-21 -0.0200185 0.025 0.00023502
8.08456e-20 -0.0250185 0.02 0.000294648
1.0842e-19 0.0262315 0.01875 0.00061692
0 0.0187315 0.02625 0.000342954
1.0842e-19 -0.0187685 0.02625 0.000217059
0 -0.0262685 0.01875 0.000306223
1.0842e-19 0.0312315 0.00865601 0.000530416
0 -0.0312685 0.008656 0.00031475
1.0842e-19 0.0087315 0.0312567 0.000175103
0 -0.0087685 0.0312567 0.000144851
0 0.0299815 0.0124878 0.000586399
0 0.0324815 6.81881e-09 0.000969832
0 0.0124815 0.0300012 0.000212071
-4.1359e-25 0.0324815 0.00123728 0.000949637
-4.41356e-20 -0.0125185 0.0300012 0.000161995
3.06077e-20 -1.85e-05 0.0325122 0.000135662
0 -0.0300185 0.0124878 0.000321657
-1.65436e-24 -0.0325185 1.24576e-08 0.00186696
1.35199e-19 0.0324815 0.00233888 0.000931657
1.43573e-28 0.0274815 0.01749 0.000627723
0 0.0274815 0.0175 0.000627762
-3.54881e-20 0.0174815 0.0275 0.000297081
2.20881e-29 -0.0275185 0.0174791 0.000312927
0 -0.0325185 0.00233887 0.00130186
8.08408e-20 -0.0175185 0.0275 0.000197957
3.88783e-20 0.0024815 0.0325122 0.000139741
1.16914e-20 -0.0025185 0.0325122 0.000131989
8.08473e-20 -0.0275185 0.0175 0.000312837
1.75834e-20 0.0324815 0.0047986 0.00075462
2.06795e-25 -0.0325185 0.00479858 0.0005508
3.85759e-20 0.0049815 0.0325122 0.000144089
3.62211e-20 -0.0050185 0.0325122 0.000128724
1.0842e-19 0.0287315 0.0162494 0.000639061
0 0.0162315 0.0287506 0.000254011
1.0842e-19 -0.0162685 0.0287506 0.000178517
0 -0.0287685 0.0162494 0.000319619
0 0.0312315 0.011217 0.000559828
-2.1684e-19 0.0112315 0.0312567 0.000180371
0 -0.0312685 0.011217 0.000319609
-2.1684e-19 -0.0112685 0.0312567 0.000142011
-2.30254e-20 0.0324815 0.00736572 0.000572998
0 -0.0325185 0.00736572 0.000344744
0 0.0073948 0.0325122 0.000148377
4.03897e-28 0.0299815 0.0146113 0.000625023
0 0.0074815 0.0325122 0.000148531
5.61066e-20 -0.0075185 0.0325122 0.000125818
-3.02923e-28 0.0074815 0.0326133 0.000146768
4.03897e-28 0.0299815 0.0149988 0.000632071
0 0.0149815 0.0300012 0.000219098
4.03897e-28 -0.0150185 0.0300012 0.000159171
0 -0.0300185 0.0149988 0.000321106
0 0.0237315 0.02375 0.000467353
0 -0.0237685 0.02375 0.000249315
8.08456e-20 0.0249815 0.0225 0.00051751
6.45119e-20 0.0224815 0.025 0.000412552
3.28979e-21 -0.0225185 0.025 0.000231752
3.28979e-21 -0.0250185 0.0225 0.000264473
0 0.0337315 0.00116943 0.000991383
-1.0842e-19 0.0262315 0.02125 0.000567763
-1.0842e-19 0.0212315 0.02625 0.000358418
1.0842e-19 -0.0212685 0.02625 0.00021394
1.0842e-19 -0.0262685 0.02125 0.000279417
-1.0842e-19 -0.0337685 0.00116943 0.00187229
0 0.0012315 0.033783 0.000115213
0 -0.0012685 0.0337829 0.000111884
-1.0842e-19 0.0337315 0.00356873 0.000908445
-1.0842e-19 -0.0337685 0.00356872 0.000745317
8.10828e-20 0.0324815 0.00994629 0.000548272
0 0.0037315 0.0337829 0.000118871
3.28979e-21 0.0274815 0.02 0.000598791
1.0842e-19 -0.0037685 0.0337829 0.000108916
0 0.0199815 0.0275 0.000309732
0 -0.0325185 0.00994629 0.000319087
0 0.0099815 0.0325122 0.000152987
4.20627e-20 -0.0200185 0.0275 0.000194983
-3.54881e-20 -0.0275185 0.02 0.000291159
4.30448e-20 -0.0100185 0.0325122 0.000123221
0 0.0312315 0.0137433 0.00062477
-1.0842e-19 0.0137315 0.0312567 0.000185767
1.0842e-19 -0.0137685 0.0312567 0.000139445
0 -0.0312685 0.0137433 0.000323052
-5.04871e-29 0.016433 0.0300012 0.000223473
1.0842e-19 0.0337315 0.00608216 0.000610768
0 0.0287315 0.01875 0.000630152
1.0842e-19 -0.0337685 0.00608215 0.000380432
0 0.0187315 0.0287506 0.000263643
1.0842e-19 -0.0187685 0.0287506 0.000175752
-1.0842e-19 -0.0287685 0.01875 0.000302763
0 0.0062315 0.0337829 0.000122613
1.0842e-19 -0.0062685 0.033783 0.000106287
0 0.0346215 0 0.00102432
1.68816e-28 0.0299815 0.0174883 0.000641352
6.45159e-20 0.0299815 0.0175 0.000641396
2.48505e-20 0.0174815 0.0300012 0.000226634
1.57772e-29 -0.0300185 0.0174847 0.000309769
-4.80688e-21 -0.0175185 0.0300012 0.000156597
0 -0.0300185 0.0175 0.0003097
4.3716e-20 0.0324815 0.0124878 0.00059824
0 0.0337315 0.00865601 0.000532682
5.69964e-20 0.0124815 0.0325122 0.000157477
0 -0.0325185 0.0124878 0.000321113
1.34854e-19 -0.0125185 0.0325122 0.000120889
0 -0.0337685 0.00865601 0.000321488
1.0842e-19 0.0087315 0.0337829 0.000126317
0 -0.0087685 0.0337829 0.000103963
0 0.0349815 1.1472e-09 0.00103348
0 -0.0350185 1.15898e-08 0.00188171
-8.37003e-20 -1.85003e-05 0.0350537 9.47969e-05
3.35174e-20 0.0349815 0.00233889 0.000976939
-4.1359e-25 -0.0350185 0.00233887 0.00132711
-1.68335e-19 0.0024815 0.0350537 9.78412e-05
3.19886e-20 -0.0025185 0.0350537 9.20603e-05
0 0.0312315 0.0162494 0.00065328
-1.0842e-19 0.0162315 0.0312567 0.000191407
-1.0842e-19 -0.0162685 0.0312567 0.000137111
0 -0.0312685 0.0162494 0.000316805
-4.19546e-20 0.0349815 0.00479858 0.000761864
-9.67102e-20 0.0249815 0.025 0.00042722
2.06795e-25 -0.0350185 0.00479858 0.000577936
6.45119e-20 -0.0250185 0.025 0.000228756
0 0.0262315 0.02375 0.000481442
1.0842e-19 0.0237315 0.02625 0.000373268
8.55341e-20 0.0049815 0.0350537 0.000101039
-6.75119e-20 -0.0050185 0.0350537 8.96397e-05
1.0842e-19 -0.0237685 0.02625 0.000211073
0 -0.0262685 0.02375 0.000246236
8.08456e-20 0.0274815 0.0225 0.000530751
-9.67102e-20 0.0224815 0.0275 0.000322528
-3.54881e-20 -0.0225185 0.0275 0.00019224
-1.13044e-19 -0.0275185 0.0225 0.000261323
-1.0842e-19 0.0337315 0.011217 0.000569988
-1.0842e-19 -0.0337685 0.011217 0.000320492
0 0.0112315 0.0337829 0.000129955
-1.0842e-19 -0.0112685 0.033783 0.000101894
0 0.0287315 0.02125 0.000580331
0 0.0212315 0.0287506 0.000273902
0 0.0324815 0.0149166 0.000644296
8.95944e-20 0.0349815 0.00736572 0.000567626
1.0842e-19 -0.0212685 0.0287506 0.000173175
1.0842e-19 -0.0287685 0.02125 0.000276235
0 0.0324815 0.0149988 0.000645855
-5.16988e-26 -0.0350185 0.00736572 0.000357076
0 0.0149815 0.0325122 0.000162084
0 -0.0325185 0.0149988 0.000318829
-6.60995e-20 -0.0150185 0.0325122 0.000118782
-1.99102e-20 0.0074815 0.0350537 0.000104205
-3.61791e-21 -0.0075185 0.0350537 8.75089e-05
0 0.00784127 0.0350537 0.000104649
3.28979e-21 0.0299815 0.02 0.000611267
-1.99815e-20 0.0199815 0.0300012 0.00023467
-6.02612e-20 -0.0200185 0.0300012 0.000154221
3.28979e-21 -0.0300185 0.02 0.00028799
0 0.0362314 0.00116944 0.00107559
-1.0842e-19 -0.0362685 0.00116943 0.00189113
-8.07794e-28 0.0161197 0.0325122 0.000164266
1.0842e-19 0.0012315 0.036344 7.71834e-05
-1.0842e-19 -0.0012685 0.036344 7.47107e-05
4.11191e-21 0.0349815 0.00994629 0.000554355
-1.29247e-26 -0.0350185 0.00994629 0.000322693
-1.0842e-19 0.0362315 0.00356874 0.000930529
-1.0842e-19 0.0337315 0.0137433 0.000638103
0 0.0312315 0.01875 0.000643092
-1.0842e-19 0.0187315 0.0312567 0.000197391
1.0842e-19 -0.0362685 0.00356872 0.000781943
1.29247e-26 0.0099815 0.0350537 0.000107292