# kMean  POINT_DATA 42002
# x  y  z  kMean
6.88365e-09 0 0 0.0018007
-1.85079e-05 0 0 0.00180056
1.85215e-05 0 0 0.00180085
-1.85078e-05 0 1.73213e-05 0.00180056
1.85214e-05 0 1.73212e-05 0.00180085
-0.00125 -1.0842e-19 0.00116943 0.00179042
0.00125 0 0.00116944 0.001811
-4.9721e-10 0 0.00233917 0.00117382
-0.00248149 0 0 0.00177956
0.0024815 0 0 0.00182101
-0.00248149 3.38813e-21 1.73262e-05 0.00177956
0.0024815 0 1.73173e-05 0.00182101
0.00250001 0 0 0.00182113
-0.00250001 0 0 0.0017794
0.00251852 0 0 0.00182129
-0.00251853 -3.38813e-21 0 0.00177927
0.00251852 0 1.73173e-05 0.00182129
-0.00251853 0 1.73262e-05 0.00177927
0.0025 0 0.00233917 0.00119996
-0.0025 0 0.00233917 0.00115115
0.00125 -2.1684e-19 0.00356873 0.000550846
-0.00125 0 0.00356873 0.000523207
0.00375 2.1684e-19 0.00116944 0.00183131
-0.00375001 2.1684e-19 0.00116943 0.00176841
-5.29186e-10 -5.64689e-22 0.00479885 0.000437826
0.00498148 0 0 0.00183867
-0.0049815 0 0 0.00175562
0.00498148 0 1.73154e-05 0.00183867
-0.0049815 0 1.73301e-05 0.00175562
0.00499999 -3.38813e-21 0 0.00183871
-0.00500002 3.38813e-21 0 0.00175543
0.0050185 0 0 0.00183881
0.0050185 -3.38813e-21 1.73154e-05 0.00183881
-0.00501854 -3.38813e-21 0 0.00175528
-0.00501854 -3.38813e-21 1.73301e-05 0.00175528
0.00375 0 0.00356872 0.000587049
-0.00375 0 0.00356872 0.000502714
0.0025 5.64689e-22 0.00479884 0.000466818
-0.0025 5.64689e-22 0.00479885 0.000415308
0.005 0 0.00233917 0.00122873
-0.00500001 -1.12938e-21 0.00233917 0.00113102
0.00125 1.0842e-19 0.00608215 0.00034888
-0.00125 1.0842e-19 0.00608215 0.000325535
0.00624999 0 0.00116944 0.00184616
-0.00625001 0 0.00116944 0.00174249
0.005 -1.12938e-21 0.00479884 0.000503037
-0.005 1.12938e-21 0.00479885 0.000399614
-0.00375 -1.0842e-19 0.00608215 0.000306981
0.00375 -2.1684e-19 0.00608215 0.000377578
0.00625 0 0.00356872 0.000631128
-0.00625001 -1.0842e-19 0.00356873 0.000490747
-1.98497e-10 1.12938e-21 0.00736575 0.000343626
-0.00748147 0 0 0.00172749
0.00748148 0 0 0.00184918
-0.00748147 0 1.73322e-05 0.00172749
0.00748148 0 1.73145e-05 0.00184918
0.00749999 0 0 0.00184917
-0.0075 -3.38813e-21 0 0.00172726
0.0075185 0 0 0.00184922
0.0075185 0 1.73145e-05 0.00184922
-0.00751853 0 0 0.00172708
-0.00751853 0 1.73322e-05 0.00172708
-0.0025 5.64689e-22 0.00736575 0.000324417
0.0025 1.69407e-21 0.00736575 0.000366982
0.0075 1.12938e-21 0.00233917 0.00125725
-0.00750001 -5.64689e-22 0.00233917 0.0011127
-0.00625 1.0842e-19 0.00608215 0.000295235
0.00625 1.0842e-19 0.00608215 0.000413362
0.00125 0 0.008656 0.000359583
-0.00125 1.0842e-19 0.00865601 0.000340525
0.00875 1.0842e-19 0.00116943 0.00185223
-0.00875 -2.1684e-19 0.00116943 0.00171208
-0.005 1.12938e-21 0.00736575 0.000309704
0.005 -1.12938e-21 0.00736575 0.00039513
0.0075 5.64689e-22 0.00479884 0.000546692
-0.0075 0 0.00479885 0.000391129
-0.00375 0 0.008656 0.000324651
0.00375 0 0.008656 0.000381899
0.00875 -1.0842e-19 0.00356873 0.000680775
-0.00875 2.1684e-19 0.00356873 0.000486059
-4.51345e-11 2.25875e-21 0.00994619 0.000379318
-0.00998147 0 0 0.00169349
-0.00998147 0 1.73338e-05 0.00169349
0.00998149 0 0 0.00184886
0.00998149 3.38813e-21 1.73143e-05 0.00184886
0.01 0 0 0.00184865
-0.01 0 0 0.00169322
0.0100185 0 0 0.00184862
0.0100185 0 1.73143e-05 0.00184862
-0.0100185 3.38813e-21 0 0.00169301
-0.0100185 0 1.73338e-05 0.00169301
-0.0025 0 0.00994619 0.00035971
0.0025 0 0.00994619 0.000400197
0.01 1.69407e-21 0.00233917 0.00128179
-0.01 -1.12938e-21 0.00233917 0.00109435
-0.0075 -1.12938e-21 0.00736575 0.000300245
0.0075 1.12938e-21 0.00736575 0.000429114
-0.00875 -1.0842e-19 0.00608215 0.000289691
0.00875 0 0.00608215 0.000458384
-0.00625 0 0.008656 0.000311972
0.00625 0 0.00865601 0.000407675
0.01 5.64689e-22 0.00479884 0.00059661
-0.01 -1.12938e-21 0.00479885 0.000388028
-0.005 5.64689e-22 0.00994619 0.000342593
0.005 0 0.00994619 0.000421953
0.00125 -1.0842e-19 0.011217 0.000419399
-0.00125 0 0.011217 0.000397461
-0.01125 0 0.00116944 0.00167442
0.01125 0 0.00116944 0.00184524
-0.01125 1.0842e-19 0.00356872 0.000485912
0.01125 0 0.00356873 0.00073102
-0.00375 1.0842e-19 0.011217 0.00037592
0.00375 -1.0842e-19 0.011217 0.000439603
-0.00875 0 0.008656 0.000304106
0.00875 2.1684e-19 0.00865601 0.000437006
-0.01 -5.64689e-22 0.00736575 0.000295464
0.01 5.64689e-22 0.00736575 0.000469387
-0.0075 0 0.00994619 0.000329484
0.0075 -1.12938e-21 0.00994619 0.000445199
-0.0124815 -3.38813e-21 0 0.00165219
-0.0124815 0 1.73348e-05 0.00165219
0.0124815 0 0 0.00182368
0.0124815 3.38813e-21 1.73154e-05 0.00182368
-6.39422e-12 0 0.0124877 0.00042404
0.0125 0 0 0.00182298
-0.0125 0 0 0.00165185
0.0125185 0 0 0.00182268
0.0125185 0 1.73155e-05 0.00182268
-0.0125185 0 0 0.00165158
-0.0125185 0 1.73348e-05 0.00165158
0.0125 2.25875e-21 0.00233917 0.0012941
-0.0125 -1.12938e-21 0.00233917 0.00107417
-0.0025 -1.12938e-21 0.0124877 0.000399514
0.0025 0 0.0124877 0.000448931
0.01125 1.0842e-19 0.00608215 0.000513143
-0.01125 0 0.00608215 0.00028765
-0.00625 1.0842e-19 0.011217 0.000357576
0.00625 -1.0842e-19 0.011217 0.000458353
0.0125 0 0.00479884 0.000650976
-0.0125 -2.25875e-21 0.00479885 0.000388266
-0.005 -2.25875e-21 0.0124877 0.000377828
0.005 0 0.0124877 0.000472443
0.01375 1.0842e-19 0.00116944 0.00180112
-0.01375 0 0.00116944 0.00162935
0.00125 0 0.0137433 0.000453941
-0.00125 -1.0842e-19 0.0137433 0.000425237
-0.01 0 0.00994619 0.000320894
0.01 -1.69407e-21 0.00994619 0.000470379
-0.01125 0 0.008656 0.00030043
0.01125 -1.0842e-19 0.00865601 0.000468957
0.01375 1.0842e-19 0.00356872 0.000782353
-0.01375 0 0.00356872 0.000488741
-0.00875 0 0.011217 0.000344057
0.00875 0 0.011217 0.000477524
-0.00375 1.0842e-19 0.0137433 0.000399336
0.00375 0 0.0137433 0.000482629
-0.0125 5.64689e-22 0.00736575 0.00029372
0.0125 -1.12938e-21 0.00736575 0.000514423
-0.0075 -2.25875e-21 0.0124877 0.000360668
0.0075 0 0.0124877 0.000494241
-0.0149815 -3.38813e-21 0 0.00160499
-0.0149815 0 1.73342e-05 0.00160499
0.0149815 -3.38813e-21 0 0.00174101
0.0149815 0 1.73189e-05 0.00174101
-5.06531e-13 0 0.0149988 0.000437692
0.015 0 0 0.00173965
-0.015 0 0 0.00160462
0.0150185 0 0 0.00173853
0.0150185 -3.38813e-21 1.7319e-05 0.00173853
-0.0150185 0 0 0.00160428
-0.0150185 0 1.73342e-05 0.00160428
0.01375 -1.0842e-19 0.00608215 0.000574363
-0.01375 0 0.00608215 0.000287933
-0.00625 1.0842e-19 0.0137433 0.000378388
0.00625 1.0842e-19 0.0137433 0.000509002
-0.015 5.64689e-22 0.00233917 0.00105245
0.015 0 0.00233917 0.00128014
-0.0025 0 0.0149988 0.000409703
0.0025 0 0.0149988 0.000468169
-0.015 -1.12938e-21 0.00479885 0.00039129
0.015 5.64689e-22 0.00479885 0.000710264
-0.005 0 0.0149988 0.000386351
0.005 0 0.0149988 0.000498606
-0.01125 0 0.011217 0.000334788
0.01125 1.0842e-19 0.011217 0.000497851
-0.0125 5.64689e-22 0.00994619 0.000315656
0.0125 0 0.00994619 0.000496457
-0.01 -1.69407e-21 0.0124877 0.00034807
0.01 0 0.0124877 0.000514363
-0.01375 0 0.008656 0.000298886
0.01375 -1.0842e-19 0.008656 0.00050113
0.01625 0 0.00116944 0.00167842
-0.01625 -1.0842e-19 0.00116944 0.00157993
-0.00875 -2.1684e-19 0.0137433 0.000362567
0.00875 1.0842e-19 0.0137433 0.000531876
0.00125 -2.1684e-19 0.0162494 0.000451341
-0.00125 -2.1684e-19 0.0162494 0.000420254
-0.01625 0 0.00356872 0.000494352
0.01625 -1.0842e-19 0.00356873 0.000844163
0.00375 0 0.0162494 0.000484767
-0.00375 1.0842e-19 0.0162494 0.000393989
-0.015 -5.64689e-22 0.00736575 0.000294179
0.015 -5.64689e-22 0.00736575 0.00056034
-0.0075 0 0.0149988 0.000368238
0.0075 0 0.0149988 0.000526986
0.01625 -1.0842e-19 0.00608215 0.000637233
-0.01625 -2.1684e-19 0.00608215 0.000291269
-0.00625 -1.0842e-19 0.0162494 0.000373692
0.00625 2.1684e-19 0.0162494 0.000518021
-0.0174815 0 0 0.00155502
0.0174815 3.38813e-21 0 0.00159107
-0.0174815 0 1.73322e-05 0.00155502
0.0174815 0 1.73268e-05 0.00159107
-1.03926e-14 0 0.0175 0.000420679
0.0175 0 0 0.00158999
-0.0175 -3.38813e-21 0 0.00155464
0.0175185 3.38813e-21 0 0.00158853
-0.0175185 0 0 0.00155429
0.0175185 0 1.7327e-05 0.00158853
-0.0175185 3.38813e-21 1.73322e-05 0.00155429
-0.0175 5.64689e-22 0.00233917 0.00103062
0.0175 5.64689e-22 0.00233917 0.00123946
-0.0125 -1.69407e-21 0.0124877 0.000338969
0.0125 0 0.0124877 0.000532338
0.0025 0 0.0175 0.000452752
-0.0025 0 0.0175 0.000393472
-0.01375 -1.0842e-19 0.011217 0.000328352
0.01375 -1.0842e-19 0.011217 0.000517777
-0.01125 -2.1684e-19 0.0137433 0.000350795
0.01125 0 0.0137433 0.000549989
-0.015 5.64689e-22 0.00994619 0.0003125
0.015 1.69407e-21 0.00994619 0.000520478
-0.01 0 0.0149988 0.000354571
0.01 0 0.0149988 0.000551608
-0.0175 -1.12938e-21 0.00479885 0.000397022
0.0175 0 0.00479886 0.000775108
0.005 0 0.0175 0.000487663
-0.005 0 0.0175 0.000371903
-0.01625 1.0842e-19 0.008656 0.000298641
0.01625 1.0842e-19 0.008656 0.000528482
0.00875 1.0842e-19 0.0162494 0.000549034
-0.00875 0 0.0162494 0.000358306
-0.01875 0 0.00116943 0.00152938
0.01875 0 0.00116944 0.00150117
0.00125 1.0842e-19 0.01875 0.000420022
-0.00125 1.0842e-19 0.01875 0.0003911
-0.0175 0 0.00736575 0.000296666
0.0175 0 0.00736575 0.000601727
0.0075 0 0.0175 0.000522624
-0.0075 0 0.0175 0.000355385
-0.01875 1.0842e-19 0.00356872 0.000502266
0.01875 1.0842e-19 0.00356873 0.000922937
0.00375 1.0842e-19 0.01875 0.000454885
-0.00375 -1.0842e-19 0.01875 0.000368544
-0.01375 0 0.0137433 0.000341879
0.01375 1.0842e-19 0.0137433 0.000563538
-0.015 -2.25875e-21 0.0124877 0.000332354
0.015 0 0.0124877 0.000547822
-0.0125 0 0.0149988 0.000344193
0.0125 0 0.0149988 0.000571439
-0.01875 0 0.00608215 0.000297307
0.01875 0 0.00608216 0.000693011
-0.01625 1.0842e-19 0.011217 0.000323976
0.01625 0 0.011217 0.000534469
0.01125 -1.0842e-19 0.0162494 0.000575508
-0.01125 0 0.0162494 0.000346617
0.00625 -1.0842e-19 0.01875 0.000492987
-0.00625 1.0842e-19 0.01875 0.000351385
0.0199815 0 0 0.00144469
0.0199815 0 1.73426e-05 0.00144469
-0.0199815 0 0 0.0015047
-0.0199815 3.38813e-21 1.73298e-05 0.0015047
-1.01899e-14 0 0.02 0.000381088
0.02 0 0 0.00144449
-0.02 0 0 0.00150432
-0.0200185 -3.38813e-21 0 0.00150396
-0.0200185 0 1.73298e-05 0.00150396
0.0200185 0 0 0.00144373
0.0200185 0 1.73432e-05 0.00144373
-0.0175 -1.12938e-21 0.00994619 0.000310768
0.0175 2.25875e-21 0.00994619 0.000539636
-0.02 5.64689e-22 0.00233917 0.00100994
0.02 1.12938e-21 0.00233917 0.00120742
0.01 0 0.0175 0.000554678
-0.01 0 0.0175 0.000342735
0.0025 0 0.02 0.000409149
-0.0025 0 0.02 0.000358774
-0.02 -1.12938e-21 0.00479885 0.000405406
0.02 0 0.00479886 0.000841132
0.005 0 0.02 0.000442584
-0.005 0 0.02 0.000341465
-0.01875 0 0.008656 0.000299453
0.01875 1.0842e-19 0.00865601 0.000547968
-0.00875 2.1684e-19 0.01875 0.000338158
0.00875 1.0842e-19 0.01875 0.000530464
-0.015 0 0.0149988 0.000336207
0.015 0 0.0149988 0.000587438
0.02125 0 0.00116944 0.00138725
-0.02125 -1.0842e-19 0.00116943 0.00147929
-0.01625 -1.0842e-19 0.0137433 0.000335156
0.01625 1.0842e-19 0.0137433 0.000575328
0.01375 0 0.0162494 0.000596685
-0.01375 0 0.0162494 0.000337485
0.00125 1.0842e-19 0.02125 0.000367227
-0.00125 0 0.02125 0.000346
-0.02 2.25875e-21 0.00736575 0.000301187
0.02 -5.64689e-22 0.00736576 0.00063409
0.0075 0 0.02 0.000479438
-0.0075 0 0.02 0.000328045
-0.0175 -2.25875e-21 0.0124877 0.000327477
0.0175 -5.64689e-22 0.0124877 0.000561462
0.0125 0 0.0175 0.00058182
-0.0125 0 0.0175 0.000332861
0.02125 -1.0842e-19 0.00356874 0.00101073
-0.02125 0 0.00356872 0.000513219
-0.00375 0 0.02125 0.000329448
0.00375 0 0.02125 0.000394458
-0.01875 0 0.011217 0.000320878
0.01875 1.0842e-19 0.011217 0.000547614
-0.01125 2.1684e-19 0.01875 0.000327858
0.01125 0 0.01875 0.000563715
0.02125 0 0.00608216 0.000734278
-0.02125 0 0.00608215 0.000305906
0.00625 0 0.02125 0.000428008
-0.00625 0 0.02125 0.000316478
-0.02 0 0.00994619 0.000310333
0.02 5.64689e-22 0.00994619 0.000553538
0.01 0 0.02 0.000516498
-0.01 0 0.02 0.000317497
0.0224814 0 0 0.00137219
0.0224814 3.38813e-21 1.73763e-05 0.00137219
-0.0224815 -3.38813e-21 0 0.00145642
-0.0224815 0 1.73277e-05 0.00145642
0.0225 0 0 0.00137234
-1.01898e-14 0 0.0225 0.000331054
-0.0225 0 0 0.00145606
-0.0225185 0 0 0.0014557
-0.0225185 0 1.73276e-05 0.0014557
0.0225186 3.38813e-21 0 0.00137215
0.0225186 3.38813e-21 1.73774e-05 0.00137215
-0.0225 -1.69407e-21 0.00233917 0.000991998
0.0225 -1.69407e-21 0.00233918 0.0012151
0.0025 0 0.0225 0.000351464
-0.0025 0 0.0225 0.000314968
-0.02125 1.0842e-19 0.008656 0.000302077
0.02125 -1.0842e-19 0.00865601 0.000560835
0.01625 1.0842e-19 0.0162494 0.000614155
-0.01625 0 0.0162494 0.000330312
0.00875 -1.0842e-19 0.02125 0.000466295
-0.00875 0 0.02125 0.000306154
-0.0225 5.64689e-22 0.00479885 0.000416722
0.0225 5.64689e-22 0.00479887 0.000901914
-0.0175 0 0.0149988 0.000329901
0.0175 0 0.0149988 0.000602146
0.015 0 0.0175 0.000604
-0.015 0 0.0175 0.000324958
0.005 0 0.0225 0.000377005
-0.005 0 0.0225 0.000302202
-0.01875 0 0.0137433 0.000329855
0.01875 -1.0842e-19 0.0137433 0.000588274
-0.01375 0 0.01875 0.000319484
0.01375 0 0.01875 0.000591376
-0.02 -1.69407e-21 0.0124877 0.000323741
0.02 2.82344e-21 0.0124877 0.000574161
0.0125 0 0.02 0.000550675
-0.0125 0 0.02 0.000308956
-0.0225 1.69407e-21 0.00736575 0.000307636
0.0225 5.64689e-22 0.00736576 0.000654602
0.0075 0 0.0225 0.000407787
-0.0075 0 0.0225 0.000291919
0.0237499 -1.0842e-19 0.00116944 0.00135708
-0.02375 0 0.00116943 0.00143283
0.00125 1.0842e-19 0.02375 0.000312858
-0.00125 0 0.02375 0.000298127
0.0237499 -1.0842e-19 0.00356875 0.00110032
-0.02375 1.0842e-19 0.00356873 0.000527997
0.02125 -1.0842e-19 0.011217 0.000557751
-0.02125 1.0842e-19 0.011217 0.000318824
0.01125 0 0.02125 0.000505524
-0.01125 0 0.02125 0.000297815
0.00375 0 0.02375 0.000331309
-0.00375 1.0842e-19 0.02375 0.000286294
0.02375 -1.0842e-19 0.00608218 0.000757967
-0.02375 1.0842e-19 0.00608215 0.000316798
0.00625 1.0842e-19 0.02375 0.000354239
-0.00625 -1.0842e-19 0.02375 0.000276584
0.0225 1.12938e-21 0.00994619 0.000561965
-0.0225 0 0.00994619 0.000310977
0.01 0 0.0225 0.000442521
-0.01 0 0.0225 0.000283505
0.0175 0 0.0175 0.000622908
-0.0175 0 0.0175 0.000318406
0.01875 0 0.0162494 0.000630772
-0.01875 0 0.0162494 0.000324287
0.01625 0 0.01875 0.000613788
-0.01625 1.0842e-19 0.01875 0.000312552
0.0249812 0 0 0.00137044
0.0249812 0 1.74554e-05 0.00137044
-0.0249815 0 0 0.00141411
-0.0249815 3.38813e-21 1.73258e-05 0.00141411
0.02 0 0.0149988 0.000617544
-0.02 0 0.0149988 0.00032461
0.0249999 0 0 0.00137108
-0.015 0 0.02 0.000301811
0.015 0 0.02 0.000580153
-0.025 -3.38813e-21 0 0.00141382
-1.01898e-14 0 0.025 0.000280252
-0.0250185 0 0 0.0014135
-0.0250185 0 1.73257e-05 0.0014135
0.0250186 0 0 0.00137122
0.0250186 3.38813e-21 1.74583e-05 0.00137122
0.0249999 0 0.00233919 0.0012591
-0.025 5.64689e-22 0.00233917 0.000978771
0.0025 0 0.025 0.000294332
-0.0025 0 0.025 0.000268764
0.02375 -1.0842e-19 0.00865602 0.000565021
-0.02375 1.0842e-19 0.008656 0.000305748
0.02125 0 0.0137433 0.000602834
-0.02125 0 0.0137433 0.000325374
0.01375 1.0842e-19 0.02125 0.000542093
0.00875 0 0.02375 0.000382604
-0.00875 0 0.02375 0.000268456
-0.01375 1.0842e-19 0.02125 0.000290665
0.0249999 5.64689e-22 0.00479889 0.000952354
-0.025 0 0.00479885 0.000430549
0.005 0 0.025 0.000311602
-0.005 0 0.025 0.000259273
0.0225 5.64689e-22 0.0124877 0.000585805
-0.0225 -5.64689e-22 0.0124877 0.000320668
0.0125 0 0.0225 0.000478358
-0.0125 0 0.0225 0.000276402
-0.025 1.12938e-21 0.00736575 0.000315044
0.025 -5.64689e-22 0.00736577 0.00065958
0.0075 0 0.025 0.000332709
-0.0075 0 0.025 0.000251282
-0.02375 0 0.011217 0.000317183
0.02375 0 0.011217 0.00056427
0.0262497 1.0842e-19 0.00116946 0.00138457
-0.02625 0 0.00116943 0.00139478
0.00125 0 0.02625 0.000260283
0.01125 0 0.02375 0.000415663
-0.01125 0 0.02375 0.000261593
-0.00125 1.0842e-19 0.02625 0.000249736
0.0262498 -1.0842e-19 0.00356879 0.00119084
-0.02625 -1.0842e-19 0.00356872 0.000545734
-0.01875 1.0842e-19 0.01875 0.000306474
0.00375 0 0.02625 0.000272874
-0.00375 -1.0842e-19 0.02625 0.000240896
0.01875 0 0.01875 0.000632915
0.02 0 0.0175 0.000640648
-0.02 0 0.0175 0.000312674
0.0175 0 0.02 0.00060474
-0.0175 0 0.02 0.000295637
0.02125 1.0842e-19 0.0162494 0.000648238
-0.02125 1.0842e-19 0.0162494 0.000318931
0.01625 1.0842e-19 0.02125 0.000573361
-0.01625 0 0.02125 0.00028454
0.025 1.69407e-21 0.00994619 0.000564534
-0.025 1.69407e-21 0.00994619 0.000311872
0.01 0 0.025 0.000358008
-0.01 0 0.025 0.00024447
0.0262499 1.0842e-19 0.0060822 0.000754804
-0.02625 2.1684e-19 0.00608215 0.000328631
0.00625 1.0842e-19 0.02625 0.000287982
-0.00625 0 0.02625 0.000233317
0.0225 0 0.0149988 0.000633917
-0.0225 0 0.0149988 0.000319907
0.015 0 0.0225 0.000512113
-0.015 0 0.0225 0.00027023
0.02375 -2.1684e-19 0.0137433 0.000618166
-0.02375 1.0842e-19 0.0137433 0.000321269
0.01375 0 0.02375 0.000450156
-0.01375 0 0.02375 0.000255535
0.0274807 -3.38813e-21 0 0.00144583
0.0274807 -3.38813e-21 1.76451e-05 0.00144583
-0.0274815 0 0 0.00137928
-0.0274815 0 1.7324e-05 0.00137928
0.0274996 0 0 0.00144753
-0.0275 0 0 0.00137905
-1.18266e-14 -5.64689e-22 0.0275 0.000230243
0.0275185 -3.38813e-21 0 0.00144857
0.0275185 0 1.76516e-05 0.00144857
-0.0275185 0 0 0.00137878
-0.0275185 0 1.7324e-05 0.00137878
0.0274996 1.12938e-21 0.00233923 0.00133934
-0.0275 -1.12938e-21 0.00233917 0.000970553
-0.0025 -5.64689e-22 0.0275 0.000221716
0.0025 0 0.0275 0.000240253
0.02625 1.0842e-19 0.00865603 0.000560203
-0.02625 1.0842e-19 0.008656 0.000308971
-0.00875 -1.0842e-19 0.02625 0.000226768
0.00875 1.0842e-19 0.02625 0.000306006
0.0274998 1.69407e-21 0.00479892 0.000984274
-0.0275 -5.64689e-22 0.00479885 0.000445621
0.025 0 0.0124877 0.000596282
-0.025 0 0.0124877 0.000317857
0.0125 0 0.025 0.000386678
-0.0125 0 0.025 0.000238527
0.005 0 0.0275 0.000252031
-0.005 0 0.0275 0.000214403
0.02 0 0.02 0.000625557
-0.02 0 0.02 0.000290115
0.01875 0 0.02125 0.000598898
0.02125 0 0.01875 0.000650667
-0.01875 0 0.02125 0.000278982
-0.02125 1.0842e-19 0.01875 0.000301007
0.0274999 5.64689e-22 0.00736579 0.000644893
-0.0275 -1.12938e-21 0.00736575 0.000321951
0.0225 0 0.0175 0.000658474
-0.0225 0 0.0175 0.000307523
0.0175 0 0.0225 0.000541736
-0.0175 0 0.0225 0.000264742
0.0075 0 0.0275 0.000265845
-0.0075 0 0.0275 0.000208053
-0.02625 -1.0842e-19 0.011217 0.000315538
0.02625 0 0.011217 0.000568623
0.01125 0 0.02625 0.000327757
-0.01125 1.0842e-19 0.02625 0.000221063
0.0287493 1.0842e-19 0.00116949 0.00150982
-0.02875 1.0842e-19 0.00116943 0.00136329
0.02375 1.0842e-19 0.0162494 0.000666371
-0.02375 0 0.0162494 0.000314061
0.01625 1.0842e-19 0.02375 0.000482848
-0.01625 0 0.02375 0.000250178
-0.00125 0 0.0287506 0.00020153
0.00125 0 0.0287506 0.000209415
0.0287494 1.0842e-19 0.00356886 0.00126866
-0.02875 0 0.00356872 0.000565508
0.00375 2.1684e-19 0.0287506 0.000218431
-0.00375 -1.0842e-19 0.0287506 0.000194692
0.025 0 0.0149988 0.000650607
-0.025 0 0.0149988 0.000315604
0.015 0 0.025 0.000416727
-0.015 0 0.025 0.000233243
-0.0275 -1.12938e-21 0.00994619 0.000312208
0.0275 -5.64689e-22 0.0099462 0.000562707
0.01 0 0.0275 0.000282102
-0.01 0 0.0275 0.000202501
0.0287497 -1.0842e-19 0.00608226 0.000715791
-0.02875 0 0.00608215 0.00033947
0.00625 1.0842e-19 0.0287506 0.000228825
-0.00625 -1.0842e-19 0.0287506 0.000188697
0.02625 0 0.0137433 0.000633831
-0.02625 0 0.0137433 0.000317427
0.01375 0 0.02625 0.000353138
-0.01375 0 0.02625 0.000215916
0.0299797 0 0 0.00163017
0.0299797 -3.38813e-21 1.80781e-05 0.00163017
-0.0299815 0 0 0.0013506
-0.0299815 0 1.73219e-05 0.0013506
0.029999 0 0 0.00163249
-0.03 0 0 0.0013504
-1.17055e-12 -1.12938e-21 0.0300012 0.000181611
0.0300183 -3.38813e-21 0 0.0016346
0.0300183 0 1.80919e-05 0.0016346
-0.0300185 -3.38813e-21 0 0.00135018
-0.0300185 0 1.73218e-05 0.00135018
0.0287499 1.0842e-19 0.00865605 0.000548452
-0.02875 0 0.008656 0.000310688
0.02125 -1.0842e-19 0.02125 0.000619747
-0.02125 -1.0842e-19 0.02125 0.000273996
0.00875 1.0842e-19 0.0287506 0.000240557
-0.00875 -1.0842e-19 0.0287506 0.000183422
0.029999 0 0.00233931 0.0014649
-0.03 0 0.00233917 0.000964397
0.02 0 0.0225 0.000566553
0.0225 0 0.02 0.000644241
-0.02 0 0.0225 0.000259789
-0.0225 0 0.02 0.000285157
0.0025 -5.64689e-22 0.0300012 0.000188954
-0.0025 -5.64689e-22 0.0300012 0.000175154
0.0275 -1.12938e-21 0.0124877 0.000606129
-0.0275 0 0.0124877 0.000315081
0.0125 0 0.0275 0.000301168
-0.0125 0 0.0275 0.000197567
-0.01875 2.1684e-19 0.02375 0.000245268
0.01875 1.0842e-19 0.02375 0.000511843
-0.02375 0 0.01875 0.000296095
0.02375 0 0.01875 0.000668618
0.0299995 1.12938e-21 0.00479899 0.000993393
-0.03 2.25875e-21 0.00479885 0.000458316
0.005 0 0.0300012 0.000197291
-0.005 0 0.0300012 0.000169494
-0.025 0 0.0175 0.000302889
0.025 0 0.0175 0.000676418
0.0175 0 0.025 0.000445866
-0.0175 0 0.025 0.000228492
0.02875 0 0.0112171 0.00057346
-0.02875 0 0.011217 0.00031361
-0.02625 1.0842e-19 0.0162494 0.000309668
0.02625 1.0842e-19 0.0162494 0.000684
0.01625 0 0.02625 0.000380769
-0.01625 0 0.02625 0.000211342
0.01125 0 0.0287506 0.000254074
-0.01125 0 0.0287506 0.000178746
0.0299998 5.64689e-22 0.00736582 0.000615437
-0.03 5.64689e-22 0.00736575 0.000326882
0.0075 0 0.0300012 0.00020668
-0.0075 0 0.0300012 0.000164493
0.0312483 1.0842e-19 0.00116956 0.00175491
-0.03125 1.0842e-19 0.00116944 0.00133749
-0.00125 0 0.0312567 0.000154761
0.00125 1.0842e-19 0.0312567 0.000160675
-0.0275 0 0.0149988 0.000311617
0.0275 -5.64689e-22 0.0149988 0.000666354
0.015 0 0.0275 0.000322769
-0.015 0 0.0275 0.000193145
0.0312487 1.0842e-19 0.00356898 0.0013209
-0.03125 1.0842e-19 0.00356872 0.000579109
0.00375 0 0.0312567 0.00016723
-0.00375 -1.0842e-19 0.0312567 0.000149574
-0.03 -1.69407e-21 0.00994619 0.000311775
0.03 -5.64689e-22 0.00994621 0.000559999
0.01 0 0.0300012 0.000217212
-0.01 0 0.0300012 0.00016006
0.0225 0 0.0225 0.000587145
-0.0225 0 0.0225 0.00025535
0.0312494 0 0.00608236 0.000659597
-0.03125 0 0.00608215 0.000345929
0.02875 -1.0842e-19 0.0137433 0.000648321
-0.02875 0 0.0137433 0.000313746
0.02125 0 0.02375 0.000535729
-0.02125 1.0842e-19 0.02375 0.00024091
-0.02375 0 0.02125 0.00026953
0.02375 0 0.02125 0.000637934
0.01375 0 0.0287506 0.000269691
-0.01375 0 0.0287506 0.000174535
0.00625 1.0842e-19 0.0312567 0.000174611
-0.00625 0 0.0312567 0.000144954
0.025 0 0.02 0.000662016
0.02 0 0.025 0.000471907
-0.02 0 0.025 0.000224199
-0.025 0 0.02 0.000280728
0.02625 1.0842e-19 0.01875 0.000686686
0.01875 0 0.02625 0.000408011
-0.01875 0 0.02625 0.000207178
-0.02625 -1.0842e-19 0.01875 0.000291733
0.0312498 1.0842e-19 0.00865609 0.00053763
-0.03125 0 0.008656 0.000311388
0.00875 1.0842e-19 0.0312567 0.000182653
-0.00875 1.0842e-19 0.0312567 0.000140842
0.0324773 -3.38813e-21 0 0.00189576
0.0324773 0 1.90026e-05 0.00189576
-0.0324815 -3.38813e-21 0 0.00132692
-0.0324815 -3.38813e-21 1.73195e-05 0.00132692
0.03 1.69407e-21 0.0124877 0.000615507
-0.03 0 0.0124877 0.000312276
0.0324976 -3.38813e-21 0 0.001898
-0.0325 0 0 0.00132677
0.0125 0 0.0300012 0.000229134
-0.0125 0 0.0300012 0.000156094
-1.66453e-11 -1.12938e-21 0.0325123 0.00013569
0.0325179 0 0 0.00190029
0.0325179 -3.38813e-21 1.903e-05 0.00190029
-0.0325185 -3.38813e-21 0 0.00132659
-0.0325185 0 1.73195e-05 0.00132659
0.0324979 -2.82344e-21 0.00233944 0.00161295
-0.0325 -5.64689e-22 0.00233917 0.000957206
0.0275 0 0.0175 0.000692974
-0.0275 0 0.0175 0.000298705
0.0175 0 0.0275 0.000345846
-0.0175 0 0.0275 0.000189157
0.0025 -1.12938e-21 0.0325123 0.000141079
-0.0025 0 0.0325123 0.000130873
0.0324988 5.64689e-22 0.00479911 0.000982816
-0.0325 0 0.00479885 0.000465453
0.005 0 0.0325123 0.000147054
-0.005 -1.69407e-21 0.0325123 0.000126605
0.02875 0 0.0162494 0.000699202
-0.02875 0 0.0162494 0.000305635
0.01625 1.0842e-19 0.0287506 0.000287465
-0.01625 -1.0842e-19 0.0287506 0.000170778
0.03125 1.0842e-19 0.0112171 0.000580278
-0.03125 -1.0842e-19 0.011217 0.000311409
0.01125 1.0842e-19 0.0312567 0.000191487
-0.01125 0 0.0312567 0.000137176
0.0324996 -1.69407e-21 0.00736589 0.000585631
-0.0325 1.69407e-21 0.00736575 0.000329446
0.0075 0 0.0325123 0.000153602
-0.0075 -2.25875e-21 0.0325123 0.00012279
0.03 1.12938e-21 0.0149988 0.000679134
-0.03 0 0.0149988 0.000307918
0.015 0 0.0300012 0.000242588
-0.015 0 0.0300012 0.000152528
0.02375 1.0842e-19 0.02375 0.000555172
-0.02375 0 0.02375 0.000236963
0.0225 0 0.025 0.000493669
0.025 0 0.0225 0.000604928
-0.0225 0 0.025 0.000220322
-0.025 0 0.0225 0.000251359
0.0337462 1.0842e-19 0.00116968 0.00204103
-0.03375 1.0842e-19 0.00116944 0.00131602
0.02625 1.0842e-19 0.02125 0.000654831
0.02125 0 0.02625 0.00043205
-0.02125 0 0.02625 0.000203438
-0.02625 1.0842e-19 0.02125 0.000265554
-0.00125 0 0.0337829 0.000111404
0.00125 -1.0842e-19 0.033783 0.000115742
0.0337473 1.0842e-19 0.00356922 0.00132591
-0.03375 0 0.00356872 0.000584532
0.0324999 0 0.00994623 0.000558844
-0.0325 0 0.00994619 0.000310854
0.00375 -1.0842e-19 0.033783 0.000120486
-0.00375 -1.0842e-19 0.033783 0.000107582
0.0275 0 0.02 0.000677657
-0.0275 0 0.02 0.000276751
0.02 0 0.0275 0.000368609
-0.02 0 0.0275 0.000185535
0.01 0 0.0325123 0.000160685
-0.01 -2.25875e-21 0.0325123 0.000119392
-0.03125 0 0.0137433 0.000310341
0.03125 0 0.0137433 0.000659663
0.01375 0 0.0312567 0.0002012
-0.01375 1.0842e-19 0.0312567 0.000133865
0.0337487 2.1684e-19 0.00608252 0.00061504
-0.03375 0 0.00608215 0.000348925
0.02875 0 0.01875 0.000702015
-0.02875 1.0842e-19 0.01875 0.000287784
0.01875 1.0842e-19 0.0287506 0.000307125
-0.01875 0 0.0287506 0.000167324
0.00625 0 0.033783 0.000125696
-0.00625 -1.0842e-19 0.033783 0.000104141
0.03 0 0.0175 0.000705463
-0.03 0 0.0175 0.000294896
-0.0175 0 0.0300012 0.000149293
0.0175 0 0.0300012 0.000257604
0.0325 0 0.0124877 0.000623566
-0.0325 0 0.0124877 0.000309514
0.0125 0 0.0325123 0.000168368
-0.0125 -1.69407e-21 0.0325123 0.000116353
0.0337496 -1.0842e-19 0.00865618 0.000530051
-0.03375 0 0.008656 0.000311482
0.00875 0 0.033783 0.000131244
-0.00875 1.0842e-19 0.033783 0.00010106
0.0349723 0 0 0.00219038
0.0349723 0 2.08402e-05 0.00219038
-0.0349815 0 0 0.00130596
-0.0349815 -3.38813e-21 1.73177e-05 0.00130596
0.0349946 0 0 0.0021932
-0.035 0 0 0.00130582
0.0350168 0 0 0.00219603
0.0350169 0 2.08946e-05 0.00219602
-0.0350185 0 0 0.00130566
-0.0350185 -3.38813e-21 1.73177e-05 0.00130566
-1.11306e-10 2.82344e-21 0.0350538 9.48179e-05
0.0349955 0 0.00233965 0.00175128
-0.035 0 0.00233917 0.000948373
0.0025 2.82344e-21 0.0350538 9.86883e-05
-0.0025 5.64689e-22 0.0350538 9.13359e-05
0.03125 -1.0842e-19 0.0162494 0.00070929
-0.03125 1.0842e-19 0.0162494 0.000301962
-0.01625 0 0.0312567 0.000130883
0.01625 0 0.0312567 0.000211904
0.0349976 -1.12938e-21 0.00479931 0.000949897
-0.035 1.12938e-21 0.00479884 0.000468269
0.025 0 0.025 0.000511616
-0.025 0 0.025 0.00021678
0.02375 0 0.02625 0.00045173
0.02625 0 0.02375 0.000571778
-0.02625 0 0.02375 0.000233389
-0.02375 0 0.02625 0.000199975
0.005 2.25875e-21 0.0350538 0.000102896
-0.005 0 0.0350538 8.82333e-05
0.0275 0 0.0225 0.000619199
-0.0275 0 0.0225 0.000247731
0.0225 0 0.0275 0.000389232
-0.0225 0 0.0275 0.000182218
0.0337499 0 0.0112171 0.000587162
-0.03375 0 0.011217 0.000309143
0.01125 1.0842e-19 0.033783 0.000137143
-0.01125 0 0.033783 9.83289e-05
0.02875 0 0.02125 0.000667104
-0.02875 1.0842e-19 0.02125 0.000261933
0.02125 1.0842e-19 0.0287506 0.00032724
-0.02125 0 0.0287506 0.000164191
0.0349991 -5.64689e-22 0.00736599 0.000559507
-0.035 -5.64689e-22 0.00736575 0.000330386
0.0325 -5.64689e-22 0.0149988 0.000687619
-0.0325 0 0.0149988 0.000304522
-0.015 -5.64689e-22 0.0325123 0.000113614
0.015 -5.64689e-22 0.0325123 0.000176713
0.0075 0 0.0350538 0.000107393
-0.0075 -5.64689e-22 0.0350538 8.54452e-05
0.03 0 0.02 0.000688545
-0.03 0 0.02 0.000273127
-0.02 0 0.0300012 0.00014633
0.02 0 0.0300012 0.000273765
0.0362421 -1.0842e-19 0.00116989 0.00234516
-0.03625 2.1684e-19 0.00116944 0.00129561
-0.00125 -1.0842e-19 0.036344 7.44378e-05
0.00125 0 0.036344 7.74929e-05
0.0349998 5.64689e-22 0.00994626 0.000558157
-0.035 0 0.00994619 0.000309557
0.0362446 -1.0842e-19 0.00356957 0.00127877
-0.03625 0 0.00356872 0.00058604
-0.03375 1.0842e-19 0.0137433 0.00030717
0.03375 2.1684e-19 0.0137433 0.000666844
0.03125 0 0.01875 0.000711349
-0.03125 0 0.01875 0.000284205
-0.01875 0 0.0312567 0.000128135
0.01875 0 0.0312567 0.000223819
0.01 2.25875e-21 0.0350538 0.00011213
-0.01 0 0.0350538 8.29662e-05
-0.01375 1.0842e-19 0.033783 9.58846e-05
0.01375 0 0.033783 0.000143413
0.00375 -2.1684e-19 0.036344 8.08308e-05
-0.00375 -1.0842e-19 0.036344 7.17305e-05
0.0362474 1.0842e-19 0.00608279 0.000569556
-0.03625 1.0842e-19 0.00608215 0.000350243
0.00625 2.1684e-19 0.036344 8.43607e-05
-0.00625 1.0842e-19 0.036344 6.92954e-05
0.0325 0 0.0175 0.000712866
-0.0325 0 0.0175 0.000291435
-0.0175 0 0.0325123 0.000111121
0.0175 -5.64689e-22 0.0325123 0.000185832
0.02625 0 0.02625 0.000467787
-0.02625 0 0.02625 0.000196794
0.035 0 0.0124877 0.000629026
-0.035 0 0.0124877 0.000306838
0.0275 0 0.025 0.000525675
-0.0275 0 0.025 0.000213513
-0.025 0 0.0275 0.000179149
0.025 0 0.0275 0.000406778
0.0125 2.25875e-21 0.0350538 0.000117121
-0.0125 -5.64689e-22 0.0350538 8.07692e-05
0.0362491 -1.0842e-19 0.0086563 0.000523241
-0.03625 1.0842e-19 0.008656 0.000310829
0.02875 0 0.02375 0.000583087
-0.02875 0 0.02375 0.000230048
-0.02375 1.0842e-19 0.0287506 0.000161262
0.02375 1.0842e-19 0.0287506 0.000345897
0.00875 2.1684e-19 0.036344 8.80505e-05
-0.00875 -2.1684e-19 0.036344 6.71052e-05
0.03375 2.1684e-19 0.0162494 0.000714622
-0.03375 1.0842e-19 0.0162494 0.000298626
0.0374628 0 0 0.00250247
0.0374628 0 2.42437e-05 0.00250247
-0.0374815 0 0 0.00128521
-0.0374815 -3.38813e-21 1.7317e-05 0.00128521
-0.01625 -1.0842e-19 0.033783 9.36705e-05
0.01625 -1.0842e-19 0.033783 0.000150094
0.0374886 -3.38813e-21 0 0.00250559
-0.0375 3.38813e-21 0 0.00128505
0.03 0 0.0225 0.000628304
-0.03 0 0.0225 0.000244382
-0.0225 0 0.0300012 0.000143598
0.0225 -5.64689e-22 0.0300012 0.000290045
0.0375145 3.38813e-21 0 0.00250901
0.0375146 0 2.43512e-05 0.00250901
-0.0375185 0 0 0.0012849
-0.0375185 0 1.7317e-05 0.0012849
0.037491 -5.64689e-22 0.00233999 0.0018782
-0.0375 -1.12938e-21 0.00233917 0.000938196