# omega  POINT_DATA 42002
# x  y  z  omega
6.88365e-09 0 0 172.019
-1.85079e-05 0 0 172.012
1.85215e-05 0 0 172.026
-1.85078e-05 0 1.73213e-05 172.012
1.85214e-05 0 1.73212e-05 172.026
-0.00125 -1.0842e-19 0.00116943 171.527
0.00125 0 0.00116944 172.511
-4.9721e-10 0 0.00233917 115.359
-0.00248149 0 0 171
0.0024815 0 0 172.958
-0.00248149 3.38813e-21 1.73262e-05 171
0.0024815 0 1.73173e-05 172.958
0.00250001 0 0 172.962
-0.00250001 0 0 170.992
0.00251852 0 0 172.97
-0.00251853 -3.38813e-21 0 170.985
0.00251852 0 1.73173e-05 172.97
-0.00251853 0 1.73262e-05 170.985
0.0025 0 0.00233917 116.002
-0.0025 0 0.00233917 114.786
0.00125 -2.1684e-19 0.00356873 57.9122
-0.00125 0 0.00356873 57.6964
0.00375 2.1684e-19 0.00116944 173.417
-0.00375001 2.1684e-19 0.00116943 170.458
-5.29186e-10 -5.64689e-22 0.00479885 41.5856
0.00498148 0 0 173.662
-0.0049815 0 0 169.869
0.00498148 0 1.73154e-05 173.662
-0.0049815 0 1.73301e-05 169.869
0.00499999 -3.38813e-21 0 173.661
-0.00500002 3.38813e-21 0 169.86
0.0050185 0 0 173.664
0.0050185 -3.38813e-21 1.73154e-05 173.664
-0.00501854 -3.38813e-21 0 169.853
-0.00501854 -3.38813e-21 1.73301e-05 169.853
0.00375 0 0.00356872 58.3673
-0.00375 0 0.00356872 57.6861
0.0025 5.64689e-22 0.00479884 43.2322
-0.0025 5.64689e-22 0.00479885 40.3338
0.005 0 0.00233917 116.623
-0.00500001 -1.12938e-21 0.00233917 114.292
0.00125 1.0842e-19 0.00608215 26.4846
-0.00125 1.0842e-19 0.00608215 23.786
0.00624999 0 0.00116944 173.908
-0.00625001 0 0.00116944 169.263
0.005 -1.12938e-21 0.00479884 45.3007
-0.005 1.12938e-21 0.00479885 39.617
-0.00375 -1.0842e-19 0.00608215 21.6708
0.00375 -2.1684e-19 0.00608215 29.7388
0.00625 0 0.00356872 58.9957
-0.00625001 -1.0842e-19 0.00356873 58.0048
-1.98497e-10 1.12938e-21 0.00736575 22.5359
-0.00748147 0 0 168.597
0.00748148 0 0 173.865
-0.00748147 0 1.73322e-05 168.597
0.00748148 0 1.73145e-05 173.865
0.00749999 0 0 173.861
-0.0075 -3.38813e-21 0 168.587
0.0075185 0 0 173.861
0.0075185 0 1.73145e-05 173.861
-0.00751853 0 0 168.579
-0.00751853 0 1.73322e-05 168.579
-0.0025 5.64689e-22 0.00736575 20.2602
0.0025 1.69407e-21 0.00736575 25.2503
0.0075 1.12938e-21 0.00233917 117.13
-0.00750001 -5.64689e-22 0.00233917 113.895
-0.00625 1.0842e-19 0.00608215 20.5853
0.00625 1.0842e-19 0.00608215 33.7185
0.00125 0 0.008656 21.0748
-0.00125 1.0842e-19 0.00865601 18.7885
0.00875 1.0842e-19 0.00116943 173.818
-0.00875 -2.1684e-19 0.00116943 167.913
-0.005 1.12938e-21 0.00736575 18.5654
0.005 -1.12938e-21 0.00736575 28.4334
0.0075 5.64689e-22 0.00479884 47.847
-0.0075 0 0.00479885 39.509
-0.00375 0 0.008656 16.7864
0.00375 0 0.008656 23.6925
0.00875 -1.0842e-19 0.00356873 60.0044
-0.00875 2.1684e-19 0.00356873 58.6704
-4.51345e-11 2.25875e-21 0.00994619 19.1479
-0.00998147 0 0 167.113
-0.00998147 0 1.73338e-05 167.113
0.00998149 0 0 173.421
0.00998149 3.38813e-21 1.73143e-05 173.421
0.01 0 0 173.406
-0.01 0 0 167.101
0.0100185 0 0 173.402
0.0100185 0 1.73143e-05 173.402
-0.0100185 3.38813e-21 0 167.092
-0.0100185 0 1.73338e-05 167.092
-0.0025 0 0.00994619 17.1781
0.0025 0 0.00994619 21.3283
0.01 1.69407e-21 0.00233917 117.731
-0.01 -1.12938e-21 0.00233917 113.502
-0.0075 -1.12938e-21 0.00736575 17.6108
0.0075 1.12938e-21 0.00736575 32.0286
-0.00875 -1.0842e-19 0.00608215 20.2376
0.00875 0 0.00608215 38.3355
-0.00625 0 0.008656 15.209
0.00625 0 0.00865601 26.5719
0.01 5.64689e-22 0.00479884 51.0739
-0.01 -1.12938e-21 0.00479885 39.7708
-0.005 5.64689e-22 0.00994619 15.4881
0.005 0 0.00994619 23.6456
0.00125 -1.0842e-19 0.011217 19.31
-0.00125 0 0.011217 17.4262
-0.01125 0 0.00116944 166.291
0.01125 0 0.00116944 173.005
-0.01125 1.0842e-19 0.00356872 59.4394
0.01125 0 0.00356873 62.3369
-0.00375 1.0842e-19 0.011217 15.7176
0.00375 -1.0842e-19 0.011217 21.2469
-0.00875 0 0.008656 14.4004
0.00875 2.1684e-19 0.00865601 29.4743
-0.01 -5.64689e-22 0.00736575 17.2378
0.01 5.64689e-22 0.00736575 35.8035
-0.0075 0 0.00994619 14.2833
0.0075 -1.12938e-21 0.00994619 25.9323
-0.0124815 -3.38813e-21 0 165.322
-0.0124815 0 1.73348e-05 165.322
0.0124815 0 0 171.606
0.0124815 3.38813e-21 1.73154e-05 171.606
-6.39422e-12 0 0.0124877 17.7254
0.0125 0 0 171.562
-0.0125 0 0 165.307
0.0125185 0 0 171.544
0.0125185 0 1.73155e-05 171.544
-0.0125185 0 0 165.296
-0.0125185 0 1.73348e-05 165.296
0.0125 2.25875e-21 0.00233917 118.863
-0.0125 -1.12938e-21 0.00233917 112.899
-0.0025 -1.12938e-21 0.0124877 16.0141
0.0025 0 0.0124877 19.5436
0.01125 1.0842e-19 0.00608215 43.3281
-0.01125 0 0.00608215 20.1855
-0.00625 1.0842e-19 0.011217 14.2442
0.00625 -1.0842e-19 0.011217 23.0867
0.0125 0 0.00479884 55.6468
-0.0125 -2.25875e-21 0.00479885 40.1102
-0.005 -2.25875e-21 0.0124877 14.5365
0.005 0 0.0124877 21.2992
0.01375 1.0842e-19 0.00116944 170.145
-0.01375 0 0.00116944 164.326
0.00125 0 0.0137433 17.9457
-0.00125 -1.0842e-19 0.0137433 16.2248
-0.01 0 0.00994619 13.6605
0.01 -1.69407e-21 0.00994619 27.9221
-0.01125 0 0.008656 14.1168
0.01125 -1.0842e-19 0.00865601 32.059
0.01375 1.0842e-19 0.00356872 68.3012
-0.01375 0 0.00356872 59.8859
-0.00875 0 0.011217 13.2845
0.00875 0 0.011217 24.6185
-0.00375 1.0842e-19 0.0137433 14.6921
0.00375 0 0.0137433 19.6779
-0.0125 5.64689e-22 0.00736575 17.1852
0.0125 -1.12938e-21 0.00736575 39.4061
-0.0075 -2.25875e-21 0.0124877 13.4307
0.0075 0 0.0124877 22.7666
-0.0149815 -3.38813e-21 0 163.259
-0.0149815 0 1.73342e-05 163.259
0.0149815 -3.38813e-21 0 166.486
0.0149815 0 1.73189e-05 166.486
-5.06531e-13 0 0.0149988 16.1692
0.015 0 0 166.403
-0.015 0 0 163.242
0.0150185 0 0 166.335
0.0150185 -3.38813e-21 1.7319e-05 166.335
-0.0150185 0 0 163.227
-0.0150185 0 1.73342e-05 163.227
0.01375 -1.0842e-19 0.00608215 48.3441
-0.01375 0 0.00608215 20.372
-0.00625 1.0842e-19 0.0137433 13.4953
0.00625 1.0842e-19 0.0137433 21.1929
-0.015 5.64689e-22 0.00233917 112
0.015 0 0.00233917 119.847
-0.0025 0 0.0149988 14.6793
0.0025 0 0.0149988 17.828
-0.015 -1.12938e-21 0.00479885 40.4267
0.015 5.64689e-22 0.00479885 61.5994
-0.005 0 0.0149988 13.4831
0.005 0 0.0149988 19.4609
-0.01125 0 0.011217 12.8458
0.01125 1.0842e-19 0.011217 25.567
-0.0125 5.64689e-22 0.00994619 13.421
0.0125 0 0.00994619 29.3812
-0.01 -1.69407e-21 0.0124877 12.7723
0.01 0 0.0124877 23.757
-0.01375 0 0.008656 14.0552
0.01375 -1.0842e-19 0.008656 33.8714
0.01625 0 0.00116944 162.676
-0.01625 -1.0842e-19 0.00116944 162.159
-0.00875 -2.1684e-19 0.0137433 12.701
0.00875 1.0842e-19 0.0137433 22.1777
0.00125 -2.1684e-19 0.0162494 16.0065
-0.00125 -2.1684e-19 0.0162494 14.5019
-0.01625 0 0.00356872 60.0092
0.01625 -1.0842e-19 0.00356873 76.796
0.00375 0 0.0162494 17.6846
-0.00375 1.0842e-19 0.0162494 13.3002
-0.015 -5.64689e-22 0.00736575 17.3513
0.015 -5.64689e-22 0.00736575 42.439
-0.0075 0 0.0149988 12.631
0.0075 0 0.0149988 20.7763
0.01625 -1.0842e-19 0.00608215 52.6457
-0.01625 -2.1684e-19 0.00608215 20.8829
-0.00625 -1.0842e-19 0.0162494 12.446
0.00625 2.1684e-19 0.0162494 19.2912
-0.0174815 0 0 161.057
0.0174815 3.38813e-21 0 157.461
-0.0174815 0 1.73322e-05 161.057
0.0174815 0 1.73268e-05 157.461
-1.03926e-14 0 0.0175 14.2065
0.0175 0 0 157.398
-0.0175 -3.38813e-21 0 161.041
0.0175185 3.38813e-21 0 157.311
-0.0175185 0 0 161.025
0.0175185 0 1.7327e-05 157.311
-0.0175185 3.38813e-21 1.73322e-05 161.025
-0.0175 5.64689e-22 0.00233917 110.886
0.0175 5.64689e-22 0.00233917 119.354
-0.0125 -1.69407e-21 0.0124877 12.4492
0.0125 0 0.0124877 24.289
0.0025 0 0.0175 15.6122
-0.0025 0 0.0175 13.057
-0.01375 -1.0842e-19 0.011217 12.6729
0.01375 -1.0842e-19 0.011217 26.0652
-0.01125 -2.1684e-19 0.0137433 12.2597
0.01125 0 0.0137433 22.6762
-0.015 5.64689e-22 0.00994619 13.3557
0.015 1.69407e-21 0.00994619 30.2279
-0.01 0 0.0149988 12.0869
0.01 0 0.0149988 21.5792
-0.0175 -1.12938e-21 0.00479885 40.7171
0.0175 0 0.00479886 67.4771
0.005 0 0.0175 17.1427
-0.005 0 0.0175 12.202
-0.01625 1.0842e-19 0.008656 14.083
0.01625 1.0842e-19 0.008656 34.8675
0.00875 1.0842e-19 0.0162494 20.4463
-0.00875 0 0.0162494 11.8827
-0.01875 0 0.00116943 159.923
0.01875 0 0.00116944 152.097
0.00125 1.0842e-19 0.01875 13.7049
-0.00125 1.0842e-19 0.01875 12.6129
-0.0175 0 0.00736575 17.6927
0.0175 0 0.00736575 44.5329
0.0075 0 0.0175 18.5648
-0.0075 0 0.0175 11.6027
-0.01875 1.0842e-19 0.00356872 59.8701
0.01875 1.0842e-19 0.00356873 84.6404
0.00375 1.0842e-19 0.01875 15.0533
-0.00375 -1.0842e-19 0.01875 11.8128
-0.01375 0 0.0137433 12.0207
0.01375 1.0842e-19 0.0137433 22.8602
-0.015 -2.25875e-21 0.0124877 12.292
0.015 0 0.0124877 24.4526
-0.0125 0 0.0149988 11.7536
0.0125 0 0.0149988 21.9552
-0.01875 0 0.00608215 21.5579
0.01875 0 0.00608216 55.4506
-0.01625 1.0842e-19 0.011217 12.6191
0.01625 0 0.011217 26.1511
0.01125 -1.0842e-19 0.0162494 21.0191
-0.01125 0 0.0162494 11.5049
0.00625 -1.0842e-19 0.01875 16.5424
-0.00625 1.0842e-19 0.01875 11.2489
0.0199815 0 0 148.982
0.0199815 0 1.73426e-05 148.982
-0.0199815 0 0 158.779
-0.0199815 3.38813e-21 1.73298e-05 158.779
-1.01899e-14 0 0.02 12.2332
0.02 0 0 148.976
-0.02 0 0 158.762
-0.0200185 -3.38813e-21 0 158.746
-0.0200185 0 1.73298e-05 158.746
0.0200185 0 0 148.935
0.0200185 0 1.73432e-05 148.935
-0.0175 -1.12938e-21 0.00994619 13.3843
0.0175 2.25875e-21 0.00994619 30.4464
-0.02 5.64689e-22 0.00233917 109.519
0.02 1.12938e-21 0.00233917 118.886
0.01 0 0.0175 19.6216
-0.01 0 0.0175 11.1833
0.0025 0 0.02 13.2329
-0.0025 0 0.02 11.4624
-0.02 -1.12938e-21 0.00479885 40.8386
0.02 0 0.00479886 72.4136
0.005 0 0.02 14.4355
-0.005 0 0.02 10.8954
-0.01875 0 0.008656 14.2344
0.01875 1.0842e-19 0.00865601 35.135
-0.00875 2.1684e-19 0.01875 10.833
0.00875 1.0842e-19 0.01875 17.9804
-0.015 0 0.0149988 11.5287
0.015 0 0.0149988 22.0339
0.02125 0 0.00116944 145.82
-0.02125 -1.0842e-19 0.00116943 157.603
-0.01625 -1.0842e-19 0.0137433 11.858
0.01625 1.0842e-19 0.0137433 22.7479
0.01375 0 0.0162494 21.2676
-0.01375 0 0.0162494 11.2299
0.00125 1.0842e-19 0.02125 11.6461
-0.00125 0 0.02125 10.9687
-0.02 2.25875e-21 0.00736575 18.1597
0.02 -5.64689e-22 0.00736576 45.5494
0.0075 0 0.02 15.7423
-0.0075 0 0.02 10.4744
-0.0175 -2.25875e-21 0.0124877 12.2012
0.0175 -5.64689e-22 0.0124877 24.2029
0.0125 0 0.0175 20.2238
-0.0125 0 0.0175 10.8767
0.02125 -1.0842e-19 0.00356874 92.0296
-0.02125 0 0.00356872 59.1269
-0.00375 0 0.02125 10.4549
0.00375 0 0.02125 12.5274
-0.01875 0 0.011217 12.6088
0.01875 1.0842e-19 0.011217 25.6798
-0.01125 2.1684e-19 0.01875 10.5127
0.01125 0 0.01875 19.0415
0.02125 0 0.00608216 57.0819
-0.02125 0 0.00608215 22.2675
0.00625 0 0.02125 13.6189
-0.00625 0 0.02125 10.0647
-0.02 0 0.00994619 13.5041
0.02 5.64689e-22 0.00994619 29.9123
0.01 0 0.02 16.965
-0.01 0 0.02 10.1484
0.0224814 0 0 145.332
0.0224814 3.38813e-21 1.73763e-05 145.332
-0.0224815 -3.38813e-21 0 156.479
-0.0224815 0 1.73277e-05 156.479
0.0225 0 0 145.348
-1.01898e-14 0 0.0225 10.5605
-0.0225 0 0 156.462
-0.0225185 0 0 156.444
-0.0225185 0 1.73276e-05 156.444
0.0225186 3.38813e-21 0 145.343
0.0225186 3.38813e-21 1.73774e-05 145.343
-0.0225 -1.69407e-21 0.00233917 107.875
0.0225 -1.69407e-21 0.00233918 120.464
0.0025 0 0.0225 11.1871
-0.0025 0 0.0225 10.072
-0.02125 1.0842e-19 0.008656 14.5656
0.02125 -1.0842e-19 0.00865601 34.4934
0.01625 1.0842e-19 0.0162494 21.2623
-0.01625 0 0.0162494 11.0072
0.00875 -1.0842e-19 0.02125 14.8278
-0.00875 0 0.02125 9.75109
-0.0225 5.64689e-22 0.00479885 40.6362
0.0225 5.64689e-22 0.00479887 76.3855
-0.0175 0 0.0149988 11.3512
0.0175 0 0.0149988 21.8193
0.015 0 0.0175 20.4715
-0.015 0 0.0175 10.6361
0.005 0 0.0225 11.9824
-0.005 0 0.0225 9.68955
-0.01875 0 0.0137433 11.7223
0.01875 -1.0842e-19 0.0137433 22.2471
-0.01375 0 0.01875 10.2592
0.01375 0 0.01875 19.5676
-0.02 -1.69407e-21 0.0124877 12.1363
0.02 2.82344e-21 0.0124877 23.3431
0.0125 0 0.02 17.9065
-0.0125 0 0.02 9.88885
-0.0225 1.69407e-21 0.00736575 18.608
0.0225 5.64689e-22 0.00736576 45.4532
0.0075 0 0.0225 12.9341
-0.0075 0 0.0225 9.38518
0.0237499 -1.0842e-19 0.00116944 144.855
-0.02375 0 0.00116943 155.321
0.00125 1.0842e-19 0.02375 10.0221
-0.00125 0 0.02375 9.60497
0.0237499 -1.0842e-19 0.00356875 98.3649
-0.02375 1.0842e-19 0.00356873 57.9157
0.02125 -1.0842e-19 0.011217 24.3924
-0.02125 1.0842e-19 0.011217 12.6168
0.01125 0 0.02125 16.0107
-0.01125 0 0.02125 9.49672
0.00375 0 0.02375 10.5525
-0.00375 1.0842e-19 0.02375 9.25946
0.02375 -1.0842e-19 0.00608218 57.5312
-0.02375 1.0842e-19 0.00608215 22.7251
0.00625 1.0842e-19 0.02375 11.2307
-0.00625 -1.0842e-19 0.02375 8.9791
0.0225 1.12938e-21 0.00994619 28.5337
-0.0225 0 0.00994619 13.6643
0.01 0 0.0225 13.9709
-0.01 0 0.0225 9.13491
0.0175 0 0.0175 20.4622
-0.0175 0 0.0175 10.4349
0.01875 0 0.0162494 21.0224
-0.01875 0 0.0162494 10.8186
0.01625 0 0.01875 19.7889
-0.01625 1.0842e-19 0.01875 10.0483
0.0249812 0 0 146.061
0.0249812 0 1.74554e-05 146.061
-0.0249815 0 0 154.382
-0.0249815 3.38813e-21 1.73258e-05 154.382
0.02 0 0.0149988 21.1717
-0.02 0 0.0149988 11.1978
0.0249999 0 0 146.104
-0.015 0 0.02 9.67522
0.015 0 0.02 18.4921
-0.025 -3.38813e-21 0 154.367
-1.01898e-14 0 0.025 9.19924
-0.0250185 0 0 154.351
-0.0250185 0 1.73257e-05 154.351
0.0250186 0 0 146.119
0.0250186 3.38813e-21 1.74583e-05 146.119
0.0249999 0 0.00233919 123.574
-0.025 5.64689e-22 0.00233917 106.136
0.0025 0 0.025 9.5915
-0.0025 0 0.025 8.87819
0.02375 -1.0842e-19 0.00865602 32.6651
-0.02375 1.0842e-19 0.008656 14.86
0.02125 0 0.0137433 21.067
-0.02125 0 0.0137433 11.601
0.01375 1.0842e-19 0.02125 17.0066
0.00875 0 0.02375 12.0589
-0.00875 0 0.02375 8.74581
-0.01375 1.0842e-19 0.02125 9.28669
0.0249999 5.64689e-22 0.00479889 79.0169
-0.025 0 0.00479885 40.0977
0.005 0 0.025 10.0807
-0.005 0 0.025 8.61016
0.0225 5.64689e-22 0.0124877 21.9718
-0.0225 -5.64689e-22 0.0124877 12.0811
0.0125 0 0.0225 14.9762
-0.0125 0 0.0225 8.92602
-0.025 1.12938e-21 0.00736575 18.8716
0.025 -5.64689e-22 0.00736577 44.2131
0.0075 0 0.025 10.6837
-0.0075 0 0.025 8.38504
-0.02375 0 0.011217 12.6256
0.02375 0 0.011217 22.6365
0.0262497 1.0842e-19 0.00116946 147.325
-0.02625 0 0.00116943 153.412
0.00125 0 0.02625 8.7261
0.01125 0 0.02375 12.9863
-0.01125 0 0.02375 8.54598
-0.00125 1.0842e-19 0.02625 8.44368
0.0262498 -1.0842e-19 0.00356879 103.038
-0.02625 -1.0842e-19 0.00356872 56.3706
-0.01875 1.0842e-19 0.01875 9.86568
0.00375 0 0.02625 9.06515
-0.00375 -1.0842e-19 0.02625 8.2046
0.01875 0 0.01875 19.7759
0.02 0 0.0175 20.1834
-0.02 0 0.0175 10.2597
0.0175 0 0.02 18.7682
-0.0175 0 0.02 9.49206
0.02125 1.0842e-19 0.0162494 20.3518
-0.02125 1.0842e-19 0.0162494 10.6504
0.01625 1.0842e-19 0.02125 17.6055
-0.01625 0 0.02125 9.10657
0.025 1.69407e-21 0.00994619 26.5842
-0.025 1.69407e-21 0.00994619 13.7703
0.01 0 0.025 11.3941
-0.01 0 0.025 8.19225
0.0262499 1.0842e-19 0.0060822 56.5166
-0.02625 2.1684e-19 0.00608215 22.8935
0.00625 1.0842e-19 0.02625 9.47419
-0.00625 0 0.02625 7.99747
0.0225 0 0.0149988 20.1597
-0.0225 0 0.0149988 11.0582
0.015 0 0.0225 15.8059
-0.015 0 0.0225 8.74803
0.02375 -2.1684e-19 0.0137433 19.8035
-0.02375 1.0842e-19 0.0137433 11.4853
0.01375 0 0.02375 13.9013
-0.01375 0 0.02375 8.37466
0.0274807 -3.38813e-21 0 151.198
0.0274807 -3.38813e-21 1.76451e-05 151.198
-0.0274815 0 0 152.625
-0.0274815 0 1.7324e-05 152.625
0.0274996 0 0 151.298
-0.0275 0 0 152.614
-1.18266e-14 -5.64689e-22 0.0275 8.07322
0.0275185 -3.38813e-21 0 151.365
0.0275185 0 1.76516e-05 151.365
-0.0275185 0 0 152.6
-0.0275185 0 1.7324e-05 152.6
0.0274996 1.12938e-21 0.00233923 128.079
-0.0275 -1.12938e-21 0.00233917 104.413
-0.0025 -5.64689e-22 0.0275 7.84632
0.0025 0 0.0275 8.33808
0.02625 1.0842e-19 0.00865603 30.0941
-0.02625 1.0842e-19 0.008656 14.994
-0.00875 -1.0842e-19 0.02625 7.81774
0.00875 1.0842e-19 0.02625 9.97108
0.0274998 1.69407e-21 0.00479892 80.08
-0.0275 -5.64689e-22 0.00479885 39.2971
0.025 0 0.0124877 20.5414
-0.025 0 0.0124877 12.0211
0.0125 0 0.025 12.1663
-0.0125 0 0.025 8.02475
0.005 0 0.0275 8.64968
-0.005 0 0.0275 7.64926
0.02 0 0.02 18.8119
-0.02 0 0.02 9.33113
0.01875 0 0.02125 17.9027
0.02125 0 0.01875 19.584
-0.01875 0 0.02125 8.94763
-0.02125 1.0842e-19 0.01875 9.70431
0.0274999 5.64689e-22 0.00736579 42.0725
-0.0275 -1.12938e-21 0.00736575 18.9698
0.0225 0 0.0175 19.6129
-0.0225 0 0.0175 10.1025
0.0175 0 0.0225 16.3833
-0.0175 0 0.0225 8.59181
0.0075 0 0.0275 9.01824
-0.0075 0 0.0275 7.47669
-0.02625 -1.0842e-19 0.011217 12.6135
0.02625 0 0.011217 20.9906
0.01125 0 0.02625 10.5601
-0.01125 1.0842e-19 0.02625 7.65946
0.0287493 1.0842e-19 0.00116949 155.238
-0.02875 1.0842e-19 0.00116943 151.814
0.02375 1.0842e-19 0.0162494 19.417
-0.02375 0 0.0162494 10.4972
0.01625 1.0842e-19 0.02375 14.7105
-0.01625 0 0.02375 8.22416
-0.00125 0 0.0287506 7.45899
0.00125 0 0.0287506 7.66392
0.0287494 1.0842e-19 0.00356886 105.977
-0.02875 0 0.00356872 54.5314
0.00375 2.1684e-19 0.0287506 7.89692
-0.00375 -1.0842e-19 0.0287506 7.27781
0.025 0 0.0149988 19.1463
-0.025 0 0.0149988 10.9245
0.015 0 0.025 12.9299
-0.015 0 0.025 7.87765
-0.0275 -1.12938e-21 0.00994619 13.8007
0.0275 -5.64689e-22 0.0099462 24.5016
0.01 0 0.0275 9.45276
-0.01 0 0.0275 7.32457
0.0287497 -1.0842e-19 0.00608226 54.0905
-0.02875 0 0.00608215 22.9323
0.00625 1.0842e-19 0.0287506 8.16221
-0.00625 -1.0842e-19 0.0287506 7.117
0.02625 0 0.0137433 18.7449
-0.02625 0 0.0137433 11.3648
0.01375 0 0.02625 11.2176
-0.01375 0 0.02625 7.51887
0.0299797 0 0 161.916
0.0299797 -3.38813e-21 1.80781e-05 161.916
-0.0299815 0 0 151.168
-0.0299815 0 1.73219e-05 151.168
0.029999 0 0 162.035
-0.03 0 0 151.158
-1.17055e-12 -1.12938e-21 0.0300012 7.10965
0.0300183 -3.38813e-21 0 162.15
0.0300183 0 1.80919e-05 162.15
-0.0300185 -3.38813e-21 0 151.146
-0.0300185 0 1.73218e-05 151.146
0.0287499 1.0842e-19 0.00865605 27.5409
-0.02875 0 0.008656 15.0456
0.02125 -1.0842e-19 0.02125 17.9853
-0.02125 -1.0842e-19 0.02125 8.8069
0.00875 1.0842e-19 0.0287506 8.46522
-0.00875 -1.0842e-19 0.0287506 6.97438
0.029999 0 0.00233931 134.682
-0.03 0 0.00233917 102.818
0.02 0 0.0225 16.7132
0.0225 0 0.02 18.65
-0.02 0 0.0225 8.45264
-0.0225 0 0.02 9.187
0.0025 -5.64689e-22 0.0300012 7.29952
-0.0025 -5.64689e-22 0.0300012 6.9403
0.0275 -1.12938e-21 0.0124877 19.25
-0.0275 0 0.0124877 11.9439
0.0125 0 0.0275 9.95068
-0.0125 0 0.0275 7.18912
-0.01875 2.1684e-19 0.02375 8.08884
0.01875 1.0842e-19 0.02375 15.3149
-0.02375 0 0.01875 9.55838
0.02375 0 0.01875 19.0987
0.0299995 1.12938e-21 0.00479899 79.883
-0.03 2.25875e-21 0.00479885 38.4273
0.005 0 0.0300012 7.51269
-0.005 0 0.0300012 6.78888
-0.025 0 0.0175 9.95788
0.025 0 0.0175 18.9043
0.0175 0 0.025 13.6052
-0.0175 0 0.025 7.74602
0.02875 0 0.0112171 19.4251
-0.02875 0 0.011217 12.5623
-0.02625 1.0842e-19 0.0162494 10.3521
0.02625 1.0842e-19 0.0162494 18.6202
0.01625 0 0.02625 11.8903
-0.01625 0 0.02625 7.39289
0.01125 0 0.0287506 8.81435
-0.01125 0 0.0287506 6.84655
0.0299998 5.64689e-22 0.00736582 39.3654
-0.03 5.64689e-22 0.00736575 18.9905
0.0075 0 0.0300012 7.75191
-0.0075 0 0.0300012 6.65339
0.0312483 1.0842e-19 0.00116956 168.826
-0.03125 1.0842e-19 0.00116944 150.5
-0.00125 0 0.0312567 6.58089
0.00125 1.0842e-19 0.0312567 6.73363
-0.0275 0 0.0149988 10.7932
0.0275 -5.64689e-22 0.0149988 18.2906
0.015 0 0.0275 10.4913
-0.015 0 0.0275 7.0676
0.0312487 1.0842e-19 0.00356898 107.82
-0.03125 1.0842e-19 0.00356872 52.898
0.00375 0 0.0312567 6.90237
-0.00375 -1.0842e-19 0.0312567 6.44238
-0.03 -1.69407e-21 0.00994619 13.7831
0.03 -5.64689e-22 0.00994621 22.4737
0.01 0 0.0300012 8.02122
-0.01 0 0.0300012 6.53164
0.0225 0 0.0225 16.8458
-0.0225 0 0.0225 8.32692
0.0312494 0 0.00608236 50.8701
-0.03125 0 0.00608215 22.9112
0.02875 -1.0842e-19 0.0137433 17.8468
-0.02875 0 0.0137433 11.2403
0.02125 0 0.02375 15.6502
-0.02125 1.0842e-19 0.02375 7.96717
-0.02375 0 0.02125 8.67838
0.02375 0 0.02125 17.9322
0.01375 0 0.0287506 9.21042
-0.01375 0 0.0287506 6.73147
0.00625 1.0842e-19 0.0312567 7.0879
-0.00625 0 0.0312567 6.31728
0.025 0 0.02 18.3123
0.02 0 0.025 14.1229
-0.02 0 0.025 7.62694
-0.025 0 0.02 9.0553
0.02625 1.0842e-19 0.01875 18.4812
0.01875 0 0.02625 12.5053
-0.01875 0 0.02625 7.2782
-0.02625 -1.0842e-19 0.01875 9.42394
0.0312498 1.0842e-19 0.00865609 24.911
-0.03125 0 0.008656 15.059
0.00875 1.0842e-19 0.0312567 7.29082
-0.00875 1.0842e-19 0.0312567 6.20389
0.0324773 -3.38813e-21 0 175.728
0.0324773 0 1.90026e-05 175.728
-0.0324815 -3.38813e-21 0 149.983
-0.0324815 -3.38813e-21 1.73195e-05 149.983
0.03 1.69407e-21 0.0124877 18.1065
-0.03 0 0.0124877 11.848
0.0324976 -3.38813e-21 0 175.829
-0.0325 0 0 149.975
0.0125 0 0.0300012 8.32354
-0.0125 0 0.0300012 6.42157
-1.66453e-11 -1.12938e-21 0.0325123 6.218
0.0325179 0 0 175.939
0.0325179 -3.38813e-21 1.903e-05 175.939
-0.0325185 -3.38813e-21 0 149.966
-0.0325185 0 1.73195e-05 149.966
0.0324979 -2.82344e-21 0.00233944 142.163
-0.0325 -5.64689e-22 0.00233917 101.542
0.0275 0 0.0175 18.2499
-0.0275 0 0.0175 9.82332
0.0175 0 0.0275 11.0359
-0.0175 0 0.0275 6.95741
0.0025 -1.12938e-21 0.0325123 6.35906
-0.0025 0 0.0325123 6.08938
0.0324988 5.64689e-22 0.00479911 78.6288
-0.0325 0 0.00479885 37.7089
0.005 0 0.0325123 6.51337
-0.005 -1.69407e-21 0.0325123 5.97228
0.02875 0 0.0162494 17.9504
-0.02875 0 0.0162494 10.217
0.01625 1.0842e-19 0.0287506 9.64643
-0.01625 -1.0842e-19 0.0287506 6.62704
0.03125 1.0842e-19 0.0112171 18.0559
-0.03125 -1.0842e-19 0.011217 12.4787
0.01125 1.0842e-19 0.0312567 7.51288
-0.01125 0 0.0312567 6.10074
0.0324996 -1.69407e-21 0.00736589 36.2797
-0.0325 1.69407e-21 0.00736575 18.9636
0.0075 0 0.0325123 6.68123
-0.0075 -2.25875e-21 0.0325123 5.86572
0.03 1.12938e-21 0.0149988 17.5759
-0.03 0 0.0149988 10.6655
0.015 0 0.0300012 8.65764
-0.015 0 0.0300012 6.32152
0.02375 1.0842e-19 0.02375 15.8157
-0.02375 0 0.02375 7.85521
0.0225 0 0.025 14.4615
0.025 0 0.0225 16.8308
-0.0225 0 0.025 7.51817
-0.025 0 0.0225 8.21148
0.0337462 1.0842e-19 0.00116968 182.836
-0.03375 1.0842e-19 0.00116944 149.449
0.02625 1.0842e-19 0.02125 17.7372
0.02125 0 0.02625 13.0213
-0.02125 0 0.02625 7.17354
-0.02625 1.0842e-19 0.02125 8.5605
-0.00125 0 0.0337829 5.71885
0.00125 -1.0842e-19 0.033783 5.8351
0.0337473 1.0842e-19 0.00356922 108.098
-0.03375 0 0.00356872 51.7882
0.0324999 0 0.00994623 20.5671
-0.0325 0 0.00994619 13.7403
0.00375 -1.0842e-19 0.033783 5.96144
-0.00375 -1.0842e-19 0.033783 5.61197
0.0275 0 0.02 17.8878
-0.0275 0 0.02 8.93409
0.02 0 0.0275 11.5405
-0.02 0 0.0275 6.85664
0.01 0 0.0325123 6.86301
-0.01 -2.25875e-21 0.0325123 5.76848
-0.03125 0 0.0137433 11.1162
0.03125 0 0.0137433 17.1029
0.01375 0 0.0312567 7.75473
-0.01375 1.0842e-19 0.0312567 6.00656
0.0337487 2.1684e-19 0.00608252 46.8816
-0.03375 0 0.00608215 22.8205
0.02875 0 0.01875 17.9479
-0.02875 1.0842e-19 0.01875 9.30036
0.01875 1.0842e-19 0.0287506 10.1015
-0.01875 0 0.0287506 6.53137
0.00625 0 0.033783 6.09788
-0.00625 -1.0842e-19 0.033783 5.51418
0.03 0 0.0175 17.7014
-0.03 0 0.0175 9.69815
-0.0175 0 0.0300012 6.22991
0.0175 0 0.0300012 9.01588
0.0325 0 0.0124877 17.147
-0.0325 0 0.0124877 11.7438
0.0125 0 0.0325123 7.05897
-0.0125 -1.69407e-21 0.0325123 5.67948
0.0337496 -1.0842e-19 0.00865618 22.408
-0.03375 0 0.008656 15.0498
0.00875 0 0.033783 6.2442
-0.00875 1.0842e-19 0.033783 5.42433
0.0349723 0 0 189.341
0.0349723 0 2.08402e-05 189.341
-0.0349815 0 0 148.952
-0.0349815 -3.38813e-21 1.73177e-05 148.952
0.0349946 0 0 189.456
-0.035 0 0 148.945
0.0350168 0 0 189.577
0.0350169 0 2.08946e-05 189.577
-0.0350185 0 0 148.937
-0.0350185 -3.38813e-21 1.73177e-05 148.937
-1.11306e-10 2.82344e-21 0.0350538 5.33265
0.0349955 0 0.00233965 148.851
-0.035 0 0.00233917 100.543
0.0025 2.82344e-21 0.0350538 5.43833
-0.0025 5.64689e-22 0.0350538 5.23516
0.03125 -1.0842e-19 0.0162494 17.4031
-0.03125 1.0842e-19 0.0162494 10.0899
-0.01625 0 0.0312567 5.9201
0.01625 0 0.0312567 8.017
0.0349976 -1.12938e-21 0.00479931 76.3957
-0.035 1.12938e-21 0.00479884 37.1682
0.025 0 0.025 14.6408
-0.025 0 0.025 7.41766
0.02375 0 0.02625 13.3591
0.02625 0 0.02375 15.8383
-0.02625 0 0.02375 7.75183
-0.02375 0 0.02625 7.07674
0.005 2.25875e-21 0.0350538 5.5525
-0.005 0 0.0350538 5.14546
0.0275 0 0.0225 16.6845
-0.0275 0 0.0225 8.10489
0.0225 0 0.0275 11.959
-0.0225 0 0.0275 6.76383
0.0337499 0 0.0112171 16.9248
-0.03375 0 0.011217 12.3873
0.01125 1.0842e-19 0.033783 6.39979
-0.01125 0 0.033783 5.34184
0.02875 0 0.02125 17.3849
-0.02875 1.0842e-19 0.02125 8.45156
0.02125 1.0842e-19 0.0287506 10.5339
-0.02125 0 0.0287506 6.44332
0.0349991 -5.64689e-22 0.00736599 33.0283
-0.035 -5.64689e-22 0.00736575 18.895
0.0325 -5.64689e-22 0.0149988 16.9981
-0.0325 0 0.0149988 10.544
-0.015 -5.64689e-22 0.0325123 5.59769
0.015 -5.64689e-22 0.0325123 7.26897
0.0075 0 0.0350538 5.675
-0.0075 -5.64689e-22 0.0350538 5.06298
0.03 0 0.02 17.4617
-0.03 0 0.02 8.82187
-0.02 0 0.0300012 6.1455
0.02 0 0.0300012 9.38006
0.0362421 -1.0842e-19 0.00116989 196.072
-0.03625 2.1684e-19 0.00116944 148.44
-0.00125 -1.0842e-19 0.036344 4.84273
0.00125 0 0.036344 4.92928
0.0349998 5.64689e-22 0.00994626 18.8729
-0.035 0 0.00994619 13.6811
0.0362446 -1.0842e-19 0.00356957 107.093
-0.03625 0 0.00356872 50.9649
-0.03375 1.0842e-19 0.0137433 10.9987
0.03375 2.1684e-19 0.0137433 16.5071
0.03125 0 0.01875 17.5041
-0.03125 0 0.01875 9.18549
-0.01875 0 0.0312567 5.84022
0.01875 0 0.0312567 8.29643
0.01 2.25875e-21 0.0350538 5.80546
-0.01 0 0.0350538 4.98701
-0.01375 1.0842e-19 0.033783 5.26576
0.01375 0 0.033783 6.56385
0.00375 -2.1684e-19 0.036344 5.02269
-0.00375 -1.0842e-19 0.036344 4.76261
0.0362474 1.0842e-19 0.00608279 42.5992
-0.03625 1.0842e-19 0.00608215 22.6937
0.00625 2.1684e-19 0.036344 5.12304
-0.00625 1.0842e-19 0.036344 4.68875
0.0325 0 0.0175 17.2529
-0.0325 0 0.0175 9.58155
-0.0175 0 0.0325123 5.52215
0.0175 -5.64689e-22 0.0325123 7.4918
0.02625 0 0.02625 13.5504
-0.02625 0 0.02625 6.98685
0.035 0 0.0124877 16.3656
-0.035 0 0.0124877 11.6416
0.0275 0 0.025 14.693
-0.0275 0 0.025 7.3243
-0.025 0 0.0275 6.67768
0.025 0 0.0275 12.2647
0.0125 2.25875e-21 0.0350538 5.94314
-0.0125 -5.64689e-22 0.0350538 4.91691
0.0362491 -1.0842e-19 0.0086563 20.177
-0.03625 1.0842e-19 0.008656 15.0021
0.02875 0 0.02375 15.7774
-0.02875 0 0.02375 7.65567
-0.02375 1.0842e-19 0.0287506 6.36162
0.02375 1.0842e-19 0.0287506 10.9217
0.00875 2.1684e-19 0.036344 5.22973
-0.00875 -2.1684e-19 0.036344 4.62044
0.03375 2.1684e-19 0.0162494 16.9785
-0.03375 1.0842e-19 0.0162494 9.9724
0.0374628 0 0 202.336
0.0374628 0 2.42437e-05 202.336
-0.0374815 0 0 147.93
-0.0374815 -3.38813e-21 1.7317e-05 147.93
-0.01625 -1.0842e-19 0.033783 5.19539
0.01625 -1.0842e-19 0.033783 6.73532
0.0374886 -3.38813e-21 0 202.456
-0.0375 3.38813e-21 0 147.923
0.03 0 0.0225 16.4475
-0.03 0 0.0225 8.00573
-0.0225 0 0.0300012 6.06727
0.0225 -5.64689e-22 0.0300012 9.72814
0.0375145 3.38813e-21 0 202.59
0.0375146 0 2.43512e-05 202.59
-0.0375185 0 0 147.915
-0.0375185 0 1.7317e-05 147.915
0.037491 -5.64689e-22 0.00233999 154.747
-0.0375 -1.12938e-21 0.00233917 99.6456
-4.73434e-10 1.69407e-21 0.0376343 4.4494
0.0025 5.64689e-22 0.0376343 4.52675
-0.0025 0 0.0376343 4.37767
-0.03125 0 0.02125 8.35006
0.03125 1.0842e-19 0.02125 17.01
-0.02125 1.0842e-19 0.0312567 5.76619
0.02125 -2.1684e-19 0.0312567 8.58608
0.0374952 5.64689e-22 0.00479962 73.5433
-0.0375 5.64689e-22 0.00479884 36.7156
0.0362498 0 0.0112171 16.0062
-0.03625 1.0842e-19 0.011217 12.2991
0.005 1.12938e-21 0.0376343 4.60978
-0.005 5.64689e-22 0.0376343 4.31118
0.01125 0 0.036344 5.34276
-0.01125 -1.0842e-19 0.036344 4.5573
0.035 5.64689e-22 0.0149988 16.5405
-0.035 0 0.0149988 10.4295
-0.015 0 0.0350538 4.85202
0.015 -5.64689e-22 0.0350538 6.08695
0.0325 0 0.02 17.0709
-0.0325 0 0.02 8.71724
-0.02 0 0.0325123 5.45208
0.02 1.69407e-21 0.0325123 7.72411
0.0374982 -1.12938e-21 0.00736614 29.7743
-0.0375 -5.64689e-22 0.00736575 18.7995
0.0075 0 0.0376343 4.6985
-0.0075 0 0.0376343 4.2496
0.03375 0 0.01875 17.1259
-0.03375 1.0842e-19 0.01875 9.07854
-0.01875 -1.0842e-19 0.033783 5.13
0.01875 0 0.033783 6.91309
0.0387345 0 0.00117023 208.838
-0.03875 1.0842e-19 0.00116944 147.406
0.03625 -1.0842e-19 0.0137433 16.0251
-0.03625 1.0842e-19 0.0137433 10.8868
0.0374996 0 0.00994631 17.4071
-0.0375 0 0.00994619 13.6048
-0.01375 -1.0842e-19 0.036344 4.49872
0.01375 -1.0842e-19 0.036344 5.46058
-0.0275 0 0.0275 6.5973
0.0275 0 0.0275 12.449
0.0387397 -1.0842e-19 0.00357009 105.425
-0.03875 1.0842e-19 0.00356872 50.247
0.02875 0 0.02625 13.6059
-0.02875 0 0.02625 6.90285
-0.02625 0 0.0287506 6.28539
0.02625 0 0.0287506 11.2274
-0.00125 -1.0842e-19 0.0389178 3.98242
0.00125 0 0.0389179 4.04474
-0.01 0 0.0376343 4.19248
0.01 5.64689e-22 0.0376343 4.79253
0.03 0 0.025 14.6461
-0.03 0 0.025 7.23703
-0.025 0 0.0300012 5.99435
0.025 -5.64689e-22 0.0300012 10.0375
0.00375 2.1684e-19 0.0389179 4.11189
-0.00375 1.0842e-19 0.0389179 3.92443
-0.035 0 0.0175 9.47258
0.035 0 0.0175 16.8874
-0.0175 2.82344e-21 0.0350538 4.79172
0.0175 1.12938e-21 0.0350538 6.23588
0.038745 0 0.00608319 38.083
-0.03875 -1.0842e-19 0.00608215 22.5605
0.03125 1.0842e-19 0.02375 15.6176
-0.03125 0 0.02375 7.56562
-0.02375 1.0842e-19 0.0312567 5.6971
0.02375 0 0.0312567 8.86841
0.00625 1.0842e-19 0.0389179 4.18314
-0.00625 1.0842e-19 0.0389179 3.87041
0.0374999 5.64689e-22 0.0124877 15.7368
-0.0375 0 0.0124877 11.541
0.0325 0 0.0225 16.1547
-0.0325 0 0.0225 7.91283
-0.0225 0 0.0325123 5.38678
0.0225 0 0.0325123 7.95855
-0.0125 0 0.0376343 4.13937
0.0125 5.64689e-22 0.0376343 4.89132
0.0387483 0 0.00865648 18.1916
-0.03875 0 0.008656 14.9279
0.03625 1.0842e-19 0.0162494 16.6504
-0.03625 0 0.0162494 9.86139
0.01625 1.0842e-19 0.036344 5.58221
-0.01625 1.0842e-19 0.036344 4.44425
0.03375 1.0842e-19 0.02125 16.6436
-0.03375 0 0.02125 8.25485
0.00875 1.0842e-19 0.0389179 4.2598
-0.00875 -1.0842e-19 0.0389179 3.82024
0.02125 -2.1684e-19 0.0337829 7.09507
-0.02125 1.0842e-19 0.033783 5.06907
0.0399456 6.77626e-21 0 214.474
0.0399457 0 3.01271e-05 214.474
0.0399777 0 0 214.598
-0.0399815 -3.38813e-21 0 146.891
-0.0399815 0 1.73176e-05 146.891
-0.04 0 0 146.883
0.0400099 0 0 214.751
0.0400099 0 3.03397e-05 214.751
-0.0400185 0 0 146.875
-0.0400185 0 1.73176e-05 146.875
0.0399831 0 0.00234047 159.937
-0.04 -5.64689e-22 0.00233917 98.798