# omega  POINT_DATA 34169
# x  y  z  omega
0 -1.85076e-05 6.54374e-09 172.03
-1.65436e-24 0.00114845 0 171.327
0 0.00123149 0.00116943 171.32
0 -0.0012685 0.00116944 172.739
-2.58494e-25 -1.85056e-05 0.00219071 118.962
0 -1.85055e-05 0.00233887 115.373
0 -0.000603648 0.00233887 115.626
1.65436e-24 0.00248149 7.47496e-09 170.524
0 -0.00251848 9.1726e-09 173.368
-2.06683e-20 0.00248149 0.00233887 114.25
0 -0.0025185 0.00233887 116.455
0 0.00371837 0 169.638
0 0.0012315 0.00356873 57.4267
-1.0842e-19 -0.0012685 0.00356873 58.1932
0 0.00373149 0.00116943 169.727
0 -0.0037685 0.00116944 173.997
-4.9658e-20 -1.85024e-05 0.00479858 41.5825
0 0.00498151 7.6335e-09 168.733
0 -0.00501848 1.11264e-08 174.526
1.0842e-19 0.0037315 0.00356872 56.7252
-2.1684e-19 -0.0037685 0.00356872 59.0676
9.26277e-21 0.0024815 0.00479858 42.2552
7.51248e-26 -0.0025185 0.00479221 41.2841
0 -0.0025185 0.00479858 41.0887
7.27014e-27 -0.00254754 0.00479858 41.0865
0 0.0049216 0.00233887 113.049
-3.23117e-27 0.0049815 0.00233887 113.019
0 -0.0050185 0.00233887 117.514
3.23117e-27 0.0049815 0.00257695 106.253
-1.0842e-19 0.0012315 0.00608215 26.1143
0 -0.0012685 0.00608215 24.127
0 0.0062315 0.00116943 167.738
0 -0.0062685 0.00116943 175.054
0 0.0049815 0.00479858 43.1191
5.16988e-26 -0.0050185 0.00479858 40.8978
-1.0842e-19 0.0037315 0.00608215 28.3264
-2.1684e-19 -0.0037685 0.00608215 22.4601
0 0.0062315 0.00356872 56.1032
0 -0.0062685 0.00356872 60.113
1.27958e-19 -1.85008e-05 0.00736572 22.5222
0 0.00748152 1.05804e-08 166.558
0 -0.00751848 1.07668e-08 175.478
-2.58494e-26 0.00580956 0.00479858 43.4879
-3.36443e-20 0.0024815 0.00736572 24.4568
8.49695e-20 -0.0025185 0.00736572 20.7803
-2.05331e-20 0.0074815 0.00233887 111.673
0 -0.0075185 0.00233887 118.567
-2.58494e-26 -0.0050185 0.00708651 21.6949
0 0.0062315 0.00608215 30.9375
0 -0.0062685 0.00608215 21.4103
-2.1684e-19 0.0012315 0.008656 20.7721
-1.0842e-19 -0.0012685 0.00865601 19.066
1.0842e-19 0.0087315 0.00116944 165.379
0 -0.0087685 0.00116943 175.902
0 0.0074815 0.00479858 44.2325
1.62448e-19 0.0049815 0.00736572 26.6041
0 -0.0050185 0.00736572 19.3515
2.58494e-26 -0.0075185 0.00479858 41.1427
-6.46235e-27 0.00528894 0.00736572 26.8914
0 0.0037315 0.008656 22.6045
0 0.0087315 0.00356873 55.7138
0 -0.0037685 0.008656 17.4591
-2.1684e-19 -0.0087685 0.00356872 61.3787
1.29247e-26 -0.0075185 0.00648561 26.1987
-8.08278e-20 -1.85002e-05 0.00994629 19.1363
1.65436e-24 0.0099815 1.38294e-08 164.019
-1.65436e-24 -0.0100185 9.43505e-09 176.144
1.00403e-19 0.0024815 0.00994629 20.7126
-8.27181e-25 0.0099815 0.00233887 110.369
-7.30726e-20 -0.0025185 0.00994629 17.6268
-2.06795e-25 -0.0100185 0.00233887 119.576
-1.61559e-27 0.0049815 0.00900557 23.8793
0 0.0074815 0.00736572 28.9405
0 -0.0075185 0.00736572 18.4025
-6.46235e-27 -0.00947855 0.00479858 41.6363
1.0842e-19 0.0087315 0.00608215 33.8381
0 0.0062315 0.008656 24.5371
0 -0.0087685 0.00608215 21.1024
1.0842e-19 -0.0062685 0.008656 16.0672
0 0.00400269 0.00994629 21.6883
1.29247e-26 -0.0100185 0.00470539 44.72
0 0.0099815 0.00479858 45.7068
6.46235e-27 -0.0100185 0.00479858 41.7723
0 0.0049815 0.00994629 22.3161
6.83146e-20 -0.0050185 0.00994629 16.2221
0 0.0012315 0.011217 19.0566
1.0842e-19 -0.0012685 0.011217 17.659
0 0.0112315 0.00116943 162.659
0 -0.0112685 0.00116944 176.386
0 0.0112315 0.00356872 56.0097
-1.0842e-19 -0.0112685 0.00356873 62.8279
1.0842e-19 0.0037315 0.011217 20.4273
2.1684e-19 -0.0037685 0.011217 16.3299
1.0842e-19 0.0087315 0.008656 26.4366
-1.0842e-19 -0.0087685 0.00865601 15.0196
0 0.0099815 0.00736572 31.3704
-5.17539e-20 -0.0100185 0.00736572 17.9601
-1.29247e-26 0.0074815 0.00994629 23.8775
1.03847e-19 -0.0075185 0.00994629 15.0247
0 0.0124815 1.62363e-08 160.892
-2.40255e-20 -1.85e-05 0.0124878 17.7156
1.65436e-24 -0.0125185 8.85477e-09 176.416
0 0.0124815 0.00233888 109.343
0 0.0024815 0.0124878 19.0282
-2.06795e-25 -0.0125185 0.00233887 120.416
-1.2277e-19 -0.0025185 0.0124878 16.4203
0 0.0112315 0.00608215 36.9719
0 -0.0112685 0.00608215 21.1926
1.0842e-19 0.0062315 0.011217 21.7087
2.01948e-28 0.00299048 0.0124878 19.2819
-1.0842e-19 -0.0062685 0.011217 15.0382
0 0.0124815 0.00479858 47.8443
-7.10858e-26 -0.0125185 0.00470415 45.5747
-6.46235e-27 -0.0125185 0.00479858 42.5868
0 0.0049815 0.0124878 20.2743
3.68881e-20 -0.0050185 0.0124878 15.2004
-1.0842e-19 0.0137315 0.00116943 159.126
2.1684e-19 0.0012315 0.0137433 17.7042
0 -0.0012685 0.0137433 16.4477
-1.0842e-19 -0.0137685 0.00116944 176.446
1.9387e-26 -0.0130041 0.00479858 42.7602
-2.58494e-26 0.0099815 0.00994629 25.2949
-3.84674e-21 -0.0100185 0.00994629 14.1974
-2.1684e-19 0.0112315 0.008656 28.2205
-2.1684e-19 0.0137315 0.00356873 57.9278
1.0842e-19 -0.0112685 0.00865601 14.5145
1.0842e-19 0.0087315 0.011217 22.8445
-2.1684e-19 -0.0137685 0.00356872 64.2134
1.0842e-19 -0.0087685 0.011217 13.9795
-1.0842e-19 0.0037315 0.0137433 18.9307
1.0842e-19 -0.0037685 0.0137433 15.2493
0 0.0124815 0.00736572 33.7834
-3.59216e-20 -0.0125185 0.00736572 17.8902
3.23117e-27 0.0074815 0.0124878 21.3741
-1.95644e-20 -0.0075185 0.0124878 14.1346
0 0.0149815 1.68918e-08 156.484
-3.71475e-20 -1.85e-05 0.0149988 16.1605
-1.0842e-19 0.0137315 0.00608215 40.2039
0 -0.0150185 9.26868e-09 176.369
2.1684e-19 -0.0137685 0.00608215 21.5084
0 0.0062315 0.0137433 20.0368
0 -0.0062685 0.0137433 14.1883
8.27181e-25 0.0149815 0.00233888 108.744
2.06795e-25 -0.0150185 0.00233887 121.033
1.4527e-19 0.0024815 0.0149988 17.3411
1.28828e-19 -0.0025185 0.0149988 15.0356
7.88861e-29 0.00254987 0.0149988 17.3725
0 0.0149815 0.00479858 51.0534
-5.16988e-26 -0.0150185 0.00479858 43.4795
0 0.0049815 0.0149988 18.4915
1.43184e-19 -0.0050185 0.0149988 14.038
0 0.0112315 0.011217 23.6992
-2.1684e-19 -0.0112685 0.011217 13.282
-5.16988e-26 0.0124815 0.00994629 26.4614
0 0.0099815 0.0124878 22.2334
5.35398e-21 -0.0125185 0.00994629 13.7617
3.33886e-20 -0.0100185 0.0124878 13.3318
-1.0842e-19 0.0137315 0.008656 29.72
0 -0.0137685 0.008656 14.3328
-1.0842e-19 0.0162315 0.00116944 153.842
2.1684e-19 0.0087315 0.0137433 20.9137
0 0.0012315 0.0162494 15.7907
1.0842e-19 -0.0012685 0.0162494 14.7016
0 -0.0087685 0.0137433 13.3356
-1.0842e-19 -0.0162685 0.00116944 176.293
2.58494e-26 -0.0150185 0.00699134 21.7879
0 0.0162315 0.00356873 62.5535
0 -0.0162685 0.00356872 65.4067
-1.0842e-19 0.0037315 0.0162494 16.9412
-2.1684e-19 -0.0037685 0.0162494 13.7461
-1.09656e-19 0.0149815 0.00736572 35.9837
0 -0.0150185 0.00736572 18.0844
-4.03897e-28 0.0074815 0.0149988 19.5096
7.17699e-20 -0.0075185 0.0149988 13.2194
-6.46235e-27 -0.0156476 0.00736572 18.1891
1.0842e-19 0.0162315 0.00608215 43.2628
2.1684e-19 -0.0162685 0.00608215 22.173
-1.0842e-19 0.0062315 0.0162494 18.0597
-2.1684e-19 -0.0062685 0.0162494 12.9702
0 0.0174815 1.67042e-08 149.531
-1.91555e-20 -1.85e-05 0.0175 14.1995
0 -0.0175185 1.03701e-08 176.097
0 0.0174815 0.00233888 107.696
0 0.0124815 0.0124878 22.7938
4.1359e-25 -0.0175185 0.00233887 121.438
1.58401e-19 0.0024815 0.0175 15.1799
8.08441e-20 -0.0025185 0.0175 13.3331
-1.17075e-19 -0.0125185 0.0124878 12.8252
-2.1684e-19 0.0137315 0.011217 24.232
0 0.0112315 0.0137433 21.4846
1.0842e-19 -0.0137685 0.011217 12.9244
0 -0.0112685 0.0137433 12.7328
0 0.0149815 0.00994629 27.2787
-9.59889e-21 -0.0150185 0.00994629 13.582
8.07794e-28 0.0099815 0.0149988 20.2897
-6.56678e-20 -0.0100185 0.0149988 12.6047
0 0.0174815 0.00479858 54.9462
0 -0.0175185 0.00479858 44.4332
-4.57539e-29 0.0049815 0.0174753 16.2342
-1.57772e-30 0.0049815 0.0175 16.2117
8.08441e-20 -0.0050185 0.0175 12.6167
-1.0842e-19 0.0162315 0.008656 30.7271
1.0842e-19 -0.0162685 0.00865601 14.3097
2.1684e-19 0.0087315 0.0162494 19.0307
0 -0.0087685 0.0162494 12.385
0 0.0187315 0.00116944 145.22
-1.0842e-19 0.0012315 0.01875 13.5445
0 -0.0012685 0.01875 12.7617
0 -0.0187685 0.00116943 175.902
0 0.0174815 0.00736572 37.7765
0 -0.0175185 0.00736572 18.5005
-9.15079e-29 0.0074815 0.0174897 17.2213
-1.57772e-30 0.0074815 0.0175 17.2118
1.42064e-19 -0.0075185 0.0175 12.057
-1.0842e-19 0.0187315 0.00356873 67.8287
-1.0842e-19 -0.0187685 0.00356872 66.4021
0 0.0037315 0.01875 14.4434
0 -0.0037685 0.01875 12.1235
-1.0842e-19 0.0137315 0.0137433 21.7687
-2.1684e-19 -0.0137685 0.0137433 12.3639
6.46235e-27 0.0149815 0.0124878 23.0829
0 0.0124815 0.0149988 20.7828
3.30689e-20 -0.0150185 0.0124878 12.5519
6.97801e-20 -0.0125185 0.0149988 12.1833
0 -0.016963 0.00994629 13.5505
0 0.0187315 0.00608215 45.8435
0 -0.0187685 0.00608215 23.1305
-1.0842e-19 0.0162315 0.011217 24.4665
0 0.0112315 0.0162494 19.7322
1.0842e-19 0.0062315 0.01875 15.4029
-1.0842e-19 -0.0162685 0.011217 12.7688
-1.0842e-19 -0.0062685 0.01875 11.6274
0 -0.0112685 0.0162494 11.9666
0 0.0199815 1.72687e-08 140.53
1.58401e-19 -1.85e-05 0.02 12.2285
0 -0.0200185 1.16628e-08 175.562
-5.16988e-26 0.0174815 0.00994629 27.7187
0 0.0199815 0.00233888 105.742
-1.41995e-29 0.0099815 0.0174933 18.0907
-1.61559e-27 -0.0175185 0.00994629 13.5416
-1.57772e-30 0.0099815 0.0175 18.0848
-1.91544e-20 0.0024815 0.02 12.9112
0 -0.0200185 0.00233887 121.6
-4.15987e-20 -0.0025185 0.02 11.6554
4.20638e-20 -0.0100185 0.0175 11.6357
0 0.0199815 0.00479858 58.6506
-2.06795e-25 -0.0200185 0.00479858 45.371
-9.67102e-20 0.0049815 0.02 13.6833
1.58401e-19 -0.0050185 0.02 11.1933
-1.0842e-19 0.0187315 0.00865601 31.2478
1.0842e-19 -0.0187685 0.008656 14.3739
0 0.0087315 0.01875 16.3544
0 -0.0087685 0.01875 11.2457
0 0.0149815 0.0149988 21.0299
4.61343e-20 -0.0150185 0.0149988 11.9098
1.0842e-19 0.0212315 0.00116944 135.841
-1.0842e-19 0.0162315 0.0137433 21.8745
0 0.0137315 0.0162494 20.1479
0 0.0012315 0.02125 11.5429
-1.0842e-19 -0.0012685 0.02125 11.0649
0 0.0199815 0.00736572 39.0418
-1.0842e-19 -0.0162685 0.0137433 12.1529
0 -0.0137685 0.0162494 11.6708
0 -0.0212685 0.00116943 175.223
0 -0.0200185 0.00736572 19.0603
8.08456e-20 0.0074815 0.02 14.5062
8.08456e-20 -0.0075185 0.02 10.828
2.01948e-28 -0.0175185 0.0122529 12.5205
0 0.0174815 0.0124878 23.1522
0 0.0124815 0.0175 18.7573
-2.01948e-28 -0.0175185 0.0124878 12.4165
8.08456e-20 -0.0125185 0.0175 11.3217
0 0.0212315 0.00356873 72.9662
0 -0.0212685 0.00356872 67.1466
0 0.0037315 0.02125 12.1139
-1.0842e-19 -0.0037685 0.02125 10.6714
1.0842e-19 0.0187315 0.011217 24.4677
0 0.0112315 0.01875 17.2221
0 -0.0187685 0.011217 12.7222
0 -0.0112685 0.01875 10.9456
1.00974e-28 -0.0181344 0.0124878 12.4001
0 0.0212315 0.00608215 47.6243
0 -0.0212685 0.00608215 24.1862
0 0.0062315 0.02125 12.7729
0 -0.0062685 0.02125 10.351
0 0.0199815 0.00994629 27.8543
-1.91544e-20 0.0099815 0.02 15.3255
-6.46235e-27 -0.0200185 0.00994629 13.5855
3.28979e-21 -0.0100185 0.02 10.5364
-3.30872e-24 0.0224815 1.82997e-08 132.441
-1.91544e-20 -1.85e-05 0.0225 10.5576
-1.65436e-24 -0.0225185 1.24017e-08 174.848
8.27181e-25 0.0224815 0.00233888 104.12
8.08456e-20 0.0024815 0.0225 10.9756
0 -0.0225185 0.00233887 121.498
5.84013e-20 -0.0025185 0.0225 10.2054
1.0842e-19 0.0212315 0.008656 31.4238
-1.0842e-19 -0.0212685 0.008656 14.5339
0 0.0162315 0.0162494 20.3304
-1.0842e-19 0.0087315 0.02125 13.4945
0 0.0224815 0.00479858 61.8286
1.0842e-19 -0.0087685 0.02125 10.0879
0 -0.0162685 0.0162494 11.4524
2.06795e-25 -0.0225185 0.00479858 46.1651
-1.41995e-28 0.0149815 0.0174942 19.2004
0 0.0174815 0.0149988 21.0923
8.08456e-20 0.0049815 0.0225 11.4662
5.84013e-20 -0.0050185 0.0225 9.90999
8.08443e-20 -0.0150185 0.0175 11.0835
1.27468e-19 -0.0175185 0.0149988 11.7273
1.0842e-19 0.0187315 0.0137433 21.8108
1.0842e-19 0.0137315 0.01875 17.9244
0 -0.0137685 0.01875 10.7039
0 -0.0187685 0.0137433 12.0247
0 0.0199815 0.0124878 23.0547
1.58401e-19 0.0124815 0.02 16.0775
4.03897e-28 -0.0200185 0.0124878 12.35
-3.54881e-20 -0.0125185 0.02 10.2985
0 0.0224815 0.00736572 39.7102
0 -0.0225185 0.00736572 19.7168
-1.91544e-20 0.0074815 0.0225 12.0245
1.58401e-19 -0.0075185 0.0225 9.66319
0 0.0237315 0.00116944 129.041
0 0.0012315 0.02375 9.9552
1.0842e-19 -0.0012685 0.02375 9.66766
1.0842e-19 -0.0237685 0.00116943 174.473
0 0.0237315 0.00356873 77.7261
0 0.0212315 0.011217 24.3144
0 -0.0237685 0.00356872 67.4394
0 0.0112315 0.02125 14.231
-1.0842e-19 0.0037315 0.02375 10.2906
-2.1684e-19 -0.0212685 0.011217 12.721
-1.0842e-19 -0.0037685 0.02375 9.41761
0 -0.0112685 0.02125 9.86655
1.0842e-19 0.0237315 0.00608215 48.607
-2.1684e-19 -0.0237685 0.00608215 25.2778
0 0.0062315 0.02375 10.6873
0 -0.0062685 0.02375 9.20005
2.58494e-26 0.0224815 0.00994629 27.6762
-1.91544e-20 0.0099815 0.0225 12.6287
0 -0.0225185 0.00994629 13.7115
1.58401e-19 -0.0100185 0.0225 9.45497
-6.31089e-30 -0.0196434 0.0149988 11.6142
-4.40184e-28 0.0174815 0.0174936 19.437
-3.54802e-20 0.0174815 0.0175 19.4327
8.08443e-20 -0.0175185 0.0175 10.8957
0 0.0187315 0.0162494 20.3555
0 0.0162315 0.01875 18.3964
1.0842e-19 -0.0162685 0.01875 10.507
1.0842e-19 -0.0187685 0.0162494 11.2801
0 0.0249815 1.76875e-08 127.494
0 0.0199815 0.0149988 21.0232
1.58401e-19 0.0149815 0.02 16.702
-1.91544e-20 -1.85e-05 0.025 9.19746
-3.54881e-20 -0.0150185 0.02 10.1017
6.31089e-30 -0.0200185 0.0149988 11.5943
1.65436e-24 -0.0250185 1.26415e-08 174.191
0 0.0249815 0.00233888 103.827
-1.91544e-20 0.0024815 0.025 9.45369
1.58401e-19 -0.0025185 0.025 8.97396
0 -0.0250185 0.00233887 121.211
0 0.0237315 0.00865601 31.1552
1.0842e-19 0.0212315 0.0137433 21.6368
1.0842e-19 -0.0237685 0.008656 14.8513
0 0.0137315 0.02125 14.9324
0 0.0087315 0.02375 11.1433
0 -0.0087685 0.02375 9.01389
0 -0.0137685 0.02125 9.67781
-1.0842e-19 -0.0212685 0.0137433 11.935
4.1359e-25 0.0249815 0.00479858 64.3969
0 -0.0250185 0.00479858 46.7119
1.58401e-19 0.0049815 0.025 9.75024
-1.91544e-20 -0.0050185 0.025 8.77737
0 0.0224815 0.0124878 22.7751
1.58401e-19 0.0124815 0.0225 13.2457
8.08456e-20 -0.0125185 0.0225 9.27573
8.07794e-28 -0.0225185 0.0124878 12.3169
-1.03398e-25 0.0249815 0.00736572 39.8149
5.16988e-26 -0.0250185 0.00736572 20.4146
1.58401e-19 0.0074815 0.025 10.0914
8.08456e-20 -0.0075185 0.025 8.60461
0 0.0237315 0.011217 23.8492
0 0.0262315 0.00116943 125.946
1.0842e-19 0.0112315 0.02375 11.6461
1.0842e-19 0.0012315 0.02625 8.67779
0 -0.0012685 0.02625 8.48921
1.0842e-19 -0.0237685 0.011217 12.75
-1.0842e-19 -0.0112685 0.02375 8.85156
0 -0.0200185 0.0170411 10.8977
0 -0.0262685 0.00116943 173.909
0 0.0262315 0.00356873 81.8357
0 0.0187315 0.01875 18.6489
1.0842e-19 -0.0262685 0.00356872 67.3282
0 0.0037315 0.02625 8.89122
0 -0.0037685 0.02625 8.32136
0 -0.0187685 0.01875 10.3435
-1.78283e-28 0.0199815 0.017493 19.5151
-3.54808e-20 0.0199815 0.0175 19.5109
-9.67102e-20 0.0174815 0.02 17.1644
3.28979e-21 -0.0175185 0.02 9.93724
0 -0.0200185 0.0175 10.7412
1.0842e-19 0.0212315 0.0162494 20.2913
-1.0842e-19 0.0162315 0.02125 15.5548
0 -0.0162685 0.02125 9.51808
0 -0.0212685 0.0162494 11.1383
0 0.0249815 0.00994629 27.1546
-1.91544e-20 0.0099815 0.025 10.4745
-1.29247e-26 -0.0250185 0.00994629 13.9293
-1.0842e-19 0.0262315 0.00608215 48.9741
1.58401e-19 -0.0100185 0.025 8.4526
0 -0.0262685 0.00608215 26.2048
-1.0842e-19 0.0062315 0.02625 9.13189
0 -0.0062685 0.02625 8.17046
0 0.0224815 0.0149988 20.8358
-1.91544e-20 0.0149815 0.0225 13.8387
3.28979e-21 -0.0150185 0.0225 9.12063
0 -0.0225185 0.0149988 11.4888
1.0842e-19 0.0237315 0.0137433 21.3108
0 0.0137315 0.02375 12.1733
0 -0.0137685 0.02375 8.70699
0 -0.0237685 0.0137433 11.8651
0 0.0274815 1.36323e-09 125.406
1.58401e-19 -1.85e-05 0.0275 8.07202
1.65436e-24 -0.0275185 1.29131e-08 173.81
0 0.0274815 0.00233887 104.644
-1.91571e-20 0.0024815 0.0275 8.24258
1.584e-19 -0.0025185 0.0275 7.91828
-8.53899e-21 -0.0275185 0.00233886 120.914
-2.1684e-19 0.0262315 0.008656 30.491
2.1684e-19 -0.0262685 0.008656 15.3055
1.0842e-19 0.0087315 0.02625 9.40313
0 -0.0087685 0.02625 8.03405
-5.16988e-26 0.0274815 0.00479858 66.2864
-3.23117e-27 0.0249815 0.0124878 22.2654
2.63192e-20 -0.0275185 0.00479858 47.0052
-9.67102e-20 0.0124815 0.025 10.8903
5.84013e-20 0.0049815 0.0275 8.43196
-1.91544e-20 -0.0050185 0.0275 7.77897
1.58401e-19 -0.0125185 0.025 8.31709
1.61559e-27 -0.0250185 0.0124878 12.3112
5.16988e-26 0.0278127 0.00479858 66.4351
3.28979e-21 0.0199815 0.02 17.4652
2.58494e-26 0.0273129 0.00736572 39.4035
-9.67102e-20 -0.0200185 0.02 9.79627
0 0.0212315 0.01875 18.748
1.0842e-19 0.0187315 0.02125 16.0574
1.0842e-19 -0.0187685 0.02125 9.38044
0 -0.0212685 0.01875 10.2033
-2.58494e-26 0.0274815 0.00708861 42.2788
-3.15544e-30 -0.0225185 0.0173267 10.6706
0 0.0274815 0.00736572 39.3737
-1.21485e-28 0.0224815 0.0174925 19.4694
-5.16988e-26 -0.0275185 0.00736572 21.0408
-1.57772e-30 0.0224815 0.0175 19.4653
-9.67102e-20 0.0174815 0.0225 14.3704
1.58401e-19 0.0074815 0.0275 8.64189
4.2064e-20 -0.0075185 0.0275 7.65218
3.28979e-21 -0.0175185 0.0225 8.98611
-1.57772e-30 -0.0225185 0.0175 10.6097
0 0.0262315 0.011217 23.1615
1.0842e-19 0.0112315 0.02625 9.7057
-1.0842e-19 -0.0262685 0.011217 12.8226
0 -0.0112685 0.02625 7.91089
-7.88861e-30 0.0074815 0.0276324 8.58132
1.0842e-19 0.0287315 0.00116943 124.866
0 0.0237315 0.0162494 20.1062
0 0.0162315 0.02375 12.6945
1.0842e-19 0.0012315 0.0287506 7.62769
-1.0842e-19 -0.0012685 0.0287506 7.49324
0 -0.0162685 0.02375 8.57965
0 -0.0237685 0.0162494 11.0178
1.0842e-19 -0.0287685 0.00116943 173.711
1.0842e-19 0.0287315 0.00356873 85.2627
1.0842e-19 -0.0287685 0.00356872 67.0129
0 0.0037315 0.0287506 7.77345
1.0842e-19 -0.0037685 0.0287506 7.36918
-4.03897e-28 0.0249815 0.0149988 20.5066
0 0.0274815 0.00969854 27.5564
3.28979e-21 0.0149815 0.025 11.3224
-1.91544e-20 -0.0150185 0.025 8.19557
0 -0.0250185 0.0149988 11.401
0 0.0274815 0.00994629 26.3014
8.08456e-20 0.0099815 0.0275 8.87368
-1.29247e-26 -0.0275185 0.00994629 14.1907
8.08456e-20 -0.0100185 0.0275 7.53671
0 0.0275288 0.00994629 26.2793
9.30856e-29 0.0099815 0.0275163 8.86568
0 0.0287315 0.00608215 48.574
0 -0.0287685 0.00608215 26.892
0 0.0062315 0.0287506 7.93111
1.0842e-19 -0.0062685 0.0287506 7.25474
0 0.0293435 0.00233887 105.745
-1.0842e-19 0.0262315 0.0137433 20.7502
1.0842e-19 0.0137315 0.02625 10.0361
0 -0.0137685 0.02625 7.79894
-1.0842e-19 -0.0262685 0.0137433 11.8108
-1.65436e-24 0.0299815 1.10974e-08 125.451
1.09589e-19 -1.85e-05 0.0300012 7.10879
1.0842e-19 0.0287315 0.008656 29.4216
-1.65436e-24 -0.0300185 1.29568e-08 173.783
1.0842e-19 0.0212315 0.02125 16.4066
0 -0.0287685 0.008656 15.7409
0 0.0087315 0.0287506 8.10123
1.0842e-19 -0.0087685 0.0287506 7.14934
-1.03398e-24 0.0299815 0.00217865 107.446
0 -0.0212685 0.02125 9.25794
0 0.0299815 0.00233887 106.122
-1.91544e-20 0.0224815 0.02 17.6201
-3.54881e-20 0.0199815 0.0225 14.8076
-1.09081e-19 0.0024815 0.0300012 7.22958
-2.05885e-20 -0.0025185 0.0300012 6.99638
-5.82335e-21 -0.0300185 0.00233886 120.664
6.45119e-20 -0.0200185 0.0225 8.86684
1.58401e-19 -0.0225185 0.02 9.67211
-1.61559e-27 0.0274815 0.0124878 21.5356
3.28979e-21 0.0124815 0.0275 9.12689
2.24036e-28 0.0124815 0.0275129 9.12005
-1.91544e-20 -0.0125185 0.0275 7.43138
0 -0.0275185 0.0124878 12.3248
0 0.0237315 0.01875 18.716
1.0842e-19 0.0187315 0.02375 13.1749
0 -0.0187685 0.02375 8.46629
-1.0842e-19 -0.0237685 0.01875 10.0796
2.36834e-20 0.0299815 0.00479858 67.4089
3.4018e-20 -0.0300185 0.00479858 47.0774
1.25384e-20 0.0049815 0.0300012 7.35913
1.22849e-19 -0.0050185 0.0300012 6.89188
0 0.0249815 0.0174915 19.3321
-1.57772e-30 0.0249815 0.0175 19.3281
2.68213e-29 -0.0250185 0.0174512 10.5119
-3.54881e-20 0.0174815 0.025 11.7489
-9.67102e-20 -0.0175185 0.025 8.0864
0 -0.0250185 0.0175 10.4942
-1.00974e-28 0.00711119 0.0300012 7.47711
0 0.0287315 0.011217 22.1698
0 0.0262315 0.0162494 19.8608
0 0.0162315 0.02625 10.3857
-1.0842e-19 0.0112315 0.0287506 8.28443
5.80184e-20 0.0299815 0.00736572 38.362
-2.1684e-19 -0.0287685 0.011217 12.9081
2.1684e-19 -0.0112685 0.0287506 7.05245
0 -0.0162685 0.02625 7.6967
2.1684e-19 -0.0262685 0.0162494 10.9113
1.03398e-25 -0.0300185 0.00736572 21.5451
-2.52435e-29 0.0074815 0.0300012 7.49762
6.28265e-20 -0.0075185 0.0300012 6.79492
-2.1684e-19 0.0312315 0.00116943 126.036
0 0.0012315 0.0312567 6.70577
0 -0.0012685 0.0312567 6.60729
0 -0.0312685 0.00116943 173.854
-4.03897e-28 0.0274815 0.0149988 20.0338
3.28979e-21 0.0149815 0.0275 9.3984
1.58401e-19 -0.0150185 0.0275 7.33478
-4.73317e-29 0.0149815 0.0275251 9.38401
-2.01948e-28 -0.0275185 0.0149988 11.324
0 0.0287473 0.0124878 21.0937
1.0842e-19 0.0312315 0.00356873 87.7045
0 -0.0312685 0.00356872 66.3771
-1.0842e-19 0.0037315 0.0312567 6.8102
-1.0842e-19 -0.0037685 0.0312567 6.51467
-1.24835e-19 0.0299815 0.00994629 25.1331
0 0.0099815 0.0300012 7.64515
0 -0.0300185 0.00994629 14.4173
-4.58756e-20 -0.0100185 0.0300012 6.70509
-9.67102e-20 0.0224815 0.0225 15.1349
0 0.0312315 0.00608215 47.543
3.28979e-21 -0.0225185 0.0225 8.75899
0 0.0287315 0.0137433 20.0701
0 -0.0312685 0.00608215 27.4605
0 0.0237315 0.02125 16.6097
0 0.0212315 0.02375 13.5916
0 0.0137315 0.0287506 8.48112
-1.0842e-19 0.0062315 0.0312567 6.92048
1.0842e-19 -0.0137685 0.0287506 6.9631
-1.0842e-19 -0.0062685 0.0312567 6.42786
-1.0842e-19 -0.0212685 0.02375 8.36272
-1.0842e-19 -0.0237685 0.02125 9.14759
0 -0.0287685 0.0137433 11.7623
8.08456e-20 0.0249815 0.02 17.6634
6.45119e-20 0.0199815 0.025 12.1474
3.28979e-21 -0.0200185 0.025 7.987
8.08456e-20 -0.0250185 0.02 9.56059
1.0842e-19 0.0262315 0.01875 18.6296
0 0.0187315 0.02625 10.7405
1.0842e-19 -0.0187685 0.02625 7.60294
0 -0.0262685 0.01875 9.96814
1.0842e-19 0.0312315 0.00865601 27.8742
0 -0.0312685 0.008656 16.0666
1.0842e-19 0.0087315 0.0312567 7.0363
0 -0.0087685 0.0312567 6.3467
0 0.0299815 0.0124878 20.6628
0 0.0324815 6.81881e-09 128.198
0 0.0124815 0.0300012 7.80179
-4.1359e-25 0.0324815 0.00123728 117.779
-4.41356e-20 -0.0125185 0.0300012 6.6218
3.06077e-20 -1.85e-05 0.0325122 6.21738
0 -0.0300185 0.0124878 12.3358
-1.65436e-24 -0.0325185 1.24576e-08 174.058
1.35199e-19 0.0324815 0.00233888 108.503
1.43573e-28 0.0274815 0.01749 19.1064
0 0.0274815 0.0175 19.1027
-3.54881e-20 0.0174815 0.0275 9.6815
2.20881e-29 -0.0275185 0.0174791 10.3971
0 -0.0325185 0.00233887 120.421
8.08408e-20 -0.0175185 0.0275 7.24584
3.88783e-20 0.0024815 0.0325122 6.30576
1.16914e-20 -0.0025185 0.0325122 6.13377
8.08473e-20 -0.0275185 0.0175 10.3893
1.75834e-20 0.0324815 0.0047986 67.7272
2.06795e-25 -0.0325185 0.00479858 46.9544
3.85759e-20 0.0049815 0.0325122 6.39884
3.62211e-20 -0.0050185 0.0325122 6.05495
1.0842e-19 0.0287315 0.0162494 19.4551
0 0.0162315 0.0287506 8.69043
1.0842e-19 -0.0162685 0.0287506 6.88024
0 -0.0287685 0.0162494 10.8127
0 0.0312315 0.011217 21.1033
-2.1684e-19 0.0112315 0.0312567 7.1572
0 -0.0312685 0.011217 12.9694
-2.1684e-19 -0.0112685 0.0312567 6.27083
-2.30254e-20 0.0324815 0.00736572 36.8742
0 -0.0325185 0.00736572 21.9518
0 0.0073948 0.0325122 6.493
4.03897e-28 0.0299815 0.0146113 19.6405
0 0.0074815 0.0325122 6.49638
5.61066e-20 -0.0075185 0.0325122 5.98085
-3.02923e-28 0.0074815 0.0326133 6.45818
4.03897e-28 0.0299815 0.0149988 19.454
0 0.0149815 0.0300012 7.96725
4.03897e-28 -0.0150185 0.0300012 6.54434
0 -0.0300185 0.0149988 11.2499
0 0.0237315 0.02375 13.9317
0 -0.0237685 0.02375 8.26771
8.08456e-20 0.0249815 0.0225 15.3551
6.45119e-20 0.0224815 0.025 12.5001
3.28979e-21 -0.0225185 0.025 7.89541
3.28979e-21 -0.0250185 0.0225 8.66053
0 0.0337315 0.00116943 130.36
-1.0842e-19 0.0262315 0.02125 16.6982
-1.0842e-19 0.0212315 0.02625 11.0826
1.0842e-19 -0.0212685 0.02625 7.51606
1.0842e-19 -0.0262685 0.02125 9.04699
-1.0842e-19 -0.0337685 0.00116943 174.262
0 0.0012315 0.033783 5.81317
0 -0.0012685 0.0337829 5.7397
-1.0842e-19 0.0337315 0.00356873 89.2802
-1.0842e-19 -0.0337685 0.00356872 65.4721
8.10828e-20 0.0324815 0.00994629 23.8425
0 0.0037315 0.0337829 5.89023
3.28979e-21 0.0274815 0.02 17.6233
1.0842e-19 -0.0037685 0.0337829 5.66995
0 0.0199815 0.0275 9.96605
0 -0.0325185 0.00994629 14.5845
0 0.0099815 0.0325122 6.59796
4.20627e-20 -0.0200185 0.0275 7.16348
-3.54881e-20 -0.0275185 0.02 9.45853
4.30448e-20 -0.0100185 0.0325122 5.91128
0 0.0312315 0.0137433 19.3158
-1.0842e-19 0.0137315 0.0312567 7.28286
1.0842e-19 -0.0137685 0.0312567 6.19983
0 -0.0312685 0.0137433 11.7085
-5.04871e-29 0.016433 0.0300012 8.06768
1.0842e-19 0.0337315 0.00608216 45.7808
0 0.0287315 0.01875 18.4657
1.0842e-19 -0.0337685 0.00608215 27.9597
0 0.0187315 0.0287506 8.90908
1.0842e-19 -0.0187685 0.0287506 6.80334
-1.0842e-19 -0.0287685 0.01875 9.86532
0 0.0062315 0.0337829 5.97067
1.0842e-19 -0.0062685 0.033783 5.60393
0 0.0346215 0 132.849
1.68816e-28 0.0299815 0.0174883 18.7893
6.45159e-20 0.0299815 0.0175 18.7862
2.48505e-20 0.0174815 0.0300012 8.14023
1.57772e-29 -0.0300185 0.0174847 10.2969
-4.80688e-21 -0.0175185 0.0300012 6.47209
0 -0.0300185 0.0175 10.291
4.3716e-20 0.0324815 0.0124878 19.8216
0 0.0337315 0.00865601 26.263
5.69964e-20 0.0124815 0.0325122 6.7031
0 -0.0325185 0.0124878 12.3347
1.34854e-19 -0.0125185 0.0325122 5.84595
0 -0.0337685 0.00865601 16.2998
1.0842e-19 0.0087315 0.0337829 6.05415
0 -0.0087685 0.0337829 5.54159
0 0.0349815 1.1472e-09 133.632
0 -0.0350185 1.15898e-08 174.69
-8.37003e-20 -1.85003e-05 0.0350537 5.33219
3.35174e-20 0.0349815 0.00233889 111.803
-4.1359e-25 -0.0350185 0.00233887 120.313
-1.68335e-19 0.0024815 0.0350537 5.3971
3.19886e-20 -0.0025185 0.0350537 5.27034
0 0.0312315 0.0162494 18.9757
-1.0842e-19 0.0162315 0.0312567 7.41296
-1.0842e-19 -0.0162685 0.0312567 6.13319
0 -0.0312685 0.0162494 10.7175
-4.19546e-20 0.0349815 0.00479858 67.2792
-9.67102e-20 0.0249815 0.025 12.7931
2.06795e-25 -0.0350185 0.00479858 46.752
6.45119e-20 -0.0250185 0.025 7.8105
0 0.0262315 0.02375 14.1809
1.0842e-19 0.0237315 0.02625 11.3946
8.55341e-20 0.0049815 0.0350537 5.46494
-6.75119e-20 -0.0050185 0.0350537 5.21161
1.0842e-19 -0.0237685 0.02625 7.43515
0 -0.0262685 0.02375 8.17983
8.08456e-20 0.0274815 0.0225 15.4797
-9.67102e-20 0.0224815 0.0275 10.2402
-3.54881e-20 -0.0225185 0.0275 7.08669
-1.13044e-19 -0.0275185 0.0225 8.56949
-1.0842e-19 0.0337315 0.011217 20.163
-1.0842e-19 -0.0337685 0.011217 13.0188
0 0.0112315 0.0337829 6.14012
-1.0842e-19 -0.0112685 0.033783 5.48275
0 0.0287315 0.02125 16.6998
0 0.0212315 0.0287506 9.13171
0 0.0324815 0.0149166 18.904
8.95944e-20 0.0349815 0.00736572 35.0544
1.0842e-19 -0.0212685 0.0287506 6.73145
1.0842e-19 -0.0287685 0.02125 8.95369
0 0.0324815 0.0149988 18.8729
-5.16988e-26 -0.0350185 0.00736572 22.2875
0 0.0149815 0.0325122 6.81137
0 -0.0325185 0.0149988 11.1743
-6.60995e-20 -0.0150185 0.0325122 5.78451
-1.99102e-20 0.0074815 0.0350537 5.53549
-3.61791e-21 -0.0075185 0.0350537 5.15597
0 0.00784127 0.0350537 5.54597
3.28979e-21 0.0299815 0.02 17.5167
-1.99815e-20 0.0199815 0.0300012 8.31801
-6.02612e-20 -0.0200185 0.0300012 6.4045
3.28979e-21 -0.0300185 0.02 9.36343
0 0.0362314 0.00116944 136.903
-1.0842e-19 -0.0362685 0.00116943 175.118
-8.07794e-28 0.0161197 0.0325122 6.86181
1.0842e-19 0.0012315 0.036344 4.91226
-1.0842e-19 -0.0012685 0.036344 4.85897
4.11191e-21 0.0349815 0.00994629 22.5898
-1.29247e-26 -0.0350185 0.00994629 14.7067
-1.0842e-19 0.0362315 0.00356874 89.971
-1.0842e-19 0.0337315 0.0137433 18.7108
0 0.0312315 0.01875 18.2484
-1.0842e-19 0.0187315 0.0312567 7.54671
1.0842e-19 -0.0362685 0.00356872 64.6599
1.29247e-26 0.0099815 0.0350537 5.60832
8.43771e-20 -0.0100185 0.0350537 5.10334
0 -0.0337685 0.0137433 11.6474
-1.0842e-19 -0.0187685 0.0312567 6.07064
1.0842e-19 -0.0312685 0.01875 9.76869
0 0.0137315 0.0337829 6.228
1.0842e-19 -0.0137685 0.0337829 5.42721
-1.0842e-19 0.0037315 0.036344 4.96796
0 -0.0037685 0.036344 4.80819
-1.0842e-19 0.0362315 0.00608216 43.4387
0 -0.0362685 0.00608215 28.3869
-1.0842e-19 0.0062315 0.036344 5.02603
0 -0.0062685 0.036344 4.75989
0 0.0324815 0.0174854 18.4248
0 0.0324815 0.0175 18.4221
-1.01991e-19 0.0174815 0.0325122 6.92217
4.10208e-29 -0.0325185 0.0174821 10.204
8.08456e-20 -0.0325185 0.0175 10.197
-2.86573e-21 -0.0175185 0.0325122 5.72666
0 0.0262315 0.02625 11.6655
0 -0.0262685 0.02625 7.35931
-1.01939e-19 0.0349815 0.0124878 19.0671
8.08456e-20 0.0274815 0.025 13.0192
8.08456e-20 0.0249815 0.0275 10.4934
-3.5491e-20 -0.0250185 0.0275 7.01471
-1.61559e-27 -0.0350185 0.0124878 12.3212
3.28979e-21 -0.0275185 0.025 7.73107
0 0.0124815 0.0350537 5.68301
2.52373e-20 -0.0125185 0.0350537 5.05355
0 0.0362315 0.00865601 24.7006
0 0.0287315 0.02375 14.3401
-1.0842e-19 0.0237315 0.0287506 9.35183
1.0842e-19 -0.0362685 0.008656 16.4825
-1.0842e-19 -0.0237685 0.0287506 6.66397
-1.0842e-19 -0.0287685 0.02375 8.09746
-2.1684e-19 0.0087315 0.036344 5.08609
1.0842e-19 -0.0087685 0.036344 4.71408
0 0.0337315 0.0162494 18.4896
-1.0842e-19 -0.0337685 0.0162494 10.6249
0 0.0162315 0.0337829 6.31726
-3.30872e-24 0.0374814 1.67792e-08 140.543
3.28979e-21 0.0299815 0.0225 15.5273
-7.17777e-20 0.0224815 0.0300012 8.49682
-2.1684e-19 -0.0162685 0.0337829 5.3747
9.25069e-20 -0.0225185 0.0300012 6.34094
-3.54881e-20 -0.0300185 0.0225 8.4842
3.30872e-24 -0.0375185 1.06114e-08 175.655
-1.37113e-19 0.0374814 0.00233891 115.438
0 -0.0375185 0.00233887 120.475
2.64361e-20 -1.85014e-05 0.0376343 4.44906
-2.88127e-20 0.0024815 0.0376343 4.49538
0 -0.0025185 0.0376343 4.40481
1.0842e-19 0.0312315 0.02125 16.6531
1.0842e-19 0.0212315 0.0312567 7.68271
-2.25853e-20 0.0374815 0.00479856 66.2401
0 -0.0312685 0.02125 8.86603
1.0842e-19 -0.0212685 0.0312567 6.01162
1.03398e-25 -0.0375185 0.00479858 46.6194
1.0842e-19 0.0362315 0.011217 19.2628
-3.04283e-20 0.0049815 0.0376343 4.54367
1.0842e-19 -0.0362685 0.011217 13.0432
-1.04388e-19 -0.0050185 0.0376343 4.36265
1.0842e-19 0.0112315 0.036344 5.14776
1.0842e-19 -0.0112685 0.036344 4.67064
-2.01948e-28 0.0349815 0.0149735 18.3554
0 0.0349815 0.0149988 18.3482
0 -0.0350185 0.0149988 11.0969
1.08733e-19 0.0149815 0.0350537 5.75908
1.52722e-20 -0.0150185 0.0350537 5.00643
-9.67102e-20 0.0324815 0.02 17.3565
-1.00587e-19 0.0199815 0.0325122 7.0346
3.28979e-21 -0.0325185 0.02 9.27374
-1.21377e-19 -0.0200185 0.0325122 5.67206
8.48307e-20 0.0374815 0.00736572 33.0929
0 -0.0375185 0.00736572 22.5716
-4.61882e-20 0.0074815 0.0376343 4.5938
-3.3448e-20 -0.0075185 0.0376343 4.32251
-6.46235e-27 0.0158575 0.0350537 5.786
1.29247e-26 0.00843387 0.0376343 4.61349