# p  POINT_DATA 34169
# x  y  z  p
0 -1.85076e-05 6.54374e-09 0.0644762
-1.65436e-24 0.00114845 0 0.0645844
0 0.00123149 0.00116943 0.0645944
0 -0.0012685 0.00116944 0.064358
-2.58494e-25 -1.85056e-05 0.00219071 0.06447
0 -1.85055e-05 0.00233887 0.0644696
0 -0.000603648 0.00233887 0.0644131
1.65436e-24 0.00248149 7.47496e-09 0.0647081
0 -0.00251848 9.1726e-09 0.0642349
-2.06683e-20 0.00248149 0.00233887 0.064702
0 -0.0025185 0.00233887 0.0642283
0 0.00371837 0 0.0648188
0 0.0012315 0.00356873 0.0645812
-1.0842e-19 -0.0012685 0.00356873 0.0643445
0 0.00373149 0.00116943 0.0648217
0 -0.0037685 0.00116944 0.0641119
-4.9658e-20 -1.85024e-05 0.00479858 0.0644859
0 0.00498151 7.6335e-09 0.0649319
0 -0.00501848 1.11264e-08 0.0639841
1.0842e-19 0.0037315 0.00356872 0.0648104
-2.1684e-19 -0.0037685 0.00356872 0.0640988
9.26277e-21 0.0024815 0.00479858 0.064728
7.51248e-26 -0.0025185 0.00479221 0.0642361
0 -0.0025185 0.00479858 0.0642361
7.27014e-27 -0.00254754 0.00479858 0.0642331
0 0.0049216 0.00233887 0.0649219
-3.23117e-27 0.0049815 0.00233887 0.0649273
0 -0.0050185 0.00233887 0.0639779
3.23117e-27 0.0049815 0.00257695 0.0649309
-1.0842e-19 0.0012315 0.00608215 0.0646366
0 -0.0012685 0.00608215 0.0643818
0 0.0062315 0.00116943 0.065042
0 -0.0062685 0.00116943 0.0638564
0 0.0049815 0.00479858 0.064964
5.16988e-26 -0.0050185 0.00479858 0.0639785
-1.0842e-19 0.0037315 0.00608215 0.0648846
-2.1684e-19 -0.0037685 0.00608215 0.0641197
0 0.0062315 0.00356872 0.0650349
0 -0.0062685 0.00356872 0.0638445
1.27958e-19 -1.85008e-05 0.00736572 0.064569
0 0.00748152 1.05804e-08 0.06515
0 -0.00751848 1.07668e-08 0.0637248
-2.58494e-26 0.00580956 0.00479858 0.065041
-3.36443e-20 0.0024815 0.00736572 0.0648333
8.49695e-20 -0.0025185 0.00736572 0.0642978
-2.05331e-20 0.0074815 0.00233887 0.0651483
0 -0.0075185 0.00233887 0.0637192
-2.58494e-26 -0.0050185 0.00708651 0.0640161
0 0.0062315 0.00608215 0.0651273
0 -0.0062685 0.00608215 0.0638513
-2.1684e-19 0.0012315 0.008656 0.0647694
-1.0842e-19 -0.0012685 0.00865601 0.0644884
1.0842e-19 0.0087315 0.00116944 0.0652579
0 -0.0087685 0.00116943 0.0635932
0 0.0074815 0.00479858 0.0651966
1.62448e-19 0.0049815 0.00736572 0.0650904
0 -0.0050185 0.00736572 0.0640207
2.58494e-26 -0.0075185 0.00479858 0.0637141
-6.46235e-27 0.00528894 0.00736572 0.0651212
0 0.0037315 0.008656 0.0650426
0 0.0087315 0.00356873 0.0652585
0 -0.0037685 0.008656 0.0642013
-2.1684e-19 -0.0087685 0.00356872 0.0635826
1.29247e-26 -0.0075185 0.00648561 0.063731
-8.08278e-20 -1.85002e-05 0.00994629 0.0646755
1.65436e-24 0.0099815 1.38294e-08 0.0653658
-1.65436e-24 -0.0100185 9.43505e-09 0.0634586
1.00403e-19 0.0024815 0.00994629 0.0649608
-8.27181e-25 0.0099815 0.00233887 0.065369
-7.30726e-20 -0.0025185 0.00994629 0.0643834
-2.06795e-25 -0.0100185 0.00233887 0.0634538
-1.61559e-27 0.0049815 0.00900557 0.0651837
0 0.0074815 0.00736572 0.0653412
0 -0.0075185 0.00736572 0.0637398
-6.46235e-27 -0.00947855 0.00479858 0.0635029
1.0842e-19 0.0087315 0.00608215 0.0653671
0 0.0062315 0.008656 0.0653074
0 -0.0087685 0.00608215 0.0635782
1.0842e-19 -0.0062685 0.008656 0.0639106
0 0.00400269 0.00994629 0.065129
1.29247e-26 -0.0100185 0.00470539 0.0634451
0 0.0099815 0.00479858 0.0654292
6.46235e-27 -0.0100185 0.00479858 0.0634447
0 0.0049815 0.00994629 0.0652372
6.83146e-20 -0.0050185 0.00994629 0.0640873
0 0.0012315 0.011217 0.0648706
1.0842e-19 -0.0012685 0.011217 0.064573
0 0.0112315 0.00116943 0.0654737
0 -0.0112685 0.00116944 0.063324
0 0.0112315 0.00356872 0.0654859
-1.0842e-19 -0.0112685 0.00356873 0.0633152
1.0842e-19 0.0037315 0.011217 0.0651601
2.1684e-19 -0.0037685 0.011217 0.0642705
1.0842e-19 0.0087315 0.008656 0.0655633
-1.0842e-19 -0.0087685 0.00865601 0.0636191
0 0.0099815 0.00736572 0.0655868
-5.17539e-20 -0.0100185 0.00736572 0.0634574
-1.29247e-26 0.0074815 0.00994629 0.0655025
1.03847e-19 -0.0075185 0.00994629 0.0637898
0 0.0124815 1.62363e-08 0.0655844
-2.40255e-20 -1.85e-05 0.0124878 0.064748
1.65436e-24 -0.0125185 8.85477e-09 0.0631877
0 0.0124815 0.00233888 0.0655939
0 0.0024815 0.0124878 0.065043
-2.06795e-25 -0.0125185 0.00233887 0.0631839
-1.2277e-19 -0.0025185 0.0124878 0.0644457
0 0.0112315 0.00608215 0.065607
0 -0.0112685 0.00608215 0.0633027
1.0842e-19 0.0062315 0.011217 0.065438
2.01948e-28 0.00299048 0.0124878 0.0651007
-1.0842e-19 -0.0062685 0.011217 0.0639663
0 0.0124815 0.00479858 0.0656653
-7.10858e-26 -0.0125185 0.00470415 0.063173
-6.46235e-27 -0.0125185 0.00479858 0.0631726
0 0.0049815 0.0124878 0.0653268
3.68881e-20 -0.0050185 0.0124878 0.0641394
-1.0842e-19 0.0137315 0.00116943 0.0656952
2.1684e-19 0.0012315 0.0137433 0.0649248
0 -0.0012685 0.0137433 0.0646234
-1.0842e-19 -0.0137685 0.00116944 0.0630514
1.9387e-26 -0.0130041 0.00479858 0.0631196
-2.58494e-26 0.0099815 0.00994629 0.0657553
-3.84674e-21 -0.0100185 0.00994629 0.0634936
-2.1684e-19 0.0112315 0.008656 0.0658101
-2.1684e-19 0.0137315 0.00356873 0.0657214
1.0842e-19 -0.0112685 0.00865601 0.0633295
1.0842e-19 0.0087315 0.011217 0.0657009
-2.1684e-19 -0.0137685 0.00356872 0.063045
1.0842e-19 -0.0087685 0.011217 0.0636629
-1.0842e-19 0.0037315 0.0137433 0.065216
1.0842e-19 -0.0037685 0.0137433 0.0643156
0 0.0124815 0.00736572 0.0658282
-3.59216e-20 -0.0125185 0.00736572 0.0631758
3.23117e-27 0.0074815 0.0124878 0.065596
-1.95644e-20 -0.0075185 0.0124878 0.0638323
0 0.0149815 1.68918e-08 0.0658113
-3.71475e-20 -1.85e-05 0.0149988 0.0647735
-1.0842e-19 0.0137315 0.00608215 0.0658487
0 -0.0150185 9.26868e-09 0.0629145
2.1684e-19 -0.0137685 0.00608215 0.0630271
0 0.0062315 0.0137433 0.065493
0 -0.0062685 0.0137433 0.064005
8.27181e-25 0.0149815 0.00233888 0.0658277
2.06795e-25 -0.0150185 0.00233887 0.062912
1.4527e-19 0.0024815 0.0149988 0.0650685
1.28828e-19 -0.0025185 0.0149988 0.0644697
7.88861e-29 0.00254987 0.0149988 0.0650763
0 0.0149815 0.00479858 0.065907
-5.16988e-26 -0.0150185 0.00479858 0.0629
0 0.0049815 0.0149988 0.0653507
1.43184e-19 -0.0050185 0.0149988 0.0641609
0 0.0112315 0.011217 0.0659462
-2.1684e-19 -0.0112685 0.011217 0.0633627
-5.16988e-26 0.0124815 0.00994629 0.0659942
0 0.0099815 0.0124878 0.0658472
5.35398e-21 -0.0125185 0.00994629 0.0632009
3.33886e-20 -0.0100185 0.0124878 0.0635273
-1.0842e-19 0.0137315 0.008656 0.0660474
0 -0.0137685 0.008656 0.0630437
-1.0842e-19 0.0162315 0.00116944 0.0659274
2.1684e-19 0.0087315 0.0137433 0.0657519
0 0.0012315 0.0162494 0.0649226
1.0842e-19 -0.0012685 0.0162494 0.0646232
0 -0.0087685 0.0137433 0.0636949
-1.0842e-19 -0.0162685 0.00116944 0.0627775
2.58494e-26 -0.0150185 0.00699134 0.0628972
0 0.0162315 0.00356873 0.0659675
0 -0.0162685 0.00356872 0.0627742
-1.0842e-19 0.0037315 0.0162494 0.0652107
-2.1684e-19 -0.0037685 0.0162494 0.0643165
-1.09656e-19 0.0149815 0.00736572 0.0660656
0 -0.0150185 0.00736572 0.0628967
-4.03897e-28 0.0074815 0.0149988 0.0656161
7.17699e-20 -0.0075185 0.0149988 0.0638507
-6.46235e-27 -0.0156476 0.00736572 0.0628275
1.0842e-19 0.0162315 0.00608215 0.0660924
2.1684e-19 -0.0162685 0.00608215 0.0627535
-1.0842e-19 0.0062315 0.0162494 0.0654832
-2.1684e-19 -0.0062685 0.0162494 0.0640064
0 0.0174815 1.67042e-08 0.0660504
-1.91555e-20 -1.85e-05 0.0175 0.0647537
0 -0.0175185 1.03701e-08 0.0626409
0 0.0174815 0.00233888 0.0660729
0 0.0124815 0.0124878 0.0660783
4.1359e-25 -0.0175185 0.00233887 0.0626402
1.58401e-19 0.0024815 0.0175 0.065044
8.08441e-20 -0.0025185 0.0175 0.0644539
-1.17075e-19 -0.0125185 0.0124878 0.0632265
-2.1684e-19 0.0137315 0.011217 0.0661724
0 0.0112315 0.0137433 0.0659898
1.0842e-19 -0.0137685 0.011217 0.0630675
0 -0.0112685 0.0137433 0.0633883
0 0.0149815 0.00994629 0.0662183
-9.59889e-21 -0.0150185 0.00994629 0.0629132
8.07794e-28 0.0099815 0.0149988 0.0658615
-6.56678e-20 -0.0100185 0.0149988 0.0635424
0 0.0174815 0.00479858 0.0661549
0 -0.0175185 0.00479858 0.062629
-4.57539e-29 0.0049815 0.0174753 0.0653213
-1.57772e-30 0.0049815 0.0175 0.065321
8.08441e-20 -0.0050185 0.0175 0.0641486
-1.0842e-19 0.0162315 0.008656 0.0662744
1.0842e-19 -0.0162685 0.00865601 0.0627626
2.1684e-19 0.0087315 0.0162494 0.0657364
0 -0.0087685 0.0162494 0.0636965
0 0.0187315 0.00116944 0.0661735
-1.0842e-19 0.0012315 0.01875 0.0648807
0 -0.0012685 0.01875 0.0645881
0 -0.0187685 0.00116943 0.0625043
0 0.0174815 0.00736572 0.0662987
0 -0.0175185 0.00736572 0.0626216
-9.15079e-29 0.0074815 0.0174897 0.0655812
-1.57772e-30 0.0074815 0.0175 0.065581
1.42064e-19 -0.0075185 0.0175 0.0638413
-1.0842e-19 0.0187315 0.00356873 0.0662239
-1.0842e-19 -0.0187685 0.00356872 0.0625049
0 0.0037315 0.01875 0.0651619
0 -0.0037685 0.01875 0.0642878
-1.0842e-19 0.0137315 0.0137433 0.0662045
-2.1684e-19 -0.0137685 0.0137433 0.0630874
6.46235e-27 0.0149815 0.0124878 0.0662878
0 0.0124815 0.0149988 0.0660845
3.30689e-20 -0.0150185 0.0124878 0.0629318
6.97801e-20 -0.0125185 0.0149988 0.0632385
0 -0.016963 0.00994629 0.062694
0 0.0187315 0.00608215 0.0663375
0 -0.0187685 0.00608215 0.0624833
-1.0842e-19 0.0162315 0.011217 0.0663787
0 0.0112315 0.0162494 0.0659678
1.0842e-19 0.0062315 0.01875 0.0654282
-1.0842e-19 -0.0162685 0.011217 0.0627786
-1.0842e-19 -0.0062685 0.01875 0.0639836
0 -0.0112685 0.0162494 0.0633897
0 0.0199815 1.72687e-08 0.066303
1.58401e-19 -1.85e-05 0.02 0.0647014
0 -0.0200185 1.16628e-08 0.062369
-5.16988e-26 0.0174815 0.00994629 0.0664276
0 0.0199815 0.00233888 0.0663292
-1.41995e-29 0.0099815 0.0174933 0.0658213
-1.61559e-27 -0.0175185 0.00994629 0.0626314
-1.57772e-30 0.0099815 0.0175 0.0658212
-1.91544e-20 0.0024815 0.02 0.0649849
0 -0.0200185 0.00233887 0.0623703
-4.15987e-20 -0.0025185 0.02 0.0644088
4.20638e-20 -0.0100185 0.0175 0.0635352
0 0.0199815 0.00479858 0.0664078
-2.06795e-25 -0.0200185 0.00479858 0.0623611
-9.67102e-20 0.0049815 0.02 0.0652558
1.58401e-19 -0.0050185 0.02 0.0641106
-1.0842e-19 0.0187315 0.00865601 0.0664907
1.0842e-19 -0.0187685 0.008656 0.0624872
0 0.0087315 0.01875 0.0656764
0 -0.0087685 0.01875 0.0636786
0 0.0149815 0.0149988 0.0662841
4.61343e-20 -0.0150185 0.0149988 0.0629407
1.0842e-19 0.0212315 0.00116944 0.0664325
-1.0842e-19 0.0162315 0.0137433 0.0663956
0 0.0137315 0.0162494 0.0661758
0 0.0012315 0.02125 0.064811
-1.0842e-19 -0.0012685 0.02125 0.0645258
0 0.0199815 0.00736572 0.0665268
-1.0842e-19 -0.0162685 0.0137433 0.0627936
0 -0.0137685 0.0162494 0.0630883
0 -0.0212685 0.00116943 0.0622337
0 -0.0200185 0.00736572 0.0623514
8.08456e-20 0.0074815 0.02 0.0655112
8.08456e-20 -0.0075185 0.02 0.0638099
2.01948e-28 -0.0175185 0.0122529 0.0626431
0 0.0174815 0.0124878 0.0664762
0 0.0124815 0.0175 0.0660398
-2.01948e-28 -0.0175185 0.0124878 0.0626443
8.08456e-20 -0.0125185 0.0175 0.0632328
0 0.0212315 0.00356873 0.066488
0 -0.0212685 0.00356872 0.0622385
0 0.0037315 0.02125 0.0650857
-1.0842e-19 -0.0037685 0.02125 0.0642336
1.0842e-19 0.0187315 0.011217 0.066566
0 0.0112315 0.01875 0.0659043
0 -0.0187685 0.011217 0.0624971
0 -0.0112685 0.01875 0.0633758
1.00974e-28 -0.0181344 0.0124878 0.0625753
0 0.0212315 0.00608215 0.0665833
0 -0.0212685 0.00608215 0.0622176
0 0.0062315 0.02125 0.0653472
0 -0.0062685 0.02125 0.0639373
0 0.0199815 0.00994629 0.0666223
-1.91544e-20 0.0099815 0.02 0.0657488
-6.46235e-27 -0.0200185 0.00994629 0.0623563
3.28979e-21 -0.0100185 0.02 0.0635095
-3.30872e-24 0.0224815 1.82997e-08 0.0665669
-1.91544e-20 -1.85e-05 0.0225 0.0646295
-1.65436e-24 -0.0225185 1.24017e-08 0.0621001
8.27181e-25 0.0224815 0.00233888 0.0665947
8.08456e-20 0.0024815 0.0225 0.0649064
0 -0.0225185 0.00233887 0.0621037
5.84013e-20 -0.0025185 0.0225 0.0643447
1.0842e-19 0.0212315 0.008656 0.0666958
-1.0842e-19 -0.0212685 0.008656 0.0622178
0 0.0162315 0.0162494 0.0663607
-1.0842e-19 0.0087315 0.02125 0.065593
0 0.0224815 0.00479858 0.0666638
1.0842e-19 -0.0087685 0.02125 0.0636398
0 -0.0162685 0.0162494 0.0627936
2.06795e-25 -0.0225185 0.00479858 0.0620973
-1.41995e-28 0.0149815 0.0174942 0.0662362
0 0.0174815 0.0149988 0.0664613
8.08456e-20 0.0049815 0.0225 0.0651724
5.84013e-20 -0.0050185 0.0225 0.0640545
8.08443e-20 -0.0150185 0.0175 0.0629359
1.27468e-19 -0.0175185 0.0149988 0.0626503
1.0842e-19 0.0187315 0.0137433 0.0665646
1.0842e-19 0.0137315 0.01875 0.0661111
0 -0.0137685 0.01875 0.0630772
0 -0.0187685 0.0137433 0.0625078
0 0.0199815 0.0124878 0.0666456
1.58401e-19 0.0124815 0.02 0.0659671
4.03897e-28 -0.0200185 0.0124878 0.0623644
-3.54881e-20 -0.0125185 0.02 0.0632117
0 0.0224815 0.00736572 0.0667491
0 -0.0225185 0.00736572 0.0620866
-1.91544e-20 0.0074815 0.0225 0.0654253
1.58401e-19 -0.0075185 0.0225 0.0637616
0 0.0237315 0.00116944 0.0667013
0 0.0012315 0.02375 0.0647296
1.0842e-19 -0.0012685 0.02375 0.0644517
1.0842e-19 -0.0237685 0.00116943 0.0619666
0 0.0237315 0.00356873 0.0667578
0 0.0212315 0.011217 0.0667363
0 -0.0237685 0.00356872 0.0619762
0 0.0112315 0.02125 0.0658213
-1.0842e-19 0.0037315 0.02375 0.064999
-2.1684e-19 -0.0212685 0.011217 0.0622231
-1.0842e-19 -0.0037685 0.02375 0.0641675
0 -0.0112685 0.02125 0.0633435
1.0842e-19 0.0237315 0.00608215 0.0668275
-2.1684e-19 -0.0237685 0.00608215 0.0619566
0 0.0062315 0.02375 0.0652576
0 -0.0062685 0.02375 0.0638794
2.58494e-26 0.0224815 0.00994629 0.0668038
-1.91544e-20 0.0099815 0.0225 0.0656633
0 -0.0225185 0.00994629 0.0620879
1.58401e-19 -0.0100185 0.0225 0.0634684
-6.31089e-30 -0.0196434 0.0149988 0.0624101
-4.40184e-28 0.0174815 0.0174936 0.0664119
-3.54802e-20 0.0174815 0.0175 0.0664118
8.08443e-20 -0.0175185 0.0175 0.0626456
0 0.0187315 0.0162494 0.0665244
0 0.0162315 0.01875 0.0662973
1.0842e-19 -0.0162685 0.01875 0.0627843
1.0842e-19 -0.0187685 0.0162494 0.0625063
0 0.0249815 1.76875e-08 0.0668391
0 0.0199815 0.0149988 0.0666188
1.58401e-19 0.0149815 0.02 0.0661661
-1.91544e-20 -1.85e-05 0.025 0.0645512
-3.54881e-20 -0.0150185 0.02 0.0629183
6.31089e-30 -0.0200185 0.0149988 0.0623676
1.65436e-24 -0.0250185 1.26415e-08 0.0618355
0 0.0249815 0.00233888 0.0668664
-1.91544e-20 0.0024815 0.025 0.0648226
1.58401e-19 -0.0025185 0.025 0.0642731
0 -0.0250185 0.00233887 0.0618413
0 0.0237315 0.00865601 0.06689
1.0842e-19 0.0212315 0.0137433 0.0667155
1.0842e-19 -0.0237685 0.008656 0.0619546
0 0.0137315 0.02125 0.0660316
0 0.0087315 0.02375 0.0655034
0 -0.0087685 0.02375 0.0635898
0 -0.0137685 0.02125 0.0630502
-1.0842e-19 -0.0212685 0.0137433 0.0622297
4.1359e-25 0.0249815 0.00479858 0.0669205
0 -0.0250185 0.00479858 0.061838
1.58401e-19 0.0049815 0.025 0.0650852
-1.91544e-20 -0.0050185 0.025 0.0639904
0 0.0224815 0.0124878 0.0667995
1.58401e-19 0.0124815 0.0225 0.0658853
8.08456e-20 -0.0125185 0.0225 0.0631769
8.07794e-28 -0.0225185 0.0124878 0.0620921
-1.03398e-25 0.0249815 0.00736572 0.0669648
5.16988e-26 -0.0250185 0.00736572 0.0618273
1.58401e-19 0.0074815 0.025 0.0653373
8.08456e-20 -0.0075185 0.025 0.063705
0 0.0237315 0.011217 0.0668931
0 0.0262315 0.00116943 0.066977
1.0842e-19 0.0112315 0.02375 0.0657353
1.0842e-19 0.0012315 0.02625 0.064648
0 -0.0012685 0.02625 0.0643755
1.0842e-19 -0.0237685 0.011217 0.0619563
-1.0842e-19 -0.0112685 0.02375 0.0633005
0 -0.0200185 0.0170411 0.0623634
0 -0.0262685 0.00116943 0.0617044
0 0.0262315 0.00356873 0.0670305
0 0.0187315 0.01875 0.0664648
1.0842e-19 -0.0262685 0.00356872 0.0617184
0 0.0037315 0.02625 0.0649135
0 -0.0037685 0.02625 0.0640978
0 -0.0187685 0.01875 0.062498
-1.78283e-28 0.0199815 0.017493 0.0665694
-3.54808e-20 0.0199815 0.0175 0.0665692
-9.67102e-20 0.0174815 0.02 0.0663471
3.28979e-21 -0.0175185 0.02 0.0626304
0 -0.0200185 0.0175 0.0623624
1.0842e-19 0.0212315 0.0162494 0.0666706
-1.0842e-19 0.0162315 0.02125 0.0662245
0 -0.0162685 0.02125 0.0627614
0 -0.0212685 0.0162494 0.0622268
0 0.0249815 0.00994629 0.0669747
-1.91544e-20 0.0099815 0.025 0.0655777
-1.29247e-26 -0.0250185 0.00994629 0.0618261
-1.0842e-19 0.0262315 0.00608215 0.0670672
1.58401e-19 -0.0100185 0.025 0.0634189
0 -0.0262685 0.00608215 0.0617008
-1.0842e-19 0.0062315 0.02625 0.0651705
0 -0.0062685 0.02625 0.0638167
0 0.0224815 0.0149988 0.0667608
-1.91544e-20 0.0149815 0.0225 0.0660913
3.28979e-21 -0.0150185 0.0225 0.0628885
0 -0.0225185 0.0149988 0.0620927
1.0842e-19 0.0237315 0.0137433 0.0668531
0 0.0137315 0.02375 0.0659528
0 -0.0137685 0.02375 0.0630132
0 -0.0237685 0.0137433 0.0619594
0 0.0274815 1.36323e-09 0.0671161
1.58401e-19 -1.85e-05 0.0275 0.064475
1.65436e-24 -0.0275185 1.29131e-08 0.0615759
0 0.0274815 0.00233887 0.0671411
-1.91571e-20 0.0024815 0.0275 0.0647426
1.584e-19 -0.0025185 0.0275 0.064202
-8.53899e-21 -0.0275185 0.00233886 0.0615838
-2.1684e-19 0.0262315 0.008656 0.0670747
2.1684e-19 -0.0262685 0.008656 0.0616974
1.0842e-19 0.0087315 0.02625 0.0654177
0 -0.0087685 0.02625 0.063534
-5.16988e-26 0.0274815 0.00479858 0.0671749
-3.23117e-27 0.0249815 0.0124878 0.0669425
2.63192e-20 -0.0275185 0.00479858 0.0615837
-9.67102e-20 0.0124815 0.025 0.0658056
5.84013e-20 0.0049815 0.0275 0.0650034
-1.91544e-20 -0.0050185 0.0275 0.0639251
1.58401e-19 -0.0125185 0.025 0.0631337
1.61559e-27 -0.0250185 0.0124878 0.061827
5.16988e-26 0.0278127 0.00479858 0.067208
3.28979e-21 0.0199815 0.02 0.0665125
2.58494e-26 0.0273129 0.00736572 0.0671596
-9.67102e-20 -0.0200185 0.02 0.0623487
0 0.0212315 0.01875 0.066617
1.0842e-19 0.0187315 0.02125 0.0664018
1.0842e-19 -0.0187685 0.02125 0.0624779
0 -0.0212685 0.01875 0.0622185
-2.58494e-26 0.0274815 0.00708861 0.0671738
-3.15544e-30 -0.0225185 0.0173267 0.062087
0 0.0274815 0.00736572 0.0671737
-1.21485e-28 0.0224815 0.0174925 0.0667127
-5.16988e-26 -0.0275185 0.00736572 0.0615735
-1.57772e-30 0.0224815 0.0175 0.0667126
-9.67102e-20 0.0174815 0.0225 0.0662825
1.58401e-19 0.0074815 0.0275 0.0652561
4.2064e-20 -0.0075185 0.0275 0.0636459
3.28979e-21 -0.0175185 0.0225 0.0626046
-1.57772e-30 -0.0225185 0.0175 0.0620865
0 0.0262315 0.011217 0.0670411
1.0842e-19 0.0112315 0.02625 0.0656542
-1.0842e-19 -0.0262685 0.011217 0.0616961
0 -0.0112685 0.02625 0.0632512
-7.88861e-30 0.0074815 0.0276324 0.0652524
1.0842e-19 0.0287315 0.00116943 0.0672553
0 0.0237315 0.0162494 0.0668043
0 0.0162315 0.02375 0.0661563
1.0842e-19 0.0012315 0.0287506 0.0645727
-1.0842e-19 -0.0012685 0.0287506 0.0643038
0 -0.0162685 0.02375 0.0627293
0 -0.0237685 0.0162494 0.0619548
1.0842e-19 -0.0287685 0.00116943 0.0614475
1.0842e-19 0.0287315 0.00356873 0.0673025
1.0842e-19 -0.0287685 0.00356872 0.0614654
0 0.0037315 0.0287506 0.0648361
1.0842e-19 -0.0037685 0.0287506 0.0640308
-4.03897e-28 0.0249815 0.0149988 0.0668928
0 0.0274815 0.00969854 0.067142
3.28979e-21 0.0149815 0.025 0.0660211
-1.91544e-20 -0.0150185 0.025 0.0628508
0 -0.0250185 0.0149988 0.0618251
0 0.0274815 0.00994629 0.0671386
8.08456e-20 0.0099815 0.0275 0.0654999
-1.29247e-26 -0.0275185 0.00994629 0.0615703
8.08456e-20 -0.0100185 0.0275 0.0633659
0 0.0275288 0.00994629 0.0671416
9.30856e-29 0.0099815 0.0275163 0.0654994
0 0.0287315 0.00608215 0.0672998
0 -0.0287685 0.00608215 0.0614499
0 0.0062315 0.0287506 0.0650931
1.0842e-19 -0.0062685 0.0287506 0.063755
0 0.0293435 0.00233887 0.067345
-1.0842e-19 0.0262315 0.0137433 0.0669829
1.0842e-19 0.0137315 0.02625 0.0658799
0 -0.0137685 0.02625 0.0629697
-1.0842e-19 -0.0262685 0.0137433 0.0616962
-1.65436e-24 0.0299815 1.10974e-08 0.067394
1.09589e-19 -1.85e-05 0.0300012 0.0644056
1.0842e-19 0.0287315 0.008656 0.067253
-1.65436e-24 -0.0300185 1.29568e-08 0.0613219
1.0842e-19 0.0212315 0.02125 0.0665664
0 -0.0287685 0.008656 0.0614458
0 0.0087315 0.0287506 0.0653429
1.0842e-19 -0.0087685 0.0287506 0.0634778
-1.03398e-24 0.0299815 0.00217865 0.0674134
0 -0.0212685 0.02125 0.0622003
0 0.0299815 0.00233887 0.0674148
-1.91544e-20 0.0224815 0.02 0.066666
-3.54881e-20 0.0199815 0.0225 0.0664609
-1.09081e-19 0.0024815 0.0300012 0.0646711
-2.05885e-20 -0.0025185 0.0300012 0.0641359
-5.82335e-21 -0.0300185 0.00233886 0.0613314
6.45119e-20 -0.0200185 0.0225 0.0623257
1.58401e-19 -0.0225185 0.02 0.0620734
-1.61559e-27 0.0274815 0.0124878 0.06708
3.28979e-21 0.0124815 0.0275 0.0657344
2.24036e-28 0.0124815 0.0275129 0.0657341
-1.91544e-20 -0.0125185 0.0275 0.0630864
0 -0.0275185 0.0124878 0.0615685
0 0.0237315 0.01875 0.0667583
1.0842e-19 0.0187315 0.02375 0.0663473
0 -0.0187685 0.02375 0.0624496
-1.0842e-19 -0.0237685 0.01875 0.061946
2.36834e-20 0.0299815 0.00479858 0.0674242
3.4018e-20 -0.0300185 0.00479858 0.061334
1.25384e-20 0.0049815 0.0300012 0.0649315
1.22849e-19 -0.0050185 0.0300012 0.0638632
0 0.0249815 0.0174915 0.066847
-1.57772e-30 0.0249815 0.0175 0.0668469
2.68213e-29 -0.0250185 0.0174512 0.061818
-3.54881e-20 0.0174815 0.025 0.066225
-9.67102e-20 -0.0175185 0.025 0.0625713
0 -0.0250185 0.0175 0.0618178
-1.00974e-28 0.00711119 0.0300012 0.0651482
0 0.0287315 0.011217 0.0671857
0 0.0262315 0.0162494 0.0669312
0 0.0162315 0.02625 0.0660952
-1.0842e-19 0.0112315 0.0287506 0.0655847
5.80184e-20 0.0299815 0.00736572 0.0673766
-2.1684e-19 -0.0287685 0.011217 0.0614419
2.1684e-19 -0.0112685 0.0287506 0.0632004
0 -0.0162685 0.02625 0.0626908
2.1684e-19 -0.0262685 0.0162494 0.06169
1.03398e-25 -0.0300185 0.00736572 0.0613247
-2.52435e-29 0.0074815 0.0300012 0.0651859
6.28265e-20 -0.0075185 0.0300012 0.0635887
-2.1684e-19 0.0312315 0.00116943 0.0675326
0 0.0012315 0.0312567 0.0645062
0 -0.0012685 0.0312567 0.0642393
0 -0.0312685 0.00116943 0.0611963
-4.03897e-28 0.0274815 0.0149988 0.0670205
3.28979e-21 0.0149815 0.0275 0.0659597
1.58401e-19 -0.0150185 0.0275 0.0628086
-4.73317e-29 0.0149815 0.0275251 0.0659592
-2.01948e-28 -0.0275185 0.0149988 0.0615645
0 0.0287473 0.0124878 0.0671497
1.0842e-19 0.0312315 0.00356873 0.0675695
0 -0.0312685 0.00356872 0.061217
-1.0842e-19 0.0037315 0.0312567 0.0647691
-1.0842e-19 -0.0037685 0.0312567 0.0639694
-1.24835e-19 0.0299815 0.00994629 0.0672999
0 0.0099815 0.0300012 0.0654338
0 -0.0300185 0.00994629 0.0613201
-4.58756e-20 -0.0100185 0.0300012 0.0633135
-9.67102e-20 0.0224815 0.0225 0.0666295
0 0.0312315 0.00608215 0.0675245
3.28979e-21 -0.0225185 0.0225 0.0620525
0 0.0287315 0.0137433 0.0671107
0 -0.0312685 0.00608215 0.0612037
0 0.0237315 0.02125 0.066722
0 0.0212315 0.02375 0.066528
0 0.0137315 0.0287506 0.0658187
-1.0842e-19 0.0062315 0.0312567 0.0650273
1.0842e-19 -0.0137685 0.0287506 0.0629241
-1.0842e-19 -0.0062685 0.0312567 0.0636974
-1.0842e-19 -0.0212685 0.02375 0.062175
-1.0842e-19 -0.0237685 0.02125 0.0619289
0 -0.0287685 0.0137433 0.0614399
8.08456e-20 0.0249815 0.02 0.0668117
6.45119e-20 0.0199815 0.025 0.0664189
3.28979e-21 -0.0200185 0.025 0.0622961
8.08456e-20 -0.0250185 0.02 0.0618049
1.0842e-19 0.0262315 0.01875 0.0668937
0 0.0187315 0.02625 0.066301
1.0842e-19 -0.0187685 0.02625 0.0624154
0 -0.0262685 0.01875 0.0616805
1.0842e-19 0.0312315 0.00865601 0.0674289
0 -0.0312685 0.008656 0.0611993
1.0842e-19 0.0087315 0.0312567 0.0652802
0 -0.0087685 0.0312567 0.0634243
0 0.0299815 0.0124878 0.0672177
0 0.0324815 6.81881e-09 0.0676689
0 0.0124815 0.0300012 0.0656751
-4.1359e-25 0.0324815 0.00123728 0.067677
-4.41356e-20 -0.0125185 0.0300012 0.0630387
3.06077e-20 -1.85e-05 0.0325122 0.0643448
0 -0.0300185 0.0124878 0.0613163
-1.65436e-24 -0.0325185 1.24576e-08 0.0610737
1.35199e-19 0.0324815 0.00233888 0.0676842
1.43573e-28 0.0274815 0.01749 0.0669778
0 0.0274815 0.0175 0.0669776
-3.54881e-20 0.0174815 0.0275 0.0661766
2.20881e-29 -0.0275185 0.0174791 0.0615561
0 -0.0325185 0.00233887 0.0610844
8.08408e-20 -0.0175185 0.0275 0.0625336
3.88783e-20 0.0024815 0.0325122 0.0646095
1.16914e-20 -0.0025185 0.0325122 0.064077
8.08473e-20 -0.0275185 0.0175 0.0615561
1.75834e-20 0.0324815 0.0047986 0.0676666
2.06795e-25 -0.0325185 0.00479858 0.0610891
3.85759e-20 0.0049815 0.0325122 0.0648706
3.62211e-20 -0.0050185 0.0325122 0.0638071
1.0842e-19 0.0287315 0.0162494 0.0670572
0 0.0162315 0.0287506 0.0660452
1.0842e-19 -0.0162685 0.0287506 0.0626498
0 -0.0287685 0.0162494 0.0614321
0 0.0312315 0.011217 0.0673324
-2.1684e-19 0.0112315 0.0312567 0.0655276
0 -0.0312685 0.011217 0.0611936
-2.1684e-19 -0.0112685 0.0312567 0.0631512
-2.30254e-20 0.0324815 0.00736572 0.0675753
0 -0.0325185 0.00736572 0.0610807
0 0.0073948 0.0325122 0.0651186
4.03897e-28 0.0299815 0.0146113 0.0671601
0 0.0074815 0.0325122 0.0651275
5.61066e-20 -0.0075185 0.0325122 0.063536
-3.02923e-28 0.0074815 0.0326133 0.0651257
4.03897e-28 0.0299815 0.0149988 0.0671496
0 0.0149815 0.0300012 0.0659099
4.03897e-28 -0.0150185 0.0300012 0.0627655
0 -0.0300185 0.0149988 0.0613106
0 0.0237315 0.02375 0.0667014
0 -0.0237685 0.02375 0.0619058
8.08456e-20 0.0249815 0.0225 0.0667918
6.45119e-20 0.0224815 0.025 0.0666052
3.28979e-21 -0.0225185 0.025 0.0620257
3.28979e-21 -0.0250185 0.0225 0.0617853
0 0.0337315 0.00116943 0.0678052
-1.0842e-19 0.0262315 0.02125 0.0668727
-1.0842e-19 0.0212315 0.02625 0.0664993
1.0842e-19 -0.0212685 0.02625 0.0621442
1.0842e-19 -0.0262685 0.02125 0.061664
-1.0842e-19 -0.0337685 0.00116943 0.0609512
0 0.0012315 0.033783 0.0644496
0 -0.0012685 0.0337829 0.0641836
-1.0842e-19 0.0337315 0.00356873 0.0678299
-1.0842e-19 -0.0337685 0.00356872 0.0609735
8.10828e-20 0.0324815 0.00994629 0.0674631
0 0.0037315 0.0337829 0.0647129
3.28979e-21 0.0274815 0.02 0.0669545
1.0842e-19 -0.0037685 0.0337829 0.0639154
0 0.0199815 0.0275 0.0663862
0 -0.0325185 0.00994629 0.0610755
0 0.0099815 0.0325122 0.0653799
4.20627e-20 -0.0200185 0.0275 0.0622622
-3.54881e-20 -0.0275185 0.02 0.0615429
4.30448e-20 -0.0100185 0.0325122 0.0632645
0 0.0312315 0.0137433 0.0672422
-1.0842e-19 0.0137315 0.0312567 0.0657696
1.0842e-19 -0.0137685 0.0312567 0.0628791
0 -0.0312685 0.0137433 0.0611899
-5.04871e-29 0.016433 0.0300012 0.0660428
1.0842e-19 0.0337315 0.00608216 0.0677416
0 0.0287315 0.01875 0.0670284
1.0842e-19 -0.0337685 0.00608215 0.060962
0 0.0187315 0.0287506 0.066265
1.0842e-19 -0.0187685 0.0287506 0.0623784
-1.0842e-19 -0.0287685 0.01875 0.0614217
0 0.0062315 0.0337829 0.064973
1.0842e-19 -0.0062685 0.033783 0.0636459
0 0.0346215 0 0.0678996
1.68816e-28 0.0299815 0.0174883 0.0671106
6.45159e-20 0.0299815 0.0175 0.0671104
2.48505e-20 0.0174815 0.0300012 0.0661388
1.57772e-29 -0.0300185 0.0174847 0.0613011
-4.80688e-21 -0.0175185 0.0300012 0.0624945
0 -0.0300185 0.0175 0.061301
4.3716e-20 0.0324815 0.0124878 0.0673609
0 0.0337315 0.00865601 0.0676057
5.69964e-20 0.0124815 0.0325122 0.0656277
0 -0.0325185 0.0124878 0.0610702
1.34854e-19 -0.0125185 0.0325122 0.0629935
0 -0.0337685 0.00865601 0.0609579
1.0842e-19 0.0087315 0.0337829 0.0652295
0 -0.0087685 0.0337829 0.0633759
0 0.0349815 1.1472e-09 0.0679384
0 -0.0350185 1.15898e-08 0.0608319
-8.37003e-20 -1.85003e-05 0.0350537 0.0642937
3.35174e-20 0.0349815 0.00233889 0.0679477
-4.1359e-25 -0.0350185 0.00233887 0.0608429
-1.68335e-19 0.0024815 0.0350537 0.0645586
3.19886e-20 -0.0025185 0.0350537 0.0640269
0 0.0312315 0.0162494 0.0671882
-1.0842e-19 0.0162315 0.0312567 0.0660063
-1.0842e-19 -0.0162685 0.0312567 0.0626088
0 -0.0312685 0.0162494 0.0611808
-4.19546e-20 0.0349815 0.00479858 0.0679028
-9.67102e-20 0.0249815 0.025 0.0667866
2.06795e-25 -0.0350185 0.00479858 0.0608489
6.45119e-20 -0.0250185 0.025 0.0617607
0 0.0262315 0.02375 0.066871
1.0842e-19 0.0237315 0.02625 0.066692
8.55341e-20 0.0049815 0.0350537 0.0648211
-6.75119e-20 -0.0050185 0.0350537 0.0637587
1.0842e-19 -0.0237685 0.02625 0.0618778
0 -0.0262685 0.02375 0.0616424
8.08456e-20 0.0274815 0.0225 0.0669518
-9.67102e-20 0.0224815 0.0275 0.0665903
-3.54881e-20 -0.0225185 0.0275 0.061995
-1.13044e-19 -0.0275185 0.0225 0.0615242
-1.0842e-19 0.0337315 0.011217 0.0674859
-1.0842e-19 -0.0337685 0.011217 0.0609513
0 0.0112315 0.0337829 0.0654823
-1.0842e-19 -0.0112685 0.033783 0.0631061
0 0.0287315 0.02125 0.0670231
0 0.0212315 0.0287506 0.0664795
0 0.0324815 0.0149166 0.0672883
8.95944e-20 0.0349815 0.00736572 0.0677722
1.0842e-19 -0.0212685 0.0287506 0.0621107
1.0842e-19 -0.0287685 0.02125 0.0614055
0 0.0324815 0.0149988 0.0672858
-5.16988e-26 -0.0350185 0.00736572 0.0608417
0 0.0149815 0.0325122 0.0658712
0 -0.0325185 0.0149988 0.0610631
-6.60995e-20 -0.0150185 0.0325122 0.0627239
-1.99102e-20 0.0074815 0.0350537 0.0650807
-3.61791e-21 -0.0075185 0.0350537 0.0634899
0 0.00784127 0.0350537 0.0651177
3.28979e-21 0.0299815 0.02 0.0670992
-1.99815e-20 0.0199815 0.0300012 0.0663628
-6.02612e-20 -0.0200185 0.0300012 0.0622267
3.28979e-21 -0.0300185 0.02 0.0612875
0 0.0362314 0.00116944 0.0680716
-1.0842e-19 -0.0362685 0.00116943 0.0607125
-8.07794e-28 0.0161197 0.0325122 0.0659802
1.0842e-19 0.0012315 0.036344 0.0644037
-1.0842e-19 -0.0012685 0.036344 0.0641378
4.11191e-21 0.0349815 0.00994629 0.0676321
-1.29247e-26 -0.0350185 0.00994629 0.0608365
-1.0842e-19 0.0362315 0.00356874 0.0680845
-1.0842e-19 0.0337315 0.0137433 0.0673836
0 0.0312315 0.01875 0.0671677
-1.0842e-19 0.0187315 0.0312567 0.0662387
1.0842e-19 -0.0362685 0.00356872 0.0607349
1.29247e-26 0.0099815 0.0350537 0.0653374
8.43771e-20 -0.0100185 0.0350537 0.0632211
0 -0.0337685 0.0137433 0.0609461
-1.0842e-19 -0.0187685 0.0312567 0.0623411
1.0842e-19 -0.0312685 0.01875 0.0611695
0 0.0137315 0.0337829 0.0657314
1.0842e-19 -0.0137685 0.0337829 0.0628373
-1.0842e-19 0.0037315 0.036344 0.0646679
0 -0.0037685 0.036344 0.0638706
-1.0842e-19 0.0362315 0.00608216 0.0679535
0 -0.0362685 0.00608215 0.060725
-1.0842e-19 0.0062315 0.036344 0.0649302
0 -0.0062685 0.036344 0.0636027
0 0.0324815 0.0174854 0.0672506
0 0.0324815 0.0175 0.0672504
-1.01991e-19 0.0174815 0.0325122 0.0661107
4.10208e-29 -0.0325185 0.0174821 0.0610526
8.08456e-20 -0.0325185 0.0175 0.0610525
-2.86573e-21 -0.0175185 0.0325122 0.0624565
0 0.0262315 0.02625 0.066882
0 -0.0262685 0.02625 0.0616165
-1.01939e-19 0.0349815 0.0124878 0.0675145
8.08456e-20 0.0274815 0.025 0.0669663
8.08456e-20 0.0249815 0.0275 0.0667911
-3.5491e-20 -0.0250185 0.0275 0.0617325
-1.61559e-27 -0.0350185 0.0124878 0.0608302
3.28979e-21 -0.0275185 0.025 0.0615012
0 0.0124815 0.0350537 0.0655911
2.52373e-20 -0.0125185 0.0350537 0.062953
0 0.0362315 0.00865601 0.0677875
0 0.0287315 0.02375 0.0670403
-1.0842e-19 0.0237315 0.0287506 0.0666904
1.0842e-19 -0.0362685 0.008656 0.0607219
-1.0842e-19 -0.0237685 0.0287506 0.0618472
-1.0842e-19 -0.0287685 0.02375 0.061385
-2.1684e-19 0.0087315 0.036344 0.0651901
1.0842e-19 -0.0087685 0.036344 0.0633347
0 0.0337315 0.0162494 0.0673293
-1.0842e-19 -0.0337685 0.0162494 0.0609359