# pMean  POINT_DATA 42002
# x  y  z  pMean
6.88365e-09 0 0 0.0631862
-1.85079e-05 0 0 0.06319
1.85215e-05 0 0 0.0631825
-1.85078e-05 0 1.73213e-05 0.06319
1.85214e-05 0 1.73212e-05 0.0631825
-0.00125 -1.0842e-19 0.00116943 0.0634369
0.00125 0 0.00116944 0.0629356
-4.9721e-10 0 0.00233917 0.0631786
-0.00248149 0 0 0.0636662
0.0024815 0 0 0.062671
-0.00248149 3.38813e-21 1.73262e-05 0.0636662
0.0024815 0 1.73173e-05 0.062671
0.00250001 0 0 0.0626669
-0.00250001 0 0 0.0636696
0.00251852 0 0 0.062663
-0.00251853 -3.38813e-21 0 0.0636732
0.00251852 0 1.73173e-05 0.062663
-0.00251853 0 1.73262e-05 0.0636732
0.0025 0 0.00233917 0.0626593
-0.0025 0 0.00233917 0.0636625
0.00125 -2.1684e-19 0.00356873 0.06292
-0.00125 0 0.00356873 0.0634218
0.00375 2.1684e-19 0.00116944 0.0623983
-0.00375001 2.1684e-19 0.00116943 0.0639025
-5.29186e-10 -5.64689e-22 0.00479885 0.0631829
0.00498148 0 0 0.0621179
-0.0049815 0 0 0.0641159
0.00498148 0 1.73154e-05 0.0621179
-0.0049815 0 1.73301e-05 0.0641159
0.00499999 -3.38813e-21 0 0.0621137
-0.00500002 3.38813e-21 0 0.0641191
0.0050185 0 0 0.0621095
0.0050185 -3.38813e-21 1.73154e-05 0.0621095
-0.00501854 -3.38813e-21 0 0.0641224
-0.00501854 -3.38813e-21 1.73301e-05 0.0641224
0.00375 0 0.00356872 0.0623832
-0.00375 0 0.00356872 0.0638884
0.0025 5.64689e-22 0.00479884 0.0626725
-0.0025 5.64689e-22 0.00479885 0.0636592
0.005 0 0.00233917 0.0621068
-0.00500001 -1.12938e-21 0.00233917 0.0641126
0.00125 1.0842e-19 0.00608215 0.0629528
-0.00125 1.0842e-19 0.00608215 0.0634372
0.00624999 0 0.00116944 0.0618291
-0.00625001 0 0.00116944 0.0643359
0.005 -1.12938e-21 0.00479884 0.0621294
-0.005 1.12938e-21 0.00479885 0.0641038
-0.00375 -1.0842e-19 0.00608215 0.0638894
0.00375 -2.1684e-19 0.00608215 0.0624344
0.00625 0 0.00356872 0.0618164
-0.00625001 -1.0842e-19 0.00356873 0.0643233
-1.98497e-10 1.12938e-21 0.00736575 0.0632405
-0.00748147 0 0 0.0645361
0.00748148 0 0 0.0615372
-0.00748147 0 1.73322e-05 0.0645361
0.00748148 0 1.73145e-05 0.0615372
0.00749999 0 0 0.0615329
-0.0075 -3.38813e-21 0 0.0645391
0.0075185 0 0 0.0615285
0.0075185 0 1.73145e-05 0.0615285
-0.00751853 0 0 0.0645422
-0.00751853 0 1.73322e-05 0.0645422
-0.0025 5.64689e-22 0.00736575 0.0636946
0.0025 1.69407e-21 0.00736575 0.0627548
0.0075 1.12938e-21 0.00233917 0.0615282
-0.00750001 -5.64689e-22 0.00233917 0.0645334
-0.00625 1.0842e-19 0.00608215 0.0643141
0.00625 1.0842e-19 0.00608215 0.0618845
0.00125 0 0.008656 0.0630592
-0.00125 1.0842e-19 0.00865601 0.0635128
0.00875 1.0842e-19 0.00116943 0.0612366
-0.00875 -2.1684e-19 0.00116943 0.0647424
-0.005 1.12938e-21 0.00736575 0.0641216
0.005 -1.12938e-21 0.00736575 0.0622358
0.0075 5.64689e-22 0.00479884 0.0615602
-0.0075 0 0.00479885 0.0645214
-0.00375 0 0.008656 0.063939
0.00375 0 0.008656 0.0625729
0.00875 -1.0842e-19 0.00356873 0.0612304
-0.00875 2.1684e-19 0.00356873 0.0647318
-4.51345e-11 2.25875e-21 0.00994619 0.0633254
-0.00998147 0 0 0.0649321
-0.00998147 0 1.73338e-05 0.0649321
0.00998149 0 0 0.0609393
0.00998149 3.38813e-21 1.73143e-05 0.0609393
0.01 0 0 0.0609349
-0.01 0 0 0.0649349
0.0100185 0 0 0.0609304
0.0100185 0 1.73143e-05 0.0609304
-0.0100185 3.38813e-21 0 0.0649378
-0.0100185 0 1.73338e-05 0.0649378
-0.0025 0 0.00994619 0.0637545
0.0025 0 0.00994619 0.062868
0.01 1.69407e-21 0.00233917 0.0609346
-0.01 -1.12938e-21 0.00233917 0.0649303
-0.0075 -1.12938e-21 0.00736575 0.0645266
0.0075 1.12938e-21 0.00736575 0.0616857
-0.00875 -1.0842e-19 0.00608215 0.0647161
0.00875 0 0.00608215 0.0613105
-0.00625 0 0.008656 0.0643439
0.00625 0 0.00865601 0.0620518
0.01 5.64689e-22 0.00479884 0.0609752
-0.01 -1.12938e-21 0.00479885 0.0649171
-0.005 5.64689e-22 0.00994619 0.0641616
0.005 0 0.00994619 0.0623768
0.00125 -1.0842e-19 0.011217 0.0631496
-0.00125 0 0.011217 0.0635794
-0.01125 0 0.00116944 0.0651275
0.01125 0 0.00116944 0.0606331
-0.01125 1.0842e-19 0.00356872 0.0651195
0.01125 0 0.00356873 0.0606384
-0.00375 1.0842e-19 0.011217 0.0639865
0.00375 -1.0842e-19 0.011217 0.0626898
-0.00875 0 0.008656 0.0647325
0.00875 2.1684e-19 0.00865601 0.0614965
-0.01 -5.64689e-22 0.00736575 0.0649145
0.01 5.64689e-22 0.00736575 0.0611097
-0.0075 0 0.00994619 0.0645519
0.0075 -1.12938e-21 0.00994619 0.0618478
-0.0124815 -3.38813e-21 0 0.0653088
-0.0124815 0 1.73348e-05 0.0653088
0.0124815 0 0 0.0603361
0.0124815 3.38813e-21 1.73154e-05 0.0603361
-6.39422e-12 0 0.0124877 0.06339
0.0125 0 0 0.0603318
-0.0125 0 0 0.0653115
0.0125185 0 0 0.0603274
0.0125185 0 1.73155e-05 0.0603274
-0.0125185 0 0 0.0653142
-0.0125185 0 1.73348e-05 0.0653142
0.0125 2.25875e-21 0.00233917 0.0603386
-0.0125 -1.12938e-21 0.00233917 0.0653083
-0.0025 -1.12938e-21 0.0124877 0.0638035
0.0025 0 0.0124877 0.0629502
0.01125 1.0842e-19 0.00608215 0.0607226
-0.01125 0 0.00608215 0.0651006
-0.00625 1.0842e-19 0.011217 0.0643768
0.00625 -1.0842e-19 0.011217 0.0621921
0.0125 0 0.00479884 0.0603855
-0.0125 -2.25875e-21 0.00479885 0.0652956
-0.005 -2.25875e-21 0.0124877 0.0641975
0.005 0 0.0124877 0.0624758
0.01375 1.0842e-19 0.00116944 0.0600304
-0.01375 0 0.00116944 0.0654956
0.00125 0 0.0137433 0.0632056
-0.00125 -1.0842e-19 0.0137433 0.0636253
-0.01 0 0.00994619 0.0649294
0.01 -1.69407e-21 0.00994619 0.0612791
-0.01125 0 0.008656 0.0651087
0.01125 -1.0842e-19 0.00865601 0.0609096
0.01375 1.0842e-19 0.00356872 0.0600525
-0.01375 0 0.00356872 0.0654908
-0.00875 0 0.011217 0.0647542
0.00875 0 0.011217 0.0616502
-0.00375 1.0842e-19 0.0137433 0.0640226
0.00375 0 0.0137433 0.0627556
-0.0125 5.64689e-22 0.00736575 0.0652888
0.0125 -1.12938e-21 0.00736575 0.0605138
-0.0075 -2.25875e-21 0.0124877 0.0645772
0.0075 0 0.0124877 0.0619586
-0.0149815 -3.38813e-21 0 0.0656704
-0.0149815 0 1.73342e-05 0.0656704
0.0149815 -3.38813e-21 0 0.0597374
0.0149815 0 1.73189e-05 0.0597374
-5.06531e-13 0 0.0149988 0.0634197
0.015 0 0 0.0597332
-0.015 0 0 0.065673
0.0150185 0 0 0.0597289
0.0150185 -3.38813e-21 1.7319e-05 0.0597289
-0.0150185 0 0 0.0656756
-0.0150185 0 1.73342e-05 0.0656756
0.01375 -1.0842e-19 0.00608215 0.0601294
-0.01375 0 0.00608215 0.0654713
-0.00625 1.0842e-19 0.0137433 0.0644038
0.00625 1.0842e-19 0.0137433 0.0622656
-0.015 5.64689e-22 0.00233917 0.0656716
0.015 0 0.00233917 0.0597487
-0.0025 0 0.0149988 0.0638273
0.0025 0 0.0149988 0.0629855
-0.015 -1.12938e-21 0.00479885 0.0656606
0.015 5.64689e-22 0.00479885 0.0597976
-0.005 0 0.0149988 0.0642157
0.005 0 0.0149988 0.0625154
-0.01125 0 0.011217 0.0651219
0.01125 1.0842e-19 0.011217 0.0610594
-0.0125 5.64689e-22 0.00994619 0.0652967
0.0125 0 0.00994619 0.0606704
-0.01 -1.69407e-21 0.0124877 0.0649464
0.01 0 0.0124877 0.0613912
-0.01375 0 0.008656 0.0654745
0.01375 -1.0842e-19 0.008656 0.060294
0.01625 0 0.00116944 0.0594359
-0.01625 -1.0842e-19 0.00116944 0.0658504
-0.00875 -2.1684e-19 0.0137433 0.0647737
0.00875 1.0842e-19 0.0137433 0.0617263
0.00125 -2.1684e-19 0.0162494 0.0632151
-0.00125 -2.1684e-19 0.0162494 0.063633
-0.01625 0 0.00356872 0.0658494
0.01625 -1.0842e-19 0.00356873 0.0594766
0.00375 0 0.0162494 0.0627657
-0.00375 1.0842e-19 0.0162494 0.0640283
-0.015 -5.64689e-22 0.00736575 0.065652
0.015 -5.64689e-22 0.00736575 0.0599015
-0.0075 0 0.0149988 0.0645907
0.0075 0 0.0149988 0.0619997
0.01625 -1.0842e-19 0.00608215 0.0595327
-0.01625 -2.1684e-19 0.00608215 0.0658308
-0.00625 -1.0842e-19 0.0162494 0.0644081
0.00625 2.1684e-19 0.0162494 0.0622748
-0.0174815 0 0 0.0660198
0.0174815 3.38813e-21 0 0.0591467
-0.0174815 0 1.73322e-05 0.0660198
0.0174815 0 1.73268e-05 0.0591467
-1.03926e-14 0 0.0175 0.0634126
0.0175 0 0 0.0591425
-0.0175 -3.38813e-21 0 0.0660224
0.0175185 3.38813e-21 0 0.0591382
-0.0175185 0 0 0.0660249
0.0175185 0 1.7327e-05 0.0591382
-0.0175185 3.38813e-21 1.73322e-05 0.0660249
-0.0175 5.64689e-22 0.00233917 0.0660229
0.0175 5.64689e-22 0.00233917 0.0591665
-0.0125 -1.69407e-21 0.0124877 0.0653078
0.0125 0 0.0124877 0.0607684
0.0025 0 0.0175 0.0629761
-0.0025 0 0.0175 0.0638219
-0.01375 -1.0842e-19 0.011217 0.0654817
0.01375 -1.0842e-19 0.011217 0.0604178
-0.01125 -2.1684e-19 0.0137433 0.0651358
0.01125 0 0.0137433 0.0611285
-0.015 5.64689e-22 0.00994619 0.0656556
0.015 1.69407e-21 0.00994619 0.060022
-0.01 0 0.0149988 0.0649563
0.01 0 0.0149988 0.0614291
-0.0175 -1.12938e-21 0.00479885 0.0660145
0.0175 0 0.00479886 0.0592106
0.005 0 0.0175 0.062503
-0.005 0 0.0175 0.0642119
-0.01625 1.0842e-19 0.008656 0.0658314
0.01625 1.0842e-19 0.008656 0.05965
0.00875 1.0842e-19 0.0162494 0.0617323
-0.00875 0 0.0162494 0.0647771
-0.01875 0 0.00116943 0.0661943
0.01875 0 0.00116944 0.058849
0.00125 1.0842e-19 0.01875 0.0631894
-0.00125 1.0842e-19 0.01875 0.0636129
-0.0175 0 0.00736575 0.0660055
0.0175 0 0.00736575 0.0592715
0.0075 0 0.0175 0.0619836
-0.0075 0 0.0175 0.0645883
-0.01875 1.0842e-19 0.00356872 0.0661973
0.01875 1.0842e-19 0.00356873 0.0589053
0.00375 1.0842e-19 0.01875 0.062734
-0.00375 -1.0842e-19 0.01875 0.0640135
-0.01375 0 0.0137433 0.0654917
0.01375 1.0842e-19 0.0137433 0.0604675
-0.015 -2.25875e-21 0.0124877 0.0656624
0.015 0 0.0124877 0.0600886
-0.0125 0 0.0149988 0.0653149
0.0125 0 0.0149988 0.0607963
-0.01875 0 0.00608215 0.0661803
0.01875 0 0.00608216 0.0589283
-0.01625 1.0842e-19 0.011217 0.0658346
0.01625 0 0.011217 0.0597256
0.01125 -1.0842e-19 0.0162494 0.0611293
-0.01125 0 0.0162494 0.0651386
0.00625 -1.0842e-19 0.01875 0.0622373
-0.00625 1.0842e-19 0.01875 0.0643977
0.0199815 0 0 0.0585611
0.0199815 0 1.73426e-05 0.0585611
-0.0199815 0 0 0.0663591
-0.0199815 3.38813e-21 1.73298e-05 0.0663591
-1.01899e-14 0 0.02 0.0633772
0.02 0 0 0.0585569
-0.02 0 0 0.0663615
-0.0200185 -3.38813e-21 0 0.066364
-0.0200185 0 1.73298e-05 0.066364
0.0200185 0 0 0.0585526
0.0200185 0 1.73432e-05 0.0585526
-0.0175 -1.12938e-21 0.00994619 0.0660065
0.0175 2.25875e-21 0.00994619 0.0593341
-0.02 5.64689e-22 0.00233917 0.0663639
0.02 1.12938e-21 0.00233917 0.0585866
0.01 0 0.0175 0.0614092
-0.01 0 0.0175 0.0649551
0.0025 0 0.02 0.0629336
-0.0025 0 0.02 0.0637937
-0.02 -1.12938e-21 0.00479885 0.0663582
0.02 0 0.00479886 0.0586175
0.005 0 0.02 0.0624542
-0.005 0 0.02 0.0641903
-0.01875 0 0.008656 0.0661796
0.01875 1.0842e-19 0.00865601 0.0589751
-0.00875 2.1684e-19 0.01875 0.0647703
0.00875 1.0842e-19 0.01875 0.0616902
-0.015 0 0.0149988 0.0656673
0.015 0 0.0149988 0.0600987
0.02125 0 0.00116944 0.0582647
-0.02125 -1.0842e-19 0.00116943 0.0665287
-0.01625 -1.0842e-19 0.0137433 0.0658416
0.01625 1.0842e-19 0.0137433 0.0597432
0.01375 0 0.0162494 0.06046
-0.01375 0 0.0162494 0.0654936
0.00125 1.0842e-19 0.02125 0.0631371
-0.00125 0 0.02125 0.0635695
-0.02 2.25875e-21 0.00736575 0.0663497
0.02 -5.64689e-22 0.00736576 0.0586196
0.0075 0 0.02 0.0619302
-0.0075 0 0.02 0.0645725
-0.0175 -2.25875e-21 0.0124877 0.0660103
0.0175 -5.64689e-22 0.0124877 0.0593541
0.0125 0 0.0175 0.0607728
-0.0125 0 0.0175 0.0653144
0.02125 -1.0842e-19 0.00356874 0.0583283
-0.02125 0 0.00356872 0.0665352
-0.00375 0 0.02125 0.0639789
0.00375 0 0.02125 0.0626741
-0.01875 0 0.011217 0.0661802
0.01875 1.0842e-19 0.011217 0.0589854
-0.01125 2.1684e-19 0.01875 0.0651344
0.01125 0 0.01875 0.0610851
0.02125 0 0.00608216 0.058308
-0.02125 0 0.00608215 0.0665199
0.00625 0 0.02125 0.0621716
-0.00625 0 0.02125 0.0643713
-0.02 0 0.00994619 0.0663491
0.02 5.64689e-22 0.00994619 0.0586078
0.01 0 0.02 0.0613537
-0.01 0 0.02 0.0649437
0.0224814 0 0 0.0579744
0.0224814 3.38813e-21 1.73763e-05 0.0579744
-0.0224815 -3.38813e-21 0 0.0666891
-0.0224815 0 1.73277e-05 0.0666891
0.0225 0 0 0.0579701
-1.01898e-14 0 0.0225 0.0633232
-0.0225 0 0 0.0666915
-0.0225185 0 0 0.0666939
-0.0225185 0 1.73276e-05 0.0666939
0.0225186 3.38813e-21 0 0.0579657
0.0225186 3.38813e-21 1.73774e-05 0.0579657
-0.0225 -1.69407e-21 0.00233917 0.0666954
0.0225 -1.69407e-21 0.00233918 0.0580012
0.0025 0 0.0225 0.0628711
-0.0025 0 0.0225 0.0637491
-0.02125 1.0842e-19 0.008656 0.066519
0.02125 -1.0842e-19 0.00865601 0.058267
0.01625 1.0842e-19 0.0162494 0.0597241
-0.01625 0 0.0162494 0.0658423
0.00875 -1.0842e-19 0.02125 0.0616216
-0.00875 0 0.02125 0.0647505
-0.0225 5.64689e-22 0.00479885 0.0666923
0.0225 5.64689e-22 0.00479887 0.058009
-0.0175 0 0.0149988 0.0660132
0.0175 0 0.0149988 0.0593394
0.015 0 0.0175 0.0600715
-0.015 0 0.0175 0.0656667
0.005 0 0.0225 0.0623854
-0.005 0 0.0225 0.0641548
-0.01875 0 0.0137433 0.0661847
0.01875 -1.0842e-19 0.0137433 0.0589624
-0.01375 0 0.01875 0.0654908
0.01375 0 0.01875 0.0604169
-0.02 -1.69407e-21 0.0124877 0.0663507
0.02 2.82344e-21 0.0124877 0.058572
0.0125 0 0.02 0.0607191
-0.0125 0 0.02 0.065306
-0.0225 1.69407e-21 0.00736575 0.0666845
0.0225 5.64689e-22 0.00736576 0.057941
0.0075 0 0.0225 0.0618583
-0.0075 0 0.0225 0.0645448
0.0237499 -1.0842e-19 0.00116944 0.0576754
-0.02375 0 0.00116943 0.0668544
0.00125 1.0842e-19 0.02375 0.0630721
-0.00125 0 0.02375 0.0635142
0.0237499 -1.0842e-19 0.00356875 0.0577372
-0.02375 1.0842e-19 0.00356873 0.0668636
0.02125 -1.0842e-19 0.011217 0.0582039
-0.02125 1.0842e-19 0.011217 0.0665176
0.01125 0 0.02125 0.0610177
-0.01125 0 0.02125 0.0651195
0.00375 0 0.02375 0.0626012
-0.00375 1.0842e-19 0.02375 0.0639337
0.02375 -1.0842e-19 0.00608218 0.0576618
-0.02375 1.0842e-19 0.00608215 0.0668501
0.00625 1.0842e-19 0.02375 0.0620946
-0.00625 -1.0842e-19 0.02375 0.0643351
0.0225 1.12938e-21 0.00994619 0.0578472
-0.0225 0 0.00994619 0.066683
0.01 0 0.0225 0.0612832
-0.01 0 0.0225 0.0649223
0.0175 0 0.0175 0.059308
-0.0175 0 0.0175 0.0660122
0.01875 0 0.0162494 0.0589279
-0.01875 0 0.0162494 0.0661842
0.01625 0 0.01875 0.0596851
-0.01625 1.0842e-19 0.01875 0.0658401
0.0249812 0 0 0.0573787
0.0249812 0 1.74554e-05 0.0573787
-0.0249815 0 0 0.0670108
-0.0249815 3.38813e-21 1.73258e-05 0.0670108
0.02 0 0.0149988 0.0585276
-0.02 0 0.0149988 0.066352
0.0249999 0 0 0.0573743
-0.015 0 0.02 0.0656604
0.015 0 0.02 0.0600243
-0.025 -3.38813e-21 0 0.0670131
-1.01898e-14 0 0.025 0.0632619
-0.0250185 0 0 0.0670154
-0.0250185 0 1.73257e-05 0.0670154
0.0250186 0 0 0.0573698
0.0250186 3.38813e-21 1.74583e-05 0.0573698
0.0249999 0 0.00233919 0.0574019
-0.025 5.64689e-22 0.00233917 0.0670181
0.0025 0 0.025 0.0628015
-0.0025 0 0.025 0.0636971
0.02375 -1.0842e-19 0.00865602 0.0575269
-0.02375 1.0842e-19 0.008656 0.066849
0.02125 0 0.0137433 0.0581363
-0.02125 0 0.0137433 0.0665202
0.01375 1.0842e-19 0.02125 0.0603566
0.00875 0 0.02375 0.0615454
-0.00875 0 0.02375 0.0647221
-0.01375 1.0842e-19 0.02125 0.0654794
0.0249999 5.64689e-22 0.00479889 0.0573766
-0.025 0 0.00479885 0.0670167
0.005 0 0.025 0.0623101
-0.005 0 0.025 0.0641119
0.0225 5.64689e-22 0.0124877 0.0577527
-0.0225 -5.64689e-22 0.0124877 0.066683
0.0125 0 0.0225 0.0606554
-0.0125 0 0.0225 0.0652894
-0.025 1.12938e-21 0.00736575 0.0670098
0.025 -5.64689e-22 0.00736577 0.0572331
0.0075 0 0.025 0.0617819
-0.0075 0 0.025 0.0645101
-0.02375 0 0.011217 0.0668463
0.02375 0 0.011217 0.0573917
0.0262497 1.0842e-19 0.00116946 0.0570732
-0.02625 0 0.00116943 0.0671718
0.00125 0 0.02625 0.0630052
0.01125 0 0.02375 0.0609479
-0.01125 0 0.02375 0.0650971
-0.00125 1.0842e-19 0.02625 0.063456
0.0262498 -1.0842e-19 0.00356879 0.0571227
-0.02625 -1.0842e-19 0.00356872 0.0671826
-0.01875 1.0842e-19 0.01875 0.0661822
0.00375 0 0.02625 0.0625274
-0.00375 -1.0842e-19 0.02625 0.0638844
0.01875 0 0.01875 0.058895
0.02 0 0.0175 0.0584912
-0.02 0 0.0175 0.0663504
0.0175 0 0.02 0.0592715
-0.0175 0 0.02 0.0660069
0.02125 1.0842e-19 0.0162494 0.0580841
-0.02125 1.0842e-19 0.0162494 0.0665188
0.01625 1.0842e-19 0.02125 0.0596385
-0.01625 0 0.02125 0.0658311
0.025 1.69407e-21 0.00994619 0.05706
-0.025 1.69407e-21 0.00994619 0.0670079
0.01 0 0.025 0.0612114
-0.01 0 0.025 0.0648944
0.0262499 1.0842e-19 0.0060822 0.0569833
-0.02625 2.1684e-19 0.00608215 0.0671705
0.00625 1.0842e-19 0.02625 0.0620173
-0.00625 0 0.02625 0.0642945
0.0225 0 0.0149988 0.0576775
-0.0225 0 0.0149988 0.066683
0.015 0 0.0225 0.0599737
-0.015 0 0.0225 0.0656471
0.02375 -2.1684e-19 0.0137433 0.0572793
-0.02375 1.0842e-19 0.0137433 0.0668478
0.01375 0 0.02375 0.0602994
-0.01375 0 0.02375 0.0654615
0.0274807 -3.38813e-21 0 0.0567664
0.0274807 -3.38813e-21 1.76451e-05 0.0567664
-0.0274815 0 0 0.0673243
-0.0274815 0 1.7324e-05 0.0673243
0.0274996 0 0 0.0567617
-0.0275 0 0 0.0673266
-1.18266e-14 -5.64689e-22 0.0275 0.0632008
0.0275185 -3.38813e-21 0 0.056757
0.0275185 0 1.76516e-05 0.056757
-0.0275185 0 0 0.0673289
-0.0275185 0 1.7324e-05 0.0673289
0.0274996 1.12938e-21 0.00233923 0.056781
-0.0275 -1.12938e-21 0.00233917 0.067332
-0.0025 -5.64689e-22 0.0275 0.0636439
0.0025 0 0.0275 0.0627336
0.02625 1.0842e-19 0.00865603 0.0567602
-0.02625 1.0842e-19 0.008656 0.0671698
-0.00875 -1.0842e-19 0.02625 0.0646886
0.00875 1.0842e-19 0.02625 0.0614705
0.0274998 1.69407e-21 0.00479892 0.0567142
-0.0275 -5.64689e-22 0.00479885 0.0673318
0.025 0 0.0124877 0.0569104
-0.025 0 0.0124877 0.0670068
0.0125 0 0.025 0.0605948
-0.0125 0 0.025 0.0652667
0.005 0 0.0275 0.0622382
-0.005 0 0.0275 0.0640667
0.02 0 0.02 0.0584684
-0.02 0 0.02 0.0663456
0.01875 0 0.02125 0.0588676
0.02125 0 0.01875 0.0580578
-0.01875 0 0.02125 0.0661743
-0.02125 1.0842e-19 0.01875 0.0665166
0.0274999 5.64689e-22 0.00736579 0.0564972
-0.0275 -1.12938e-21 0.00736575 0.0673259
0.0225 0 0.0175 0.0576355
-0.0225 0 0.0175 0.0666809
0.0175 0 0.0225 0.0592405
-0.0175 0 0.0225 0.0659959
0.0075 0 0.0275 0.0617101
-0.0075 0 0.0275 0.0644722
-0.02625 -1.0842e-19 0.011217 0.0671664
0.02625 0 0.011217 0.0565619
0.01125 0 0.02625 0.060882
-0.01125 1.0842e-19 0.02625 0.0650696
0.0287493 1.0842e-19 0.00116949 0.0564502
-0.02875 1.0842e-19 0.00116943 0.0674814
0.02375 1.0842e-19 0.0162494 0.0572104
-0.02375 0 0.0162494 0.0668453
0.01625 1.0842e-19 0.02375 0.0596005
-0.01625 0 0.02375 0.0658163
-0.00125 0 0.0287506 0.0633997
0.00125 0 0.0287506 0.0629423
0.0287494 1.0842e-19 0.00356886 0.0564784
-0.02875 0 0.00356872 0.0674924
0.00375 2.1684e-19 0.0287506 0.0624597
-0.00375 -1.0842e-19 0.0287506 0.0638355
0.025 0 0.0149988 0.056806
-0.025 0 0.0149988 0.0670059
0.015 0 0.025 0.0599309
-0.015 0 0.025 0.0656284
-0.0275 -1.12938e-21 0.00994619 0.067324
0.0275 -5.64689e-22 0.0099462 0.0562558
0.01 0 0.0275 0.0611456
-0.01 0 0.0275 0.0648628
0.0287497 -1.0842e-19 0.00608226 0.05627
-0.02875 0 0.00608215 0.0674817
0.00625 1.0842e-19 0.0287506 0.0619483
-0.00625 -1.0842e-19 0.0287506 0.0642526
0.02625 0 0.0137433 0.056409
-0.02625 0 0.0137433 0.0671669
0.01375 0 0.02625 0.0602498
-0.01375 0 0.02625 0.0654386
0.0299797 0 0 0.0561309
0.0299797 -3.38813e-21 1.80781e-05 0.0561309
-0.0299815 0 0 0.0676301
-0.0299815 0 1.73219e-05 0.0676301
0.029999 0 0 0.0561259
-0.03 0 0 0.0676323
-1.17055e-12 -1.12938e-21 0.0300012 0.0631445
0.0300183 -3.38813e-21 0 0.0561209
0.0300183 0 1.80919e-05 0.0561209
-0.0300185 -3.38813e-21 0 0.0676346
-0.0300185 0 1.73218e-05 0.0676346
0.0287499 1.0842e-19 0.00865605 0.0559747
-0.02875 0 0.008656 0.0674817
0.02125 -1.0842e-19 0.02125 0.0580533
-0.02125 -1.0842e-19 0.02125 0.0665092
0.00875 1.0842e-19 0.0287506 0.0614045
-0.00875 -1.0842e-19 0.0287506 0.0646533
0.029999 0 0.00233931 0.056134
-0.03 0 0.00233917 0.0676377
0.02 0 0.0225 0.0584622
0.0225 0 0.02 0.0576274
-0.02 0 0.0225 0.0663358
-0.0225 0 0.02 0.066676
0.0025 -5.64689e-22 0.0300012 0.0626727
-0.0025 -5.64689e-22 0.0300012 0.0635936
0.0275 -1.12938e-21 0.0124877 0.0560599
-0.0275 0 0.0124877 0.0673223
0.0125 0 0.0275 0.0605416
-0.0125 0 0.0275 0.0652402
-0.01875 2.1684e-19 0.02375 0.0661617
0.01875 1.0842e-19 0.02375 0.0588555
-0.02375 0 0.01875 0.0668427
0.02375 0 0.01875 0.0571898
0.0299995 1.12938e-21 0.00479899 0.0560208
-0.03 2.25875e-21 0.00479885 0.0676381
0.005 0 0.0300012 0.0621749
-0.005 0 0.0300012 0.0640227
-0.025 0 0.0175 0.067003
0.025 0 0.0175 0.0567587
0.0175 0 0.025 0.0592221
-0.0175 0 0.025 0.06598
0.02875 0 0.0112171 0.0557275
-0.02875 0 0.011217 0.0674781
-0.02625 1.0842e-19 0.0162494 0.0671637
0.02625 1.0842e-19 0.0162494 0.0563254
0.01625 0 0.02625 0.059574
-0.01625 0 0.02625 0.0657969
0.01125 0 0.0287506 0.0608253
-0.01125 0 0.0287506 0.0650396
0.0299998 5.64689e-22 0.00736582 0.0557376
-0.03 5.64689e-22 0.00736575 0.0676333
0.0075 0 0.0300012 0.0616482
-0.0075 0 0.0300012 0.0644343
0.0312483 1.0842e-19 0.00116956 0.0558016
-0.03125 1.0842e-19 0.00116944 0.0677833
-0.00125 0 0.0312567 0.063349
0.00125 1.0842e-19 0.0312567 0.062887
-0.0275 0 0.0149988 0.0673206
0.0275 -5.64689e-22 0.0149988 0.0559307
0.015 0 0.0275 0.0598976
-0.015 0 0.0275 0.0656059
0.0312487 1.0842e-19 0.00356898 0.0558061
-0.03125 1.0842e-19 0.00356872 0.0677938
0.00375 0 0.0312567 0.0624016
-0.00375 -1.0842e-19 0.0312567 0.0637901
-0.03 -1.69407e-21 0.00994619 0.0676317
0.03 -5.64689e-22 0.00994621 0.0554448
0.01 0 0.0300012 0.0610899
-0.01 0 0.0300012 0.0648303
0.0225 0 0.0225 0.057649
-0.0225 0 0.0225 0.0666671
0.0312494 0 0.00608236 0.0555254
-0.03125 0 0.00608215 0.0677844
0.02875 -1.0842e-19 0.0137433 0.055542
-0.02875 0 0.0137433 0.0674778
0.02125 0 0.02375 0.0580723
-0.02125 1.0842e-19 0.02375 0.0664981
-0.02375 0 0.02125 0.0668356
0.02375 0 0.02125 0.0572089
0.01375 0 0.0287506 0.0602095
-0.01375 0 0.0287506 0.0654131
0.00625 1.0842e-19 0.0312567 0.0618901
-0.00625 0 0.0312567 0.0642127
0.025 0 0.02 0.0567645
0.02 0 0.025 0.0584738
-0.02 0 0.025 0.066322
-0.025 0 0.02 0.0669981
0.02625 1.0842e-19 0.01875 0.0563091
0.01875 0 0.02625 0.0588583
-0.01875 0 0.02625 0.0661451
-0.02625 -1.0842e-19 0.01875 0.0671605
0.0312498 1.0842e-19 0.00865609 0.0551795
-0.03125 0 0.008656 0.0677852
0.00875 1.0842e-19 0.0312567 0.06135
-0.00875 1.0842e-19 0.0312567 0.0646186
0.0324773 -3.38813e-21 0 0.0554705
0.0324773 0 1.90026e-05 0.0554705
-0.0324815 -3.38813e-21 0 0.0679283
-0.0324815 -3.38813e-21 1.73195e-05 0.0679283
0.03 1.69407e-21 0.0124877 0.0552145
-0.03 0 0.0124877 0.0676295
0.0324976 -3.38813e-21 0 0.0554651
-0.0325 0 0 0.0679304
0.0125 0 0.0300012 0.0604984
-0.0125 0 0.0300012 0.0652124
-1.66453e-11 -1.12938e-21 0.0325123 0.0630951
0.0325179 0 0 0.0554597
0.0325179 -3.38813e-21 1.903e-05 0.0554597
-0.0325185 -3.38813e-21 0 0.0679326
-0.0325185 0 1.73195e-05 0.0679326
0.0324979 -2.82344e-21 0.00233944 0.0554615
-0.0325 -5.64689e-22 0.00233917 0.0679355
0.0275 0 0.0175 0.0558784
-0.0275 0 0.0175 0.0673171
0.0175 0 0.0275 0.059215
-0.0175 0 0.0275 0.0659607
0.0025 -1.12938e-21 0.0325123 0.0626204
-0.0025 0 0.0325123 0.0635483
0.0324988 5.64689e-22 0.00479911 0.0553013
-0.0325 0 0.00479885 0.0679362
0.005 0 0.0325123 0.0621221
-0.005 -1.69407e-21 0.0325123 0.0639823
0.02875 0 0.0162494 0.0554463
-0.02875 0 0.0162494 0.067474
0.01625 1.0842e-19 0.0287506 0.0595571
-0.01625 -1.0842e-19 0.0287506 0.0657749
0.03125 1.0842e-19 0.0112171 0.0548987
-0.03125 -1.0842e-19 0.011217 0.0677816
0.01125 1.0842e-19 0.0312567 0.0607798
-0.01125 0 0.0312567 0.0650096
0.0324996 -1.69407e-21 0.00736589 0.054963
-0.0325 1.69407e-21 0.00736575 0.0679323
0.0075 0 0.0325123 0.0615977
-0.0075 -2.25875e-21 0.0325123 0.0643986
0.03 1.12938e-21 0.0149988 0.0550659
-0.03 0 0.0149988 0.0676272
0.015 0 0.0300012 0.0598732
-0.015 0 0.0300012 0.0655819
0.02375 1.0842e-19 0.02375 0.0572613
-0.02375 0 0.02375 0.0668255
0.0225 0 0.025 0.0576945
0.025 0 0.0225 0.0568139
-0.0225 0 0.025 0.0666547
-0.025 0 0.0225 0.0669897
0.0337462 1.0842e-19 0.00116968 0.0551287
-0.03375 1.0842e-19 0.00116944 0.0680776
0.02625 1.0842e-19 0.02125 0.0563503
0.02125 0 0.02625 0.0581092
-0.02125 0 0.02625 0.0664832
-0.02625 1.0842e-19 0.02125 0.0671536
-0.00125 0 0.0337829 0.0633045
0.00125 -1.0842e-19 0.033783 0.0628397
0.0337473 1.0842e-19 0.00356922 0.0551096
-0.03375 0 0.00356872 0.0680874
0.0324999 0 0.00994623 0.0546368
-0.0325 0 0.00994619 0.0679311
0.00375 -1.0842e-19 0.033783 0.0623533
-0.00375 -1.0842e-19 0.033783 0.0637496
0.0275 0 0.02 0.0558963
-0.0275 0 0.02 0.0673119
0.02 0 0.0275 0.0584981
-0.02 0 0.0275 0.0663052
0.01 0 0.0325123 0.0610457
-0.01 -2.25875e-21 0.0325123 0.064799
-0.03125 0 0.0137433 0.0677806
0.03125 0 0.0137433 0.0546907
0.01375 0 0.0312567 0.0601789
-0.01375 1.0842e-19 0.0312567 0.0653871
0.0337487 2.1684e-19 0.00608252 0.0547598
-0.03375 0 0.00608215 0.0680791
0.02875 0 0.01875 0.0554327
-0.02875 1.0842e-19 0.01875 0.0674702
0.01875 1.0842e-19 0.0287506 0.0588704
-0.01875 0 0.0287506 0.0661259
0.00625 0 0.033783 0.0618431
-0.00625 -1.0842e-19 0.033783 0.0641765
0.03 0 0.0175 0.0550094
-0.03 0 0.0175 0.0676232
-0.0175 0 0.0300012 0.0659398
0.0175 0 0.0300012 0.0592155
0.0325 0 0.0124877 0.0543838
-0.0325 0 0.0124877 0.0679286
0.0125 0 0.0325123 0.0604654
-0.0125 -1.69407e-21 0.0325123 0.0651851
0.0337496 -1.0842e-19 0.00865618 0.0543866
-0.03375 0 0.008656 0.0680806
0.00875 0 0.033783 0.0613073
-0.00875 1.0842e-19 0.033783 0.0645866
0.0349723 0 0 0.054789
0.0349723 0 2.08402e-05 0.054789
-0.0349815 0 0 0.0682191
-0.0349815 -3.38813e-21 1.73177e-05 0.0682191
0.0349946 0 0 0.0547829
-0.035 0 0 0.0682213
0.0350168 0 0 0.0547768
0.0350169 0 2.08946e-05 0.0547768
-0.0350185 0 0 0.0682234
-0.0350185 -3.38813e-21 1.73177e-05 0.0682234
-1.11306e-10 2.82344e-21 0.0350538 0.0630539
0.0349955 0 0.00233965 0.0547671
-0.035 0 0.00233917 0.0682259
0.0025 2.82344e-21 0.0350538 0.062578
-0.0025 5.64689e-22 0.0350538 0.0635098
0.03125 -1.0842e-19 0.0162494 0.0545848
-0.03125 1.0842e-19 0.0162494 0.0677765
-0.01625 0 0.0312567 0.0657523
0.01625 0 0.0312567 0.0595473
0.0349976 -1.12938e-21 0.00479931 0.0545634
-0.035 1.12938e-21 0.00479884 0.0682268
0.025 0 0.025 0.0568946
-0.025 0 0.025 0.0669784
0.02375 0 0.02625 0.0573353
0.02625 0 0.02375 0.0564352
-0.02625 0 0.02375 0.0671441
-0.02375 0 0.02625 0.0668121
0.005 2.25875e-21 0.0350538 0.06208
-0.005 0 0.0350538 0.063947
0.0275 0 0.0225 0.0559714
-0.0275 0 0.0225 0.0673039
0.0225 0 0.0275 0.0577538
-0.0225 0 0.0275 0.0666398
0.0337499 0 0.0112171 0.054084
-0.03375 0 0.011217 0.0680769
0.01125 1.0842e-19 0.033783 0.0607455
-0.01125 0 0.033783 0.0649813
0.02875 0 0.02125 0.0554929
-0.02875 1.0842e-19 0.02125 0.0674635
0.02125 1.0842e-19 0.0287506 0.0581545
-0.02125 0 0.0287506 0.0664665
0.0349991 -5.64689e-22 0.00736599 0.0541847
-0.035 -5.64689e-22 0.00736575 0.0682236
0.0325 -5.64689e-22 0.0149988 0.0542218
-0.0325 0 0.0149988 0.0679259
-0.015 -5.64689e-22 0.0325123 0.0655581
0.015 -5.64689e-22 0.0325123 0.0598566
0.0075 0 0.0350538 0.0615585
-0.0075 -5.64689e-22 0.0350538 0.0643669
0.03 0 0.02 0.0550373
-0.03 0 0.02 0.0676178
-0.02 0 0.0300012 0.0662869
0.02 0 0.0300012 0.0585285
0.0362421 -1.0842e-19 0.00116989 0.0544373
-0.03625 2.1684e-19 0.00116944 0.0683649
-0.00125 -1.0842e-19 0.036344 0.0632686
0.00125 0 0.036344 0.0628026
0.0349998 5.64689e-22 0.00994626 0.0538407
-0.035 0 0.00994619 0.0682226
0.0362446 -1.0842e-19 0.00356957 0.0543927
-0.03625 0 0.00356872 0.068374
-0.03375 1.0842e-19 0.0137433 0.0680754
0.03375 2.1684e-19 0.0137433 0.0538626
0.03125 0 0.01875 0.0545736
-0.03125 0 0.01875 0.0677721
-0.01875 0 0.0312567 0.066106
0.01875 0 0.0312567 0.0588871
0.01 2.25875e-21 0.0350538 0.0610127
-0.01 0 0.0350538 0.0647709
-0.01375 1.0842e-19 0.033783 0.0653623
0.01375 0 0.033783 0.0601572
0.00375 -2.1684e-19 0.036344 0.0623161
-0.00375 -1.0842e-19 0.036344 0.0637161
0.0362474 1.0842e-19 0.00608279 0.0539865
-0.03625 1.0842e-19 0.00608215 0.0683664
0.00625 2.1684e-19 0.036344 0.0618074
-0.00625 1.0842e-19 0.036344 0.0641457
0.0325 0 0.0175 0.0541623
-0.0325 0 0.0175 0.0679215
-0.0175 0 0.0325123 0.065919
0.0175 -5.64689e-22 0.0325123 0.0592207
0.02625 0 0.02625 0.0565467
-0.02625 0 0.02625 0.0671319
0.035 0 0.0124877 0.053574
-0.035 0 0.0124877 0.06822
0.0275 0 0.025 0.0560858
-0.0275 0 0.025 0.0672935
-0.025 0 0.0275 0.0669651
0.025 0 0.0275 0.0569905
0.0125 2.25875e-21 0.0350538 0.0604422
-0.0125 -5.64689e-22 0.0350538 0.0651603
0.0362491 -1.0842e-19 0.0086563 0.0536053
-0.03625 1.0842e-19 0.008656 0.0683681
0.02875 0 0.02375 0.0556072
-0.02875 0 0.02375 0.0674544
-0.02375 1.0842e-19 0.0287506 0.0667974
0.02375 1.0842e-19 0.0287506 0.0574162
0.00875 2.1684e-19 0.036344 0.0612762
-0.00875 -2.1684e-19 0.036344 0.0645588
0.03375 2.1684e-19 0.0162494 0.0537492
-0.03375 1.0842e-19 0.0162494 0.068071
0.0374628 0 0 0.0540923
0.0374628 0 2.42437e-05 0.0540923
-0.0374815 0 0 0.0685032
-0.0374815 -3.38813e-21 1.7317e-05 0.0685032
-0.01625 -1.0842e-19 0.033783 0.0657306
0.01625 -1.0842e-19 0.033783 0.0595431
0.0374886 -3.38813e-21 0 0.0540852
-0.0375 3.38813e-21 0 0.0685052
0.03 0 0.0225 0.0551349
-0.03 0 0.0225 0.0676101
-0.0225 0 0.0300012 0.0666238
0.0225 -5.64689e-22 0.0300012 0.0578173
0.0375145 3.38813e-21 0 0.054078
0.0375146 0 2.43512e-05 0.054078
-0.0375185 0 0 0.0685073
-0.0375185 0 1.7317e-05 0.0685073
0.037491 -5.64689e-22 0.00233999 0.0540565
-0.0375 -1.12938e-21 0.00233917 0.0685095
-4.73434e-10 1.69407e-21 0.0376343 0.063022
0.0025 5.64689e-22 0.0376343 0.0625457
-0.0025 0 0.0376343 0.0634793
-0.03125 0 0.02125 0.0677655
0.03125 1.0842e-19 0.02125 0.0546498
-0.02125 1.0842e-19 0.0312567 0.0664492
0.02125 -2.1684e-19 0.0312567 0.0582019
0.0374952 5.64689e-22 0.00479962 0.053816
-0.0375 5.64689e-22 0.00479884 0.0685102
0.0362498 0 0.0112171 0.0532884
-0.03625 1.0842e-19 0.011217 0.0683648
0.005 1.12938e-21 0.0376343 0.0620487
-0.005 5.64689e-22 0.0376343 0.0639187
0.01125 0 0.036344 0.0607217
-0.01125 -1.0842e-19 0.036344 0.0649567
0.035 5.64689e-22 0.0149988 0.0534046
-0.035 0 0.0149988 0.0682168
-0.015 0 0.0350538 0.0655363
0.015 -5.64689e-22 0.0350538 0.0598473
0.0325 0 0.02 0.054199
-0.0325 0 0.02 0.0679159
-0.02 0 0.0325123 0.0662687
0.02 1.69407e-21 0.0325123 0.0585601
0.0374982 -1.12938e-21 0.00736614 0.0534126
-0.0375 -5.64689e-22 0.00736575 0.0685074
0.0075 0 0.0376343 0.0615302
-0.0075 0 0.0376343 0.0643411
0.03375 0 0.01875 0.0537414
-0.03375 1.0842e-19 0.01875 0.0680664
-0.01875 -1.0842e-19 0.033783 0.066087
0.01875 0 0.033783 0.0589052
0.0387345 0 0.00117023 0.0537333
-0.03875 1.0842e-19 0.00116944 0.0686456
0.03625 -1.0842e-19 0.0137433 0.0530619
-0.03625 1.0842e-19 0.0137433 0.0683628
0.0374996 0 0.00994631 0.0530618
-0.0375 0 0.00994619 0.0685067
-0.01375 -1.0842e-19 0.036344 0.0653406
0.01375 -1.0842e-19 0.036344 0.0601442
-0.0275 0 0.0275 0.0672816
0.0275 0 0.0275 0.0562181
0.0387397 -1.0842e-19 0.00357009 0.0536622
-0.03875 1.0842e-19 0.00356872 0.0686537