# pMean  POINT_DATA 34169
# x  y  z  pMean
0 -1.85076e-05 6.54374e-09 0.0631844
-1.65436e-24 0.00114845 0 0.0633024
0 0.00123149 0.00116943 0.0633129
0 -0.0012685 0.00116944 0.0630558
-2.58494e-25 -1.85056e-05 0.00219071 0.0631772
0 -1.85055e-05 0.00233887 0.0631767
0 -0.000603648 0.00233887 0.0631155
1.65436e-24 0.00248149 7.47496e-09 0.0634373
0 -0.00251848 9.1726e-09 0.0629226
-2.06683e-20 0.00248149 0.00233887 0.0634299
0 -0.0025185 0.00233887 0.0629152
0 0.00371837 0 0.0635586
0 0.0012315 0.00356873 0.0632976
-1.0842e-19 -0.0012685 0.00356873 0.0630405
0 0.00373149 0.00116943 0.0635617
0 -0.0037685 0.00116944 0.0627894
-4.9658e-20 -1.85024e-05 0.00479858 0.0631809
0 0.00498151 7.6335e-09 0.0636825
0 -0.00501848 1.11264e-08 0.0626522
1.0842e-19 0.0037315 0.00356872 0.0635472
-2.1684e-19 -0.0037685 0.00356872 0.062775
9.26277e-21 0.0024815 0.00479858 0.0634414
7.51248e-26 -0.0025185 0.00479221 0.062913
0 -0.0025185 0.00479858 0.0629129
7.27014e-27 -0.00254754 0.00479858 0.0629098
0 0.0049216 0.00233887 0.0636701
-3.23117e-27 0.0049815 0.00233887 0.063676
0 -0.0050185 0.00233887 0.0626453
3.23117e-27 0.0049815 0.00257695 0.0636779
-1.0842e-19 0.0012315 0.00608215 0.0633286
0 -0.0012685 0.00608215 0.0630574
0 0.0062315 0.00116943 0.0638033
0 -0.0062685 0.00116943 0.0625149
0 0.0049815 0.00479858 0.0636955
5.16988e-26 -0.0050185 0.00479858 0.0626377
-1.0842e-19 0.0037315 0.00608215 0.0635928
-2.1684e-19 -0.0037685 0.00608215 0.0627792
0 0.0062315 0.00356872 0.0637915
0 -0.0062685 0.00356872 0.0625016
1.27958e-19 -1.85008e-05 0.00736572 0.0632384
0 0.00748152 1.05804e-08 0.0639218
0 -0.00751848 1.07668e-08 0.0623743
-2.58494e-26 0.00580956 0.00479858 0.0637782
-3.36443e-20 0.0024815 0.00736572 0.0635171
8.49695e-20 -0.0025185 0.00736572 0.062953
-2.05331e-20 0.0074815 0.00233887 0.0639172
0 -0.0075185 0.00233887 0.0623681
-2.58494e-26 -0.0050185 0.00708651 0.0626595
0 0.0062315 0.00608215 0.0638512
0 -0.0062685 0.00608215 0.0624951
-2.1684e-19 0.0012315 0.008656 0.0634305
-1.0842e-19 -0.0012685 0.00865601 0.0631371
1.0842e-19 0.0087315 0.00116944 0.0640403
0 -0.0087685 0.00116943 0.0622336
0 0.0074815 0.00479858 0.0639453
1.62448e-19 0.0049815 0.00736572 0.0637887
0 -0.0050185 0.00736572 0.0626622
2.58494e-26 -0.0075185 0.00479858 0.0623565
-6.46235e-27 0.00528894 0.00736572 0.0638213
0 0.0037315 0.008656 0.0637164
0 0.0087315 0.00356873 0.0640337
0 -0.0037685 0.008656 0.0628382
-2.1684e-19 -0.0087685 0.00356872 0.062222
1.29247e-26 -0.0075185 0.00648561 0.0623642
-8.08278e-20 -1.85002e-05 0.00994629 0.0633231
1.65436e-24 0.0099815 1.38294e-08 0.0641585
-1.65436e-24 -0.0100185 9.43505e-09 0.0620907
1.00403e-19 0.0024815 0.00994629 0.063621
-8.27181e-25 0.0099815 0.00233887 0.0641572
-7.30726e-20 -0.0025185 0.00994629 0.0630193
-2.06795e-25 -0.0100185 0.00233887 0.0620854
-1.61559e-27 0.0049815 0.00900557 0.0638662
0 0.0074815 0.00736572 0.0640539
0 -0.0075185 0.00736572 0.0623682
-6.46235e-27 -0.00947855 0.00479858 0.0621328
1.0842e-19 0.0087315 0.00608215 0.0641058
0 0.0062315 0.008656 0.0639945
0 -0.0087685 0.00608215 0.0622071
1.0842e-19 -0.0062685 0.008656 0.0625364
0 0.00400269 0.00994629 0.0637973
1.29247e-26 -0.0100185 0.00470539 0.0620718
0 0.0099815 0.00479858 0.0641941
6.46235e-27 -0.0100185 0.00479858 0.0620712
0 0.0049815 0.00994629 0.0639107
6.83146e-20 -0.0050185 0.00994629 0.0627122
0 0.0012315 0.011217 0.0635169
1.0842e-19 -0.0012685 0.011217 0.0632074
0 0.0112315 0.00116943 0.0642767
0 -0.0112685 0.00116944 0.0619478
0 0.0112315 0.00356872 0.0642781
-1.0842e-19 -0.0112685 0.00356873 0.0619382
1.0842e-19 0.0037315 0.011217 0.0638196
2.1684e-19 -0.0037685 0.011217 0.0628941
1.0842e-19 0.0087315 0.008656 0.0642643
-1.0842e-19 -0.0087685 0.00865601 0.0622341
0 0.0099815 0.00736572 0.064314
-5.17539e-20 -0.0100185 0.00736572 0.062073
-1.29247e-26 0.0074815 0.00994629 0.0641907
1.03847e-19 -0.0075185 0.00994629 0.0624042
0 0.0124815 1.62363e-08 0.0643973
-2.40255e-20 -1.85e-05 0.0124878 0.0633877
1.65436e-24 -0.0125185 8.85477e-09 0.0618035
0 0.0124815 0.00233888 0.0644006
0 0.0024815 0.0124878 0.0636965
-2.06795e-25 -0.0125185 0.00233887 0.0617994
-1.2277e-19 -0.0025185 0.0124878 0.0630731
0 0.0112315 0.00608215 0.0643598
0 -0.0112685 0.00608215 0.0619173
1.0842e-19 0.0062315 0.011217 0.0641119
2.01948e-28 0.00299048 0.0124878 0.0637575
-1.0842e-19 -0.0062685 0.011217 0.0625797
0 0.0124815 0.00479858 0.0644455
-7.10858e-26 -0.0125185 0.00470415 0.0617846
-6.46235e-27 -0.0125185 0.00479858 0.061784
0 0.0049815 0.0124878 0.063996
3.68881e-20 -0.0050185 0.0124878 0.0627559
-1.0842e-19 0.0137315 0.00116943 0.064518
2.1684e-19 0.0012315 0.0137433 0.0635708
0 -0.0012685 0.0137433 0.0632553
-1.0842e-19 -0.0137685 0.00116944 0.0616593
1.9387e-26 -0.0130041 0.00479858 0.0617282
-2.58494e-26 0.0099815 0.00994629 0.0644596
-3.84674e-21 -0.0100185 0.00994629 0.0620975
-2.1684e-19 0.0112315 0.008656 0.0645262
-2.1684e-19 0.0137315 0.00356873 0.0645296
1.0842e-19 -0.0112685 0.00865601 0.0619333
1.0842e-19 0.0087315 0.011217 0.0643915
-2.1684e-19 -0.0137685 0.00356872 0.0616523
1.0842e-19 -0.0087685 0.011217 0.0622664
-1.0842e-19 0.0037315 0.0137433 0.0638783
1.0842e-19 -0.0037685 0.0137433 0.0629354
0 0.0124815 0.00736572 0.0645704
-3.59216e-20 -0.0125185 0.00736572 0.0617785
3.23117e-27 0.0074815 0.0124878 0.064283
-1.95644e-20 -0.0075185 0.0124878 0.0624387
0 0.0149815 1.68918e-08 0.0646437
-3.71475e-20 -1.85e-05 0.0149988 0.0634174
-1.0842e-19 0.0137315 0.00608215 0.0646158
0 -0.0150185 9.26868e-09 0.0615148
2.1684e-19 -0.0137685 0.00608215 0.0616278
0 0.0062315 0.0137433 0.0641741
0 -0.0062685 0.0137433 0.0626142
8.27181e-25 0.0149815 0.00233888 0.0646521
2.06795e-25 -0.0150185 0.00233887 0.0615121
1.4527e-19 0.0024815 0.0149988 0.0637287
1.28828e-19 -0.0025185 0.0149988 0.0630995
7.88861e-29 0.00254987 0.0149988 0.063737
0 0.0149815 0.00479858 0.0647028
-5.16988e-26 -0.0150185 0.00479858 0.0614969
0 0.0049815 0.0149988 0.0640298
1.43184e-19 -0.0050185 0.0149988 0.0627786
0 0.0112315 0.011217 0.0646559
-2.1684e-19 -0.0112685 0.011217 0.0619561
-5.16988e-26 0.0124815 0.00994629 0.0647168
0 0.0099815 0.0124878 0.0645546
5.35398e-21 -0.0125185 0.00994629 0.061794
3.33886e-20 -0.0100185 0.0124878 0.0621238
-1.0842e-19 0.0137315 0.008656 0.0647802
0 -0.0137685 0.008656 0.0616357
-1.0842e-19 0.0162315 0.00116944 0.0647693
2.1684e-19 0.0087315 0.0137433 0.0644545
0 0.0012315 0.0162494 0.0635795
1.0842e-19 -0.0012685 0.0162494 0.0632639
0 -0.0087685 0.0137433 0.0622943
-1.0842e-19 -0.0162685 0.00116944 0.0613703
2.58494e-26 -0.0150185 0.00699134 0.0614881
0 0.0162315 0.00356873 0.0647917
0 -0.0162685 0.00356872 0.0613666
-1.0842e-19 0.0037315 0.0162494 0.0638863
-2.1684e-19 -0.0037685 0.0162494 0.0629433
-1.09656e-19 0.0149815 0.00736572 0.0648245
0 -0.0150185 0.00736572 0.0614866
-4.03897e-28 0.0074815 0.0149988 0.0643168
7.17699e-20 -0.0075185 0.0149988 0.0624575
-6.46235e-27 -0.0156476 0.00736572 0.0614141
1.0842e-19 0.0162315 0.00608215 0.0648755
2.1684e-19 -0.0162685 0.00608215 0.0613405
-1.0842e-19 0.0062315 0.0162494 0.0641804
-2.1684e-19 -0.0062685 0.0162494 0.0626212
0 0.0174815 1.67042e-08 0.0649013
-1.91555e-20 -1.85e-05 0.0175 0.0634103
0 -0.0175185 1.03701e-08 0.0612265
0 0.0174815 0.00233888 0.0649146
0 0.0124815 0.0124878 0.0648085
4.1359e-25 -0.0175185 0.00233887 0.0612255
1.58401e-19 0.0024815 0.0175 0.0637189
8.08441e-20 -0.0025185 0.0175 0.0630946
-1.17075e-19 -0.0125185 0.0124878 0.0618133
-2.1684e-19 0.0137315 0.011217 0.0649041
0 0.0112315 0.0137433 0.0647164
1.0842e-19 -0.0137685 0.011217 0.0616506
0 -0.0112685 0.0137433 0.0619782
0 0.0149815 0.00994629 0.0649618
-9.59889e-21 -0.0150185 0.00994629 0.061495
8.07794e-28 0.0099815 0.0149988 0.0645864
-6.56678e-20 -0.0100185 0.0149988 0.0621391
0 0.0174815 0.00479858 0.0649674
0 -0.0175185 0.00479858 0.0612117
-4.57539e-29 0.0049815 0.0174753 0.0640171
-1.57772e-30 0.0049815 0.0175 0.0640169
8.08441e-20 -0.0050185 0.0175 0.0627754
-1.0842e-19 0.0162315 0.008656 0.0650271
1.0842e-19 -0.0162685 0.00865601 0.0613423
2.1684e-19 0.0087315 0.0162494 0.0644583
0 -0.0087685 0.0162494 0.0623003
0 0.0187315 0.00116944 0.0650332
-1.0842e-19 0.0012315 0.01875 0.0635542
0 -0.0012685 0.01875 0.0632435
0 -0.0187685 0.00116943 0.0610827
0 0.0174815 0.00736572 0.065077
0 -0.0175185 0.00736572 0.0611985
-9.15079e-29 0.0074815 0.0174897 0.0643008
-1.57772e-30 0.0074815 0.0175 0.0643007
1.42064e-19 -0.0075185 0.0175 0.062456
-1.0842e-19 0.0187315 0.00356873 0.0650647
-1.0842e-19 -0.0187685 0.00356872 0.0610826
0 0.0037315 0.01875 0.0638558
0 -0.0037685 0.01875 0.0629275
-1.0842e-19 0.0137315 0.0137433 0.0649574
-2.1684e-19 -0.0137685 0.0137433 0.061668
6.46235e-27 0.0149815 0.0124878 0.0650434
0 0.0124815 0.0149988 0.0648359
3.30689e-20 -0.0150185 0.0124878 0.0615085
6.97801e-20 -0.0125185 0.0149988 0.0618255
0 -0.016963 0.00994629 0.0612668
0 0.0187315 0.00608215 0.065139
0 -0.0187685 0.00608215 0.0610566
-1.0842e-19 0.0162315 0.011217 0.0651353
0 0.0112315 0.0162494 0.0647166
1.0842e-19 0.0062315 0.01875 0.0641452
-1.0842e-19 -0.0162685 0.011217 0.0613512
-1.0842e-19 -0.0062685 0.01875 0.0626096
0 -0.0112685 0.0162494 0.0619834
0 0.0199815 1.72687e-08 0.0651714
1.58401e-19 -1.85e-05 0.02 0.063375
0 -0.0200185 1.16628e-08 0.0609402
-5.16988e-26 0.0174815 0.00994629 0.0651949
0 0.0199815 0.00233888 0.0651884
-1.41995e-29 0.0099815 0.0174933 0.0645672
-1.61559e-27 -0.0175185 0.00994629 0.0612016
-1.57772e-30 0.0099815 0.0175 0.0645672
-1.91544e-20 0.0024815 0.02 0.063678
0 -0.0200185 0.00233887 0.0609411
-4.15987e-20 -0.0025185 0.02 0.063065
4.20638e-20 -0.0100185 0.0175 0.0621387
0 0.0199815 0.00479858 0.0652389
-2.06795e-25 -0.0200185 0.00479858 0.0609295
-9.67102e-20 0.0049815 0.02 0.063971
1.58401e-19 -0.0050185 0.02 0.0627514
-1.0842e-19 0.0187315 0.00865601 0.0652666
1.0842e-19 -0.0187685 0.008656 0.0610546
0 0.0087315 0.01875 0.0644191
0 -0.0087685 0.01875 0.0622926
0 0.0149815 0.0149988 0.0650637
4.61343e-20 -0.0150185 0.0149988 0.061518
1.0842e-19 0.0212315 0.00116944 0.0653095
-1.0842e-19 0.0162315 0.0137433 0.0651768
0 0.0137315 0.0162494 0.0649533
0 0.0012315 0.02125 0.0635031
-1.0842e-19 -0.0012685 0.02125 0.063199
0 0.0199815 0.00736572 0.0653274
-1.0842e-19 -0.0162685 0.0137433 0.0613642
0 -0.0137685 0.0162494 0.0616722
0 -0.0212685 0.00116943 0.0607977
0 -0.0200185 0.00736572 0.0609152
8.08456e-20 0.0074815 0.02 0.0642507
8.08456e-20 -0.0075185 0.02 0.0624371
2.01948e-28 -0.0175185 0.0122529 0.0612095
0 0.0174815 0.0124878 0.0652594
0 0.0124815 0.0175 0.0648137
-2.01948e-28 -0.0175185 0.0124878 0.0612103
8.08456e-20 -0.0125185 0.0175 0.0618259
0 0.0212315 0.00356873 0.0653469
0 -0.0212685 0.00356872 0.0608016
0 0.0037315 0.02125 0.0637991
-1.0842e-19 -0.0037685 0.02125 0.0628898
1.0842e-19 0.0187315 0.011217 0.0653503
0 0.0112315 0.01875 0.0646748
0 -0.0187685 0.011217 0.0610583
0 -0.0112685 0.01875 0.0619785
1.00974e-28 -0.0181344 0.0124878 0.0611386
0 0.0212315 0.00608215 0.0654059
0 -0.0212685 0.00608215 0.060777
0 0.0062315 0.02125 0.0640839
0 -0.0062685 0.02125 0.0625786
0 0.0199815 0.00994629 0.0654164
-1.91544e-20 0.0099815 0.02 0.0645145
-6.46235e-27 -0.0200185 0.00994629 0.0609144
3.28979e-21 -0.0100185 0.02 0.0621244
-3.30872e-24 0.0224815 1.82997e-08 0.0654526
-1.91544e-20 -1.85e-05 0.0225 0.063321
-1.65436e-24 -0.0225185 1.24017e-08 0.0606573
8.27181e-25 0.0224815 0.00233888 0.0654719
8.08456e-20 0.0024815 0.0225 0.0636179
0 -0.0225185 0.00233887 0.0606602
5.84013e-20 -0.0025185 0.0225 0.063018
1.0842e-19 0.0212315 0.008656 0.0654985
-1.0842e-19 -0.0212685 0.008656 0.0607725
0 0.0162315 0.0162494 0.0651676
-1.0842e-19 0.0087315 0.02125 0.0643547
0 0.0224815 0.00479858 0.0655156
1.0842e-19 -0.0087685 0.02125 0.0622676
0 -0.0162685 0.0162494 0.0613675
2.06795e-25 -0.0225185 0.00479858 0.0606515
-1.41995e-28 0.0149815 0.0174942 0.065039
0 0.0174815 0.0149988 0.0652698
8.08456e-20 0.0049815 0.0225 0.0639059
5.84013e-20 -0.0050185 0.0225 0.0627116
8.08443e-20 -0.0150185 0.0175 0.0615189
1.27468e-19 -0.0175185 0.0149988 0.0612172
1.0842e-19 0.0187315 0.0137433 0.065375
1.0842e-19 0.0137315 0.01875 0.0649101
0 -0.0137685 0.01875 0.0616694
0 -0.0187685 0.0137433 0.0610677
0 0.0199815 0.0124878 0.0654575
1.58401e-19 0.0124815 0.02 0.0647603
4.03897e-28 -0.0200185 0.0124878 0.0609192
-3.54881e-20 -0.0125185 0.02 0.0618153
0 0.0224815 0.00736572 0.0655752
0 -0.0225185 0.00736572 0.0606369
-1.91544e-20 0.0074815 0.0225 0.0641826
1.58401e-19 -0.0075185 0.0225 0.0624041
0 0.0237315 0.00116944 0.0655957
0 0.0012315 0.02375 0.0634395
1.0842e-19 -0.0012685 0.02375 0.0631424
1.0842e-19 -0.0237685 0.00116943 0.0605169
0 0.0237315 0.00356873 0.0656362
0 0.0212315 0.011217 0.0655501
0 -0.0237685 0.00356872 0.0605248
0 0.0112315 0.02125 0.0646094
-1.0842e-19 0.0037315 0.02375 0.0637297
-2.1684e-19 -0.0212685 0.011217 0.0607724
-1.0842e-19 -0.0037685 0.02375 0.0628408
0 -0.0112685 0.02125 0.0619589
1.0842e-19 0.0237315 0.00608215 0.0656741
-2.1684e-19 -0.0237685 0.00608215 0.0605022
0 0.0062315 0.02375 0.064011
0 -0.0062685 0.02375 0.0625371
2.58494e-26 0.0224815 0.00994629 0.0656271
-1.91544e-20 0.0099815 0.0225 0.0644457
0 -0.0225185 0.00994629 0.0606334
1.58401e-19 -0.0100185 0.0225 0.0620976
-6.31089e-30 -0.0196434 0.0149988 0.0609677
-4.40184e-28 0.0174815 0.0174936 0.0652432
-3.54802e-20 0.0174815 0.0175 0.0652431
8.08443e-20 -0.0175185 0.0175 0.0612182
0 0.0187315 0.0162494 0.0653601
0 0.0162315 0.01875 0.0651249
1.0842e-19 -0.0162685 0.01875 0.0613663
1.0842e-19 -0.0187685 0.0162494 0.0610696
0 0.0249815 1.76875e-08 0.065742
0 0.0199815 0.0149988 0.0654557
1.58401e-19 0.0149815 0.02 0.064987
-1.91544e-20 -1.85e-05 0.025 0.0632597
-3.54881e-20 -0.0150185 0.02 0.0615111
6.31089e-30 -0.0200185 0.0149988 0.0609237
1.65436e-24 -0.0250185 1.26415e-08 0.0603788
0 0.0249815 0.00233888 0.0657622
-1.91544e-20 0.0024815 0.025 0.0635508
1.58401e-19 -0.0025185 0.025 0.0629634
0 -0.0250185 0.00233887 0.0603837
0 0.0237315 0.00865601 0.0657225
1.0842e-19 0.0212315 0.0137433 0.0655547
1.0842e-19 -0.0237685 0.008656 0.060496
0 0.0137315 0.02125 0.0648467
0 0.0087315 0.02375 0.0642809
0 -0.0087685 0.02375 0.0622332
0 -0.0137685 0.02125 0.0616542
-1.0842e-19 -0.0212685 0.0137433 0.0607784
4.1359e-25 0.0249815 0.00479858 0.0657948
0 -0.0250185 0.00479858 0.0603779
1.58401e-19 0.0049815 0.025 0.0638346
-1.91544e-20 -0.0050185 0.025 0.062664
0 0.0224815 0.0124878 0.0656404
1.58401e-19 0.0124815 0.0225 0.0646935
8.08456e-20 -0.0125185 0.0225 0.0617937
8.07794e-28 -0.0225185 0.0124878 0.060635
-1.03398e-25 0.0249815 0.00736572 0.0658188
5.16988e-26 -0.0250185 0.00736572 0.0603637
1.58401e-19 0.0074815 0.025 0.0641095
8.08456e-20 -0.0075185 0.025 0.0623633
0 0.0237315 0.011217 0.0657373
0 0.0262315 0.00116943 0.0658884
1.0842e-19 0.0112315 0.02375 0.0645377
1.0842e-19 0.0012315 0.02625 0.0633741
0 -0.0012685 0.02625 0.0630827
1.0842e-19 -0.0237685 0.011217 0.060493
-1.0842e-19 -0.0112685 0.02375 0.0619307
0 -0.0200185 0.0170411 0.0609241
0 -0.0262685 0.00116943 0.0602408
0 0.0262315 0.00356873 0.0659294
0 0.0187315 0.01875 0.06532
1.0842e-19 -0.0262685 0.00356872 0.0602525
0 0.0037315 0.02625 0.0636596
0 -0.0037685 0.02625 0.0627875
0 -0.0187685 0.01875 0.0610694
-1.78283e-28 0.0199815 0.017493 0.0654277
-3.54808e-20 0.0199815 0.0175 0.0654276
-9.67102e-20 0.0174815 0.02 0.0651951
3.28979e-21 -0.0175185 0.02 0.0612124
0 -0.0200185 0.0175 0.0609242
1.0842e-19 0.0212315 0.0162494 0.0655332
-1.0842e-19 0.0162315 0.02125 0.0650663
0 -0.0162685 0.02125 0.0613543
0 -0.0212685 0.0162494 0.0607792
0 0.0249815 0.00994629 0.0658284
-1.91544e-20 0.0099815 0.025 0.0643736
-1.29247e-26 -0.0250185 0.00994629 0.0603584
-1.0842e-19 0.0262315 0.00608215 0.0659398
1.58401e-19 -0.0100185 0.025 0.0620631
0 -0.0262685 0.00608215 0.060232
-1.0842e-19 0.0062315 0.02625 0.063938
0 -0.0062685 0.02625 0.0624904
0 0.0224815 0.0149988 0.0656246
-1.91544e-20 0.0149815 0.0225 0.0649253
3.28979e-21 -0.0150185 0.0225 0.0614936
0 -0.0225185 0.0149988 0.0606374
1.0842e-19 0.0237315 0.0137433 0.0657197
0 0.0137315 0.02375 0.0647801
0 -0.0137685 0.02375 0.061631
0 -0.0237685 0.0137433 0.0604963
0 0.0274815 1.36323e-09 0.0660362
1.58401e-19 -1.85e-05 0.0275 0.0631987
1.65436e-24 -0.0275185 1.29131e-08 0.0601056
0 0.0274815 0.00233887 0.0660558
-1.91571e-20 0.0024815 0.0275 0.0634854
1.584e-19 -0.0025185 0.0275 0.0629077
-8.53899e-21 -0.0275185 0.00233886 0.0601121
-2.1684e-19 0.0262315 0.008656 0.0659388
2.1684e-19 -0.0262685 0.008656 0.0602248
1.0842e-19 0.0087315 0.02625 0.064208
0 -0.0087685 0.02625 0.0621926
-5.16988e-26 0.0274815 0.00479858 0.0660728
-3.23117e-27 0.0249815 0.0124878 0.0658118
2.63192e-20 -0.0275185 0.00479858 0.060109
-9.67102e-20 0.0124815 0.025 0.0646255
5.84013e-20 0.0049815 0.0275 0.0637663
-1.91544e-20 -0.0050185 0.0275 0.0626142
1.58401e-19 -0.0125185 0.025 0.0617646
1.61559e-27 -0.0250185 0.0124878 0.0603575
5.16988e-26 0.0278127 0.00479858 0.066109
3.28979e-21 0.0199815 0.02 0.0653859
2.58494e-26 0.0273129 0.00736572 0.0660407
-9.67102e-20 -0.0200185 0.02 0.0609195
0 0.0212315 0.01875 0.0654973
1.0842e-19 0.0187315 0.02125 0.0652691
1.0842e-19 -0.0187685 0.02125 0.0610595
0 -0.0212685 0.01875 0.0607788
-2.58494e-26 0.0274815 0.00708861 0.0660585
-3.15544e-30 -0.0225185 0.0173267 0.0606372
0 0.0274815 0.00736572 0.0660567
-1.21485e-28 0.0224815 0.0174925 0.0655956
-5.16988e-26 -0.0275185 0.00736572 0.0600955
-1.57772e-30 0.0224815 0.0175 0.0655955
-9.67102e-20 0.0174815 0.0225 0.0651413
1.58401e-19 0.0074815 0.0275 0.0640403
4.2064e-20 -0.0075185 0.0275 0.0623194
3.28979e-21 -0.0175185 0.0225 0.061198
-1.57772e-30 -0.0225185 0.0175 0.0606372
0 0.0262315 0.011217 0.0659152
1.0842e-19 0.0112315 0.02625 0.0644678
-1.0842e-19 -0.0262685 0.011217 0.0602199
0 -0.0112685 0.02625 0.0618957
-7.88861e-30 0.0074815 0.0276324 0.0640371
1.0842e-19 0.0287315 0.00116943 0.0661841
0 0.0237315 0.0162494 0.065691
0 0.0162315 0.02375 0.0650079
1.0842e-19 0.0012315 0.0287506 0.0633124
-1.0842e-19 -0.0012685 0.0287506 0.0630253
0 -0.0162685 0.02375 0.061335
0 -0.0237685 0.0162494 0.0604959
1.0842e-19 -0.0287685 0.00116943 0.0599704
1.0842e-19 0.0287315 0.00356873 0.0662221
1.0842e-19 -0.0287685 0.00356872 0.0599848
0 0.0037315 0.0287506 0.0635951
1.0842e-19 -0.0037685 0.0287506 0.0627352
-4.03897e-28 0.0249815 0.0149988 0.0657812
0 0.0274815 0.00969854 0.0660258
3.28979e-21 0.0149815 0.025 0.0648646
-1.91544e-20 -0.0150185 0.025 0.061469
0 -0.0250185 0.0149988 0.060358
0 0.0274815 0.00994629 0.0660225
8.08456e-20 0.0099815 0.0275 0.0643063
-1.29247e-26 -0.0275185 0.00994629 0.060089
8.08456e-20 -0.0100185 0.0275 0.0620246
0 0.0275288 0.00994629 0.0660261
9.30856e-29 0.0099815 0.0275163 0.064306
0 0.0287315 0.00608215 0.0661998
0 -0.0287685 0.00608215 0.0599665
0 0.0062315 0.0287506 0.0638722
1.0842e-19 -0.0062685 0.0287506 0.0624434
0 0.0293435 0.00233887 0.0662741
-1.0842e-19 0.0262315 0.0137433 0.065875
1.0842e-19 0.0137315 0.02625 0.0647165
0 -0.0137685 0.02625 0.0616009
-1.0842e-19 -0.0262685 0.0137433 0.0602209
-1.65436e-24 0.0299815 1.10974e-08 0.0663317
1.09589e-19 -1.85e-05 0.0300012 0.0631424
1.0842e-19 0.0287315 0.008656 0.0661485
-1.65436e-24 -0.0300185 1.29568e-08 0.0598383
1.0842e-19 0.0212315 0.02125 0.065457
0 -0.0287685 0.008656 0.0599589
0 0.0087315 0.0287506 0.0641431
1.0842e-19 -0.0087685 0.0287506 0.0621509
-1.03398e-24 0.0299815 0.00217865 0.0663477
0 -0.0212685 0.02125 0.0607703
0 0.0299815 0.00233887 0.0663489
-1.91544e-20 0.0224815 0.02 0.065562
-3.54881e-20 0.0199815 0.0225 0.0653429
-1.09081e-19 0.0024815 0.0300012 0.0634262
-2.05885e-20 -0.0025185 0.0300012 0.0628553
-5.82335e-21 -0.0300185 0.00233886 0.0598459
6.45119e-20 -0.0200185 0.0225 0.0609072
1.58401e-19 -0.0225185 0.02 0.0606327
-1.61559e-27 0.0274815 0.0124878 0.0659759
3.28979e-21 0.0124815 0.0275 0.0645632
2.24036e-28 0.0124815 0.0275129 0.0645629
-1.91544e-20 -0.0125185 0.0275 0.061731
0 -0.0275185 0.0124878 0.0600863
0 0.0237315 0.01875 0.0656605
1.0842e-19 0.0187315 0.02375 0.0652217
0 -0.0187685 0.02375 0.0610431
-1.0842e-19 -0.0237685 0.01875 0.0604949
2.36834e-20 0.0299815 0.00479858 0.0663464
3.4018e-20 -0.0300185 0.00479858 0.0598449
1.25384e-20 0.0049815 0.0300012 0.0637056
1.22849e-19 -0.0050185 0.0300012 0.0625662
0 0.0249815 0.0174915 0.0657513
-1.57772e-30 0.0249815 0.0175 0.0657512
2.68213e-29 -0.0250185 0.0174512 0.0603568
-3.54881e-20 0.0174815 0.025 0.0650912
-9.67102e-20 -0.0175185 0.025 0.0611769
0 -0.0250185 0.0175 0.0603568
-1.00974e-28 0.00711119 0.0300012 0.0639393
0 0.0287315 0.011217 0.0660879
0 0.0262315 0.0162494 0.0658391
0 0.0162315 0.02625 0.0649541
-1.0842e-19 0.0112315 0.0287506 0.0644065
5.80184e-20 0.0299815 0.00736572 0.0662887
-2.1684e-19 -0.0287685 0.011217 0.0599525
2.1684e-19 -0.0112685 0.0287506 0.061859
0 -0.0162685 0.02625 0.061309
2.1684e-19 -0.0262685 0.0162494 0.0602192
1.03398e-25 -0.0300185 0.00736572 0.0598323
-2.52435e-29 0.0074815 0.0300012 0.06398
6.28265e-20 -0.0075185 0.0300012 0.0622759
-2.1684e-19 0.0312315 0.00116943 0.0664793
0 0.0012315 0.0312567 0.063258
0 -0.0012685 0.0312567 0.0629736
0 -0.0312685 0.00116943 0.0597061
-4.03897e-28 0.0274815 0.0149988 0.0659308
3.28979e-21 0.0149815 0.0275 0.0648104
1.58401e-19 -0.0150185 0.0275 0.0614397
-4.73317e-29 0.0149815 0.0275251 0.06481
-2.01948e-28 -0.0275185 0.0149988 0.0600852
0 0.0287473 0.0124878 0.0660578
1.0842e-19 0.0312315 0.00356873 0.0665107
0 -0.0312685 0.00356872 0.0597225
-1.0842e-19 0.0037315 0.0312567 0.063539
-1.0842e-19 -0.0037685 0.0312567 0.0626869
-1.24835e-19 0.0299815 0.00994629 0.0662125
0 0.0099815 0.0300012 0.0642485
0 -0.0300185 0.00994629 0.0598252
-4.58756e-20 -0.0100185 0.0300012 0.0619857
-9.67102e-20 0.0224815 0.0225 0.0655325
0 0.0312315 0.00608215 0.0664524
3.28979e-21 -0.0225185 0.0225 0.0606218
0 0.0287315 0.0137433 0.0660257
0 -0.0312685 0.00608215 0.0597058
0 0.0237315 0.02125 0.0656331
0 0.0212315 0.02375 0.0654237
0 0.0137315 0.0287506 0.0646618
-1.0842e-19 0.0062315 0.0312567 0.063816
1.0842e-19 -0.0137685 0.0287506 0.0615685
-1.0842e-19 -0.0062685 0.0312567 0.0623989
-1.0842e-19 -0.0212685 0.02375 0.060756
-1.0842e-19 -0.0237685 0.02125 0.0604869
0 -0.0287685 0.0137433 0.059952
8.08456e-20 0.0249815 0.02 0.0657272
6.45119e-20 0.0199815 0.025 0.0653063
3.28979e-21 -0.0200185 0.025 0.0608889
8.08456e-20 -0.0250185 0.02 0.0603521
1.0842e-19 0.0262315 0.01875 0.0658142
0 0.0187315 0.02625 0.065181
1.0842e-19 -0.0187685 0.02625 0.0610206
0 -0.0262685 0.01875 0.0602173
1.0842e-19 0.0312315 0.00865601 0.066354
0 -0.0312685 0.008656 0.0596983
1.0842e-19 0.0087315 0.0312567 0.0640886
0 -0.0087685 0.0312567 0.0621103
0 0.0299815 0.0124878 0.0661377
0 0.0324815 6.81881e-09 0.0666251
0 0.0124815 0.0300012 0.0645104
-4.1359e-25 0.0324815 0.00123728 0.0666321
-4.41356e-20 -0.0125185 0.0300012 0.0616964
3.06077e-20 -1.85e-05 0.0325122 0.063093
0 -0.0300185 0.0124878 0.0598212
-1.65436e-24 -0.0325185 1.24576e-08 0.0595773
1.35199e-19 0.0324815 0.00233888 0.0666383
1.43573e-28 0.0274815 0.01749 0.0659003
0 0.0274815 0.0175 0.0659002
-3.54881e-20 0.0174815 0.0275 0.0650483
2.20881e-29 -0.0275185 0.0174791 0.0600829
0 -0.0325185 0.00233887 0.0595857
8.08408e-20 -0.0175185 0.0275 0.0611512
3.88783e-20 0.0024815 0.0325122 0.0633753
1.16914e-20 -0.0025185 0.0325122 0.0628084
8.08473e-20 -0.0275185 0.0175 0.0600829
1.75834e-20 0.0324815 0.0047986 0.0666135
2.06795e-25 -0.0325185 0.00479858 0.0595861
3.85759e-20 0.0049815 0.0325122 0.0636544
3.62211e-20 -0.0050185 0.0325122 0.0625223
1.0842e-19 0.0287315 0.0162494 0.0659834
0 0.0162315 0.0287506 0.0649092
1.0842e-19 -0.0162685 0.0287506 0.0612802
0 -0.0287685 0.0162494 0.059949
0 0.0312315 0.011217 0.06626
-2.1684e-19 0.0112315 0.0312567 0.0643558
0 -0.0312685 0.011217 0.0596912
-2.1684e-19 -0.0112685 0.0312567 0.0618223
-2.30254e-20 0.0324815 0.00736572 0.0665154
0 -0.0325185 0.00736572 0.0595743
0 0.0073948 0.0325122 0.0639203
4.03897e-28 0.0299815 0.0146113 0.0660881
0 0.0074815 0.0325122 0.0639299
5.61066e-20 -0.0075185 0.0325122 0.0622354
-3.02923e-28 0.0074815 0.0326133 0.0639283
4.03897e-28 0.0299815 0.0149988 0.0660791
0 0.0149815 0.0300012 0.0647655
4.03897e-28 -0.0150185 0.0300012 0.0614088
0 -0.0300185 0.0149988 0.0598189
0 0.0237315 0.02375 0.0656163
0 -0.0237685 0.02375 0.0604739
8.08456e-20 0.0249815 0.0225 0.0657132
6.45119e-20 0.0224815 0.025 0.065512
3.28979e-21 -0.0225185 0.025 0.0606055
3.28979e-21 -0.0250185 0.0225 0.0603419
0 0.0337315 0.00116943 0.0667708
-1.0842e-19 0.0262315 0.02125 0.065801
-1.0842e-19 0.0212315 0.02625 0.0653987
1.0842e-19 -0.0212685 0.02625 0.060736
1.0842e-19 -0.0262685 0.02125 0.0602093
-1.0842e-19 -0.0337685 0.00116943 0.0594485
0 0.0012315 0.033783 0.0632115
0 -0.0012685 0.0337829 0.0629286
-1.0842e-19 0.0337315 0.00356873 0.0667927
-1.0842e-19 -0.0337685 0.00356872 0.0594659
8.10828e-20 0.0324815 0.00994629 0.0664018
0 0.0037315 0.0337829 0.0634922
3.28979e-21 0.0274815 0.02 0.0658862
1.0842e-19 -0.0037685 0.0337829 0.0626442
0 0.0199815 0.0275 0.0652777
0 -0.0325185 0.00994629 0.0595671
0 0.0099815 0.0325122 0.0642013
4.20627e-20 -0.0200185 0.0275 0.0608662
-3.54881e-20 -0.0275185 0.02 0.0600777
4.30448e-20 -0.0100185 0.0325122 0.0619486
0 0.0312315 0.0137433 0.0661774
-1.0842e-19 0.0137315 0.0312567 0.0646174
1.0842e-19 -0.0137685 0.0312567 0.0615356
0 -0.0312685 0.0137433 0.0596894
-5.04871e-29 0.016433 0.0300012 0.0649098
1.0842e-19 0.0337315 0.00608216 0.066697
0 0.0287315 0.01875 0.0659641
1.0842e-19 -0.0337685 0.00608215 0.05945
0 0.0187315 0.0287506 0.0651489
1.0842e-19 -0.0187685 0.0287506 0.060995
-1.0842e-19 -0.0287685 0.01875 0.0599461
0 0.0062315 0.0337829 0.06377
1.0842e-19 -0.0062685 0.033783 0.0623589
0 0.0346215 0 0.0668723
1.68816e-28 0.0299815 0.0174883 0.0660484
6.45159e-20 0.0299815 0.0175 0.0660483
2.48505e-20 0.0174815 0.0300012 0.0650141
1.57772e-29 -0.0300185 0.0174847 0.0598154
-4.80688e-21 -0.0175185 0.0300012 0.0611236
0 -0.0300185 0.0175 0.0598153
4.3716e-20 0.0324815 0.0124878 0.0663022
0 0.0337315 0.00865601 0.066558
5.69964e-20 0.0124815 0.0325122 0.064468
0 -0.0325185 0.0124878 0.0595623
1.34854e-19 -0.0125185 0.0325122 0.0616627
0 -0.0337685 0.00865601 0.0594433
1.0842e-19 0.0087315 0.0337829 0.0640448
0 -0.0087685 0.0337829 0.0620733
0 0.0349815 1.1472e-09 0.0669139
0 -0.0350185 1.15898e-08 0.0593232
-8.37003e-20 -1.85003e-05 0.0350537 0.0630518
3.35174e-20 0.0349815 0.00233889 0.0669221
-4.1359e-25 -0.0350185 0.00233887 0.0593318
-1.68335e-19 0.0024815 0.0350537 0.0633335
3.19886e-20 -0.0025185 0.0350537 0.0627687
0 0.0312315 0.0162494 0.0661299
-1.0842e-19 0.0162315 0.0312567 0.0648735
-1.0842e-19 -0.0162685 0.0312567 0.0612507
0 -0.0312685 0.0162494 0.0596853
-4.19546e-20 0.0349815 0.00479858 0.0668736
-9.67102e-20 0.0249815 0.025 0.0657108
2.06795e-25 -0.0350185 0.00479858 0.0593328
6.45119e-20 -0.0250185 0.025 0.060327
0 0.0262315 0.02375 0.0658023
1.0842e-19 0.0237315 0.02625 0.0656093
8.55341e-20 0.0049815 0.0350537 0.0636131
-6.75119e-20 -0.0050185 0.0350537 0.0624846
1.0842e-19 -0.0237685 0.02625 0.0604559
0 -0.0262685 0.02375 0.0601973
8.08456e-20 0.0274815 0.0225 0.0658886
-9.67102e-20 0.0224815 0.0275 0.0654999
-3.54881e-20 -0.0225185 0.0275 0.0605851
-1.13044e-19 -0.0275185 0.0225 0.0600677
-1.0842e-19 0.0337315 0.011217 0.0664357
-1.0842e-19 -0.0337685 0.011217 0.0594356
0 0.0112315 0.0337829 0.0643158
-1.0842e-19 -0.0112685 0.033783 0.0617882
0 0.0287315 0.02125 0.0659654
0 0.0212315 0.0287506 0.0653819
0 0.0324815 0.0149166 0.0662341
8.95944e-20 0.0349815 0.00736572 0.0667385
1.0842e-19 -0.0212685 0.0287506 0.0607131
1.0842e-19 -0.0287685 0.02125 0.0599379
0 0.0324815 0.0149988 0.0662318
-5.16988e-26 -0.0350185 0.00736572 0.0593217
0 0.0149815 0.0325122 0.0647302
0 -0.0325185 0.0149988 0.0595589
-6.60995e-20 -0.0150185 0.0325122 0.0613783
-1.99102e-20 0.0074815 0.0350537 0.0638901
-3.61791e-21 -0.0075185 0.0350537 0.0622
0 0.00784127 0.0350537 0.0639296
3.28979e-21 0.0299815 0.02 0.066044
-1.99815e-20 0.0199815 0.0300012 0.0652566
-6.02612e-20 -0.0200185 0.0300012 0.0608414
3.28979e-21 -0.0300185 0.02 0.0598093
0 0.0362314 0.00116944 0.0670569
-1.0842e-19 -0.0362685 0.00116943 0.0591979
-8.07794e-28 0.0161197 0.0325122 0.0648477
1.0842e-19 0.0012315 0.036344 0.0631746
-1.0842e-19 -0.0012685 0.036344 0.0628925
4.11191e-21 0.0349815 0.00994629 0.066594
-1.29247e-26 -0.0350185 0.00994629 0.0593147
-1.0842e-19 0.0362315 0.00356874 0.067068
-1.0842e-19 0.0337315 0.0137433 0.0663361
0 0.0312315 0.01875 0.0661157
-1.0842e-19 0.0187315 0.0312567 0.0651245
1.0842e-19 -0.0362685 0.00356872 0.0592153
1.29247e-26 0.0099815 0.0350537 0.0641645
8.43771e-20 -0.0100185 0.0350537 0.0619156
0 -0.0337685 0.0137433 0.0594332
-1.0842e-19 -0.0187685 0.0312567 0.0609683
1.0842e-19 -0.0312685 0.01875 0.059681
0 0.0137315 0.0337829 0.064583
1.0842e-19 -0.0137685 0.0337829 0.0615044
-1.0842e-19 0.0037315 0.036344 0.0634554
0 -0.0037685 0.036344 0.0626095
-1.0842e-19 0.0362315 0.00608216 0.0669349
0 -0.0362685 0.00608215 0.0591999
-1.0842e-19 0.0062315 0.036344 0.0637343
0 -0.0062685 0.036344 0.0623257
0 0.0324815 0.0174854 0.0662012
0 0.0324815 0.0175 0.066201
-1.01991e-19 0.0174815 0.0325122 0.0649882
4.10208e-29 -0.0325185 0.0174821 0.0595541
8.08456e-20 -0.0325185 0.0175 0.059554
-2.86573e-21 -0.0175185 0.0325122 0.0610962
0 0.0262315 0.02625 0.065815
0 -0.0262685 0.02625 0.0601807
-1.01939e-19 0.0349815 0.0124878 0.0664743
8.08456e-20 0.0274815 0.025 0.0659054
8.08456e-20 0.0249815 0.0275 0.0657169
-3.5491e-20 -0.0250185 0.0275 0.0603085
-1.61559e-27 -0.0350185 0.0124878 0.0593094
3.28979e-21 -0.0275185 0.025 0.0600537
0 0.0124815 0.0350537 0.0644358
2.52373e-20 -0.0125185 0.0350537 0.0616323
0 0.0362315 0.00865601 0.0667636
0 0.0287315 0.02375 0.0659856
-1.0842e-19 0.0237315 0.0287506 0.0656096
1.0842e-19 -0.0362685 0.008656 0.0591939
-1.0842e-19 -0.0237685 0.0287506 0.0604353
-1.0842e-19 -0.0287685 0.02375 0.0599261
-2.1684e-19 0.0087315 0.036344 0.0640112
1.0842e-19 -0.0087685 0.036344 0.0620418
0 0.0337315 0.0162494 0.066284
-1.0842e-19 -0.0337685 0.0162494 0.0594277