# UMean  POINT_DATA 34169
# x  y  z  UMean_x  UMean_y  UMean_z
0 -1.85076e-05 6.54374e-09 3.44614e-07 -4.18341e-07 -4.1512e-09
-1.65436e-24 0.00114845 0 0 0 0
0 0.00123149 0.00116943 0.0960615 -0.114073 -0.00125323
0 -0.0012685 0.00116944 0.0958664 -0.115077 -0.0011541
-2.58494e-25 -1.85056e-05 0.00219071 0.10326 -0.13291 -0.00299168
0 -1.85055e-05 0.00233887 0.110243 -0.141899 -0.003194
0 -0.000603648 0.00233887 0.110428 -0.142216 -0.00316452
1.65436e-24 0.00248149 7.47496e-09 4.02914e-07 -4.68581e-07 -5.30559e-09
0 -0.00251848 9.1726e-09 4.70496e-07 -5.76437e-07 -4.8779e-09
-2.06683e-20 0.00248149 0.00233887 0.109076 -0.140147 -0.00315365
0 -0.0025185 0.00233887 0.111034 -0.143253 -0.00306802
0 0.00371837 0 0 0 0
0 0.0012315 0.00356873 0.123682 -0.168585 -0.00521407
-1.0842e-19 -0.0012685 0.00356873 0.12582 -0.170736 -0.00521833
0 0.00373149 0.00116943 0.0959005 -0.11267 -0.00128039
0 -0.0037685 0.00116944 0.0953911 -0.115613 -0.000993354
-4.9658e-20 -1.85024e-05 0.00479858 0.126524 -0.177226 -0.00569273
0 0.00498151 7.6335e-09 3.83439e-07 -4.54977e-07 -5.24419e-09
0 -0.00501848 1.11264e-08 5.66607e-07 -6.9922e-07 -4.6558e-09
1.0842e-19 0.0037315 0.00356872 0.12108 -0.166115 -0.00492729
-2.1684e-19 -0.0037685 0.00356872 0.12755 -0.172478 -0.00497014
9.26277e-21 0.0024815 0.00479858 0.123573 -0.175598 -0.00535022
7.51248e-26 -0.0025185 0.00479221 0.129051 -0.178511 -0.00568494
0 -0.0025185 0.00479858 0.129098 -0.178603 -0.00569174
7.27014e-27 -0.00254754 0.00479858 0.129124 -0.178615 -0.00568828
0 0.0049216 0.00233887 0.107509 -0.138135 -0.00293854
-3.23117e-27 0.0049815 0.00233887 0.107471 -0.138086 -0.00293326
0 -0.0050185 0.00233887 0.111517 -0.144141 -0.00280154
3.23117e-27 0.0049815 0.00257695 0.108704 -0.141544 -0.00309829
-1.0842e-19 0.0012315 0.00608215 0.126634 -0.184458 -0.00601571
0 -0.0012685 0.00608215 0.130012 -0.185343 -0.00633657
0 0.0062315 0.00116943 0.0953115 -0.110955 -0.00123601
0 -0.0062685 0.00116943 0.0947227 -0.11565 -0.000790466
0 0.0049815 0.00479858 0.120216 -0.173814 -0.00463831
5.16988e-26 -0.0050185 0.00479858 0.131333 -0.179664 -0.00539393
-1.0842e-19 0.0037315 0.00608215 0.122928 -0.183473 -0.00525187
-2.1684e-19 -0.0037685 0.00608215 0.133078 -0.186058 -0.0062592
0 0.0062315 0.00356872 0.11797 -0.163444 -0.00434294
0 -0.0062685 0.00356872 0.128932 -0.173737 -0.00451334
1.27958e-19 -1.85008e-05 0.00736572 0.130309 -0.187036 -0.00536379
0 0.00748152 1.05804e-08 5.43461e-07 -6.38862e-07 -7.28823e-09
0 -0.00751848 1.07668e-08 5.43826e-07 -6.73797e-07 -3.20779e-09
-2.58494e-26 0.00580956 0.00479858 0.118969 -0.173213 -0.00427981
-3.36443e-20 0.0024815 0.00736572 0.126618 -0.186752 -0.00463184
8.49695e-20 -0.0025185 0.00736572 0.133752 -0.187256 -0.0056521
-2.05331e-20 0.0074815 0.00233887 0.105368 -0.135821 -0.00253196
0 -0.0075185 0.00233887 0.11177 -0.144532 -0.00243087
-2.58494e-26 -0.0050185 0.00708651 0.13634 -0.186537 -0.00553497
0 0.0062315 0.00608215 0.118907 -0.182486 -0.00403121
0 -0.0062685 0.00608215 0.135862 -0.186572 -0.00585189
-2.1684e-19 0.0012315 0.008656 0.130419 -0.189355 -0.00421087
-1.0842e-19 -0.0012685 0.00865601 0.134176 -0.188997 -0.00488906
1.0842e-19 0.0087315 0.00116944 0.0942089 -0.108994 -0.00112662
0 -0.0087685 0.00116943 0.0939553 -0.115197 -0.000571012
0 0.0074815 0.00479858 0.116452 -0.172 -0.00355598
1.62448e-19 0.0049815 0.00736572 0.122693 -0.186465 -0.00343006
0 -0.0050185 0.00736572 0.136952 -0.187376 -0.00555218
2.58494e-26 -0.0075185 0.00479858 0.133278 -0.180366 -0.00486162
-6.46235e-27 0.00528894 0.00736572 0.122187 -0.186439 -0.00322586
0 0.0037315 0.008656 0.126496 -0.189735 -0.00304529
0 0.0087315 0.00356873 0.114323 -0.160717 -0.00346552
0 -0.0037685 0.008656 0.137747 -0.188632 -0.00512122
-2.1684e-19 -0.0087685 0.00356872 0.130026 -0.174477 -0.00390466
1.29247e-26 -0.0075185 0.00648561 0.137646 -0.18497 -0.00504364
-8.08278e-20 -1.85002e-05 0.00994629 0.135484 -0.188625 -0.00318942
1.65436e-24 0.0099815 1.38294e-08 7.02799e-07 -8.20421e-07 -8.78652e-09
-1.65436e-24 -0.0100185 9.43505e-09 4.72703e-07 -5.85811e-07 -1.73674e-09
1.00403e-19 0.0024815 0.00994629 0.131705 -0.189222 -0.00213517
-8.27181e-25 0.0099815 0.00233887 0.102713 -0.133451 -0.00196112
-7.30726e-20 -0.0025185 0.00994629 0.139154 -0.188058 -0.00378489
-2.06795e-25 -0.0100185 0.00233887 0.111871 -0.144429 -0.00199865
-1.61559e-27 0.0049815 0.00900557 0.125975 -0.188632 -0.00163712
0 0.0074815 0.00736572 0.118576 -0.186259 -0.00176961
0 -0.0075185 0.00736572 0.139925 -0.187373 -0.0051386
-6.46235e-27 -0.00947855 0.00479858 0.134612 -0.180619 -0.00431662
1.0842e-19 0.0087315 0.00608215 0.114618 -0.181638 -0.00237418
0 0.0062315 0.008656 0.122448 -0.190177 -0.00138748
0 -0.0087685 0.00608215 0.138401 -0.18686 -0.00519543
1.0842e-19 -0.0062685 0.008656 0.141127 -0.188245 -0.0049746
0 0.00400269 0.00994629 0.129364 -0.18962 -0.00120628
1.29247e-26 -0.0100185 0.00470539 0.134105 -0.179315 -0.00408435
0 0.0099815 0.00479858 0.112308 -0.170309 -0.00213165
6.46235e-27 -0.0100185 0.00479858 0.13498 -0.180689 -0.00416648
0 0.0049815 0.00994629 0.127857 -0.189876 -0.000608582
6.83146e-20 -0.0050185 0.00994629 0.14269 -0.187499 -0.00396864
0 0.0012315 0.011217 0.136799 -0.188473 -0.00135877
1.0842e-19 -0.0012685 0.011217 0.140506 -0.187682 -0.00231324
0 0.0112315 0.00116943 0.0924787 -0.106804 -0.00095834
0 -0.0112685 0.00116944 0.0931874 -0.114309 -0.000360553
0 0.0112315 0.00356872 0.110143 -0.158107 -0.0023234
-1.0842e-19 -0.0112685 0.00356873 0.130899 -0.174684 -0.00320744
1.0842e-19 0.0037315 0.011217 0.133072 -0.189329 5.86195e-05
2.1684e-19 -0.0037685 0.011217 0.144151 -0.186931 -0.00282883
1.0842e-19 0.0087315 0.008656 0.11834 -0.190748 0.000719616
-1.0842e-19 -0.0087685 0.00865601 0.144318 -0.187817 -0.00453108
0 0.0099815 0.00736572 0.11434 -0.186242 0.00029591
-5.17539e-20 -0.0100185 0.00736572 0.142689 -0.18723 -0.00449673
-1.29247e-26 0.0074815 0.00994629 0.123995 -0.19062 0.00136066
1.03847e-19 -0.0075185 0.00994629 0.146074 -0.186931 -0.00381061
0 0.0124815 1.62363e-08 8.10935e-07 -9.44055e-07 -8.90762e-09
-2.40255e-20 -1.85e-05 0.0124878 0.142869 -0.186106 -0.000519298
1.65436e-24 -0.0125185 8.85477e-09 4.40514e-07 -5.43858e-07 -7.81749e-10
0 0.0124815 0.00233888 0.0994561 -0.131062 -0.00124447
0 0.0024815 0.0124878 0.139243 -0.186902 0.00070696
-2.06795e-25 -0.0125185 0.00233887 0.111903 -0.143873 -0.00154838
-1.2277e-19 -0.0025185 0.0124878 0.146497 -0.185341 -0.00131693
0 0.0112315 0.00608215 0.11015 -0.181086 -0.000341441
0 -0.0112685 0.00608215 0.140725 -0.186911 -0.00437604
1.0842e-19 0.0062315 0.011217 0.129379 -0.190264 0.00192299
2.01948e-28 0.00299048 0.0124878 0.138518 -0.187074 0.00104339
-1.0842e-19 -0.0062685 0.011217 0.147698 -0.186201 -0.00296122
0 0.0124815 0.00479858 0.107848 -0.168914 -0.00042702
-7.10858e-26 -0.0125185 0.00470415 0.135544 -0.179218 -0.0033126
-6.46235e-27 -0.0125185 0.00479858 0.136488 -0.180629 -0.00338303
0 0.0049815 0.0124878 0.135679 -0.187747 0.00235944
3.68881e-20 -0.0050185 0.0124878 0.150075 -0.184589 -0.00172164
-1.0842e-19 0.0137315 0.00116943 0.0899765 -0.104337 -0.000735122
2.1684e-19 0.0012315 0.0137433 0.14528 -0.184522 0.00132198
0 -0.0012685 0.0137433 0.148856 -0.183763 0.000262112
-1.0842e-19 -0.0137685 0.00116944 0.0925154 -0.113083 -0.00018068
1.9387e-26 -0.0130041 0.00479858 0.136753 -0.180547 -0.00322749
-2.58494e-26 0.0099815 0.00994629 0.120186 -0.19149 0.00369519
-3.84674e-21 -0.0100185 0.00994629 0.149297 -0.186339 -0.00339496
-2.1684e-19 0.0112315 0.008656 0.114261 -0.191514 0.00318563
-2.1684e-19 0.0137315 0.00356873 0.10549 -0.155816 -0.000973759
1.0842e-19 -0.0112685 0.00865601 0.147325 -0.187336 -0.00388334
1.0842e-19 0.0087315 0.011217 0.125775 -0.191289 0.00416975
-2.1684e-19 -0.0137685 0.00356872 0.131619 -0.174381 -0.00248573
1.0842e-19 -0.0087685 0.011217 0.151118 -0.185475 -0.0027854
-1.0842e-19 0.0037315 0.0137433 0.141787 -0.1853 0.00279495
1.0842e-19 -0.0037685 0.0137433 0.152442 -0.183005 -0.000397979
0 0.0124815 0.00736572 0.110081 -0.186528 0.0026695
-3.59216e-20 -0.0125185 0.00736572 0.145263 -0.186938 -0.00371559
3.23117e-27 0.0074815 0.0124878 0.132233 -0.188654 0.00439132
-1.95644e-20 -0.0075185 0.0124878 0.153558 -0.183835 -0.00179685
0 0.0149815 1.68918e-08 8.22118e-07 -9.59814e-07 -7.26422e-09
-3.71475e-20 -1.85e-05 0.0149988 0.152234 -0.181349 0.00197476
-1.0842e-19 0.0137315 0.00608215 0.105612 -0.180991 0.00196583
0 -0.0150185 9.26868e-09 4.58804e-07 -5.6207e-07 -1.75775e-10
2.1684e-19 -0.0137685 0.00608215 0.142861 -0.186718 -0.00347841
0 0.0062315 0.0137433 0.138441 -0.186112 0.00465005
0 -0.0062685 0.0137433 0.155975 -0.182235 -0.000708087
8.27181e-25 0.0149815 0.00233888 0.0955617 -0.12872 -0.000419386
2.06795e-25 -0.0150185 0.00233887 0.111947 -0.142937 -0.00112031
1.4527e-19 0.0024815 0.0149988 0.148813 -0.181993 0.0031998
1.28828e-19 -0.0025185 0.0149988 0.155701 -0.180677 0.00111175
7.88861e-29 0.00254987 0.0149988 0.148723 -0.18201 0.00324306
0 0.0149815 0.00479858 0.103169 -0.167989 0.00146498
-5.16988e-26 -0.0150185 0.00479858 0.13785 -0.180207 -0.00258231
0 0.0049815 0.0149988 0.145513 -0.182622 0.00478152
1.43184e-19 -0.0050185 0.0149988 0.159146 -0.179968 0.0005804
0 0.0112315 0.011217 0.122327 -0.192404 0.00668754
-2.1684e-19 -0.0112685 0.011217 0.154389 -0.184744 -0.00238855
-5.16988e-26 0.0124815 0.00994629 0.116508 -0.192517 0.00627283
0 0.0099815 0.0124878 0.128962 -0.189622 0.00671039
5.35398e-21 -0.0125185 0.00994629 0.15235 -0.185713 -0.00281217
3.33886e-20 -0.0100185 0.0124878 0.15691 -0.183074 -0.00162186
-1.0842e-19 0.0137315 0.008656 0.110309 -0.19254 0.00587472
0 -0.0137685 0.008656 0.150152 -0.18679 -0.0031238
-1.0842e-19 0.0162315 0.00116944 0.0865365 -0.101492 -0.000465985
2.1684e-19 0.0087315 0.0137433 0.135301 -0.186965 0.00681154
0 0.0012315 0.0162494 0.155718 -0.178836 0.00366635
1.0842e-19 -0.0012685 0.0162494 0.159068 -0.178285 0.00264553
0 -0.0087685 0.0137433 0.159404 -0.181448 -0.000741476
-1.0842e-19 -0.0162685 0.00116944 0.0920282 -0.111642 -4.83948e-05
2.58494e-26 -0.0150185 0.00699134 0.14623 -0.185577 -0.00283569
0 0.0162315 0.00356873 0.100478 -0.154063 0.000503124
0 -0.0162685 0.00356872 0.132255 -0.173617 -0.00179863
-1.0842e-19 0.0037315 0.0162494 0.152454 -0.179322 0.00501294
-2.1684e-19 -0.0037685 0.0162494 0.162425 -0.177662 0.00193426
-1.09656e-19 0.0149815 0.00736572 0.105899 -0.187209 0.00521681
0 -0.0150185 0.00736572 0.147661 -0.186493 -0.00287895
-4.03897e-28 0.0074815 0.0149988 0.142403 -0.18325 0.00667289
7.17699e-20 -0.0075185 0.0149988 0.162511 -0.179226 0.000325728
-6.46235e-27 -0.0156476 0.00736572 0.148225 -0.186344 -0.00267258
1.0842e-19 0.0162315 0.00608215 0.101103 -0.181465 0.00441387
2.1684e-19 -0.0162685 0.00608215 0.144837 -0.186291 -0.0025792
-1.0842e-19 0.0062315 0.0162494 0.149357 -0.179761 0.00666535
-2.1684e-19 -0.0062685 0.0162494 0.165726 -0.176978 0.00149045
0 0.0174815 1.67042e-08 7.83402e-07 -9.23754e-07 -4.73645e-09
-1.91555e-20 -1.85e-05 0.0175 0.162852 -0.175571 0.00400894
0 -0.0175185 1.03701e-08 5.12242e-07 -6.20461e-07 2.06447e-10
0 0.0174815 0.00233888 0.0910239 -0.126484 0.000468012
0 0.0124815 0.0124878 0.125911 -0.190644 0.00918524
4.1359e-25 -0.0175185 0.00233887 0.11208 -0.141717 -0.000747321
1.58401e-19 0.0024815 0.0175 0.15973 -0.175981 0.00513329
8.08441e-20 -0.0025185 0.0175 0.166008 -0.175066 0.00315526
-1.17075e-19 -0.0125185 0.0124878 0.160107 -0.182305 -0.00128098
-2.1684e-19 0.0137315 0.011217 0.119092 -0.193603 0.0093252
0 0.0112315 0.0137433 0.132406 -0.187848 0.00916229
1.0842e-19 -0.0137685 0.011217 0.157494 -0.184 -0.00186025
0 -0.0112685 0.0137433 0.162692 -0.180649 -0.000579901
0 0.0149815 0.00994629 0.113038 -0.19372 0.00893701
-9.59889e-21 -0.0150185 0.00994629 0.155229 -0.185047 -0.00214834
8.07794e-28 0.0099815 0.0149988 0.139537 -0.183884 0.00878534
-6.56678e-20 -0.0100185 0.0149988 0.165759 -0.178459 0.000281104
0 0.0174815 0.00479858 0.0983769 -0.167674 0.00343657
0 -0.0175185 0.00479858 0.139117 -0.179458 -0.00182632
-4.57539e-29 0.0049815 0.0174753 0.156601 -0.17636 0.00650913
-1.57772e-30 0.0049815 0.0175 0.156712 -0.176298 0.00652637
8.08441e-20 -0.0050185 0.0175 0.169139 -0.174476 0.00254917
-1.0842e-19 0.0162315 0.008656 0.10658 -0.193862 0.00862014
1.0842e-19 -0.0162685 0.00865601 0.152805 -0.186174 -0.00233385
2.1684e-19 0.0087315 0.0162494 0.146499 -0.180169 0.00856215
0 -0.0087685 0.0162494 0.168926 -0.176249 0.00125929
0 0.0187315 0.00116944 0.0820736 -0.0982357 -0.00017524
-1.0842e-19 0.0012315 0.01875 0.166828 -0.172765 0.00533718
0 -0.0012685 0.01875 0.16979 -0.172399 0.00438645
0 -0.0187685 0.00116943 0.0918047 -0.11013 2.7952e-05
0 0.0174815 0.00736572 0.101885 -0.188341 0.00778183
0 -0.0175185 0.00736572 0.149902 -0.185899 -0.00205881
-9.15079e-29 0.0074815 0.0174897 0.153825 -0.17656 0.00814812
-1.57772e-30 0.0074815 0.0175 0.153872 -0.176532 0.00815421
1.42064e-19 -0.0075185 0.0175 0.172201 -0.173822 0.00215228
-1.0842e-19 0.0187315 0.00356873 0.0952221 -0.152999 0.0020354
-1.0842e-19 -0.0187685 0.00356872 0.132879 -0.172466 -0.00119381
0 0.0037315 0.01875 0.163915 -0.173002 0.00651643
0 -0.0037685 0.01875 0.172746 -0.171918 0.00365452
-1.0842e-19 0.0137315 0.0137433 0.129779 -0.188741 0.0115563
-2.1684e-19 -0.0137685 0.0137433 0.16582 -0.179845 -0.00030209
6.46235e-27 0.0149815 0.0124878 0.123116 -0.191701 0.0116581
0 0.0124815 0.0149988 0.136947 -0.18452 0.010996
3.30689e-20 -0.0150185 0.0124878 0.163138 -0.181527 -0.000852807
6.97801e-20 -0.0125185 0.0149988 0.168866 -0.17768 0.000379036
0 -0.016963 0.00994629 0.157336 -0.184494 -0.00162573
0 0.0187315 0.00608215 0.0967192 -0.182576 0.00685651
0 -0.0187685 0.00608215 0.146685 -0.185643 -0.00174319
-1.0842e-19 0.0162315 0.011217 0.116123 -0.19487 0.0119103
0 0.0112315 0.0162494 0.143928 -0.180561 0.0106033
1.0842e-19 0.0062315 0.01875 0.16112 -0.173106 0.00791053
-1.0842e-19 -0.0162685 0.011217 0.160424 -0.183239 -0.00128155
-1.0842e-19 -0.0062685 0.01875 0.175655 -0.171349 0.0031172
0 -0.0112685 0.0162494 0.172 -0.175497 0.00118404
0 0.0199815 1.72687e-08 7.69482e-07 -9.24581e-07 -2.10115e-09
1.58401e-19 -1.85e-05 0.02 0.173486 -0.169655 0.00535966
0 -0.0200185 1.16628e-08 5.76869e-07 -6.88796e-07 3.56716e-10
-5.16988e-26 0.0174815 0.00994629 0.109837 -0.195097 0.0115152
0 0.0199815 0.00233888 0.0858858 -0.124422 0.00136926
-1.41995e-29 0.0099815 0.0174933 0.151238 -0.176721 0.00994534
-1.61559e-27 -0.0175185 0.00994629 0.157937 -0.184336 -0.00147643
-1.57772e-30 0.0099815 0.0175 0.151269 -0.176702 0.00994846
-1.91544e-20 0.0024815 0.02 0.170766 -0.169905 0.00635833
0 -0.0200185 0.00233887 0.112371 -0.140328 -0.000450044
-4.15987e-20 -0.0025185 0.02 0.176229 -0.169278 0.00454769
4.20638e-20 -0.0100185 0.0175 0.175168 -0.173126 0.00192006
0 0.0199815 0.00479858 0.0935738 -0.168048 0.00538326
-2.06795e-25 -0.0200185 0.00479858 0.140339 -0.178437 -0.00116295
-9.67102e-20 0.0049815 0.02 0.168116 -0.170012 0.00753928
1.58401e-19 -0.0050185 0.02 0.178957 -0.168798 0.00391165
-1.0842e-19 0.0187315 0.00865601 0.103148 -0.195484 0.0112445
1.0842e-19 -0.0187685 0.008656 0.155295 -0.185487 -0.00157864
0 0.0087315 0.01875 0.158509 -0.173093 0.00947862
0 -0.0087685 0.01875 0.178493 -0.170715 0.00274196
0 0.0149815 0.0149988 0.134643 -0.185143 0.0131605
4.61343e-20 -0.0150185 0.0149988 0.171821 -0.176897 0.000559132
1.0842e-19 0.0212315 0.00116944 0.076629 -0.094638 0.000101252
-1.0842e-19 0.0162315 0.0137433 0.127425 -0.189609 0.0138319
0 0.0137315 0.0162494 0.141662 -0.180939 0.0126603
0 0.0012315 0.02125 0.177401 -0.166864 0.00628632
-1.0842e-19 -0.0012685 0.02125 0.179924 -0.166594 0.00542868
0 0.0199815 0.00736572 0.0981158 -0.189934 0.0102081
-1.0842e-19 -0.0162685 0.0137433 0.16878 -0.179044 2.68165e-05
0 -0.0137685 0.0162494 0.174937 -0.174735 0.00121194
0 -0.0212685 0.00116943 0.0918976 -0.108679 5.18745e-05
0 -0.0200185 0.00736572 0.152011 -0.185167 -0.00131189
8.08456e-20 0.0074815 0.02 0.16559 -0.169972 0.0088783
8.08456e-20 -0.0075185 0.02 0.181646 -0.16824 0.0034309
2.01948e-28 -0.0175185 0.0122529 0.165254 -0.181075 -0.000501578
0 0.0174815 0.0124878 0.120592 -0.19276 0.013963
0 0.0124815 0.0175 0.148941 -0.176827 0.0118105
-2.01948e-28 -0.0175185 0.0124878 0.165999 -0.180743 -0.000402321
8.08456e-20 -0.0125185 0.0175 0.178025 -0.172407 0.00180838
0 0.0212315 0.00356873 0.0898276 -0.152712 0.00356066
0 -0.0212685 0.00356872 0.133558 -0.171027 -0.000701877
0 0.0037315 0.02125 0.174917 -0.166991 0.00729342
-1.0842e-19 -0.0037685 0.02125 0.182454 -0.166203 0.0047211
1.0842e-19 0.0187315 0.011217 0.113446 -0.196167 0.0142693
0 0.0112315 0.01875 0.15614 -0.172985 0.0111496
0 -0.0187685 0.011217 0.163184 -0.182461 -0.000716677
0 -0.0112685 0.01875 0.181248 -0.170045 0.00249475
1.00974e-28 -0.0181344 0.0124878 0.166665 -0.180548 -0.000297625
0 0.0212315 0.00608215 0.0925568 -0.184342 0.00915519
0 -0.0212685 0.00608215 0.148438 -0.184805 -0.00101915
0 0.0062315 0.02125 0.172509 -0.16695 0.00843674
0 -0.0062685 0.02125 0.184972 -0.165722 0.00415381
0 0.0199815 0.00994629 0.10694 -0.196611 0.0138408
-1.91544e-20 0.0099815 0.02 0.163242 -0.169796 0.0103286
-6.46235e-27 -0.0200185 0.00994629 0.160488 -0.183585 -0.000852115
3.28979e-21 -0.0100185 0.02 0.18428 -0.167631 0.00307959
-3.30872e-24 0.0224815 1.82997e-08 7.62607e-07 -9.43868e-07 6.0915e-10
-1.91544e-20 -1.85e-05 0.0225 0.18331 -0.163971 0.00604107
-1.65436e-24 -0.0225185 1.24017e-08 6.16443e-07 -7.23954e-07 2.56351e-10
8.27181e-25 0.0224815 0.00233888 0.0802954 -0.122679 0.00224213
8.08456e-20 0.0024815 0.0225 0.180992 -0.164149 0.00690292
0 -0.0225185 0.00233887 0.112865 -0.138877 -0.000234715
5.84013e-20 -0.0025185 0.0225 0.185661 -0.16367 0.00530308
1.0842e-19 0.0212315 0.008656 0.100052 -0.197354 0.0135842
-1.0842e-19 -0.0212685 0.008656 0.157641 -0.184734 -0.000906334
0 0.0162315 0.0162494 0.13969 -0.181291 0.0145922
-1.0842e-19 0.0087315 0.02125 0.170222 -0.16674 0.00968732
0 0.0224815 0.00479858 0.0888629 -0.16915 0.0072083
1.0842e-19 -0.0087685 0.02125 0.187462 -0.165177 0.00371063
0 -0.0162685 0.0162494 0.177735 -0.173971 0.00129803
2.06795e-25 -0.0225185 0.00479858 0.141563 -0.177209 -0.000621841
-1.41995e-28 0.0149815 0.0174942 0.146908 -0.176916 0.0136227
0 0.0174815 0.0149988 0.132608 -0.185726 0.0151301
8.08456e-20 0.0049815 0.0225 0.178732 -0.164179 0.00787999
5.84013e-20 -0.0050185 0.0225 0.188024 -0.163268 0.00468765
8.08443e-20 -0.0150185 0.0175 0.180766 -0.171675 0.001777
1.27468e-19 -0.0175185 0.0149988 0.174624 -0.176114 0.000772976
1.0842e-19 0.0187315 0.0137433 0.125327 -0.190414 0.0158334
1.0842e-19 0.0137315 0.01875 0.15405 -0.172815 0.0128297
0 -0.0137685 0.01875 0.183912 -0.169353 0.00234258
0 -0.0187685 0.0137433 0.171576 -0.178245 0.000357271
0 0.0199815 0.0124878 0.118333 -0.193775 0.0159465
1.58401e-19 0.0124815 0.02 0.161116 -0.169506 0.0118224
4.03897e-28 -0.0200185 0.0124878 0.1687 -0.179953 2.26407e-05
-3.54881e-20 -0.0125185 0.02 0.186849 -0.166988 0.00283044
0 0.0224815 0.00736572 0.0946471 -0.191944 0.0123565
0 -0.0225185 0.00736572 0.154015 -0.184317 -0.000677025
-1.91544e-20 0.0074815 0.0225 0.176562 -0.164048 0.00895249
1.58401e-19 -0.0075185 0.0225 0.190383 -0.162792 0.00418594
0 0.0237315 0.00116944 0.0705194 -0.0910367 0.000359823
0 0.0012315 0.02375 0.186879 -0.161324 0.00659654
1.0842e-19 -0.0012685 0.02375 0.189038 -0.161104 0.00585276
1.0842e-19 -0.0237685 0.00116943 0.0923235 -0.107388 3.64203e-05
0 0.0237315 0.00356873 0.0844206 -0.153284 0.00501118
0 0.0212315 0.011217 0.11106 -0.197435 0.0162503
0 -0.0237685 0.00356872 0.134346 -0.169401 -0.000334205
0 0.0112315 0.02125 0.168098 -0.166367 0.010999
-1.0842e-19 0.0037315 0.02375 0.184771 -0.161417 0.00743542
-2.1684e-19 -0.0212685 0.011217 0.165788 -0.181673 -0.000210892
-1.0842e-19 -0.0037685 0.02375 0.19123 -0.160778 0.0052098
0 -0.0112685 0.02125 0.189915 -0.164589 0.00337104
1.0842e-19 0.0237315 0.00608215 0.0886967 -0.186726 0.0111906
-2.1684e-19 -0.0237685 0.00608215 0.15013 -0.183806 -0.000435135
0 0.0062315 0.02375 0.182733 -0.16136 0.00835441
0 -0.0062685 0.02375 0.19344 -0.16037 0.0046659
2.58494e-26 0.0224815 0.00994629 0.104351 -0.198191 0.0157721
-1.91544e-20 0.0099815 0.0225 0.174515 -0.16375 0.0100883
0 -0.0225185 0.00994629 0.162899 -0.182797 -0.000312688
1.58401e-19 -0.0100185 0.0225 0.192725 -0.162262 0.00378414
-6.31089e-30 -0.0196434 0.0149988 0.176881 -0.175449 0.000954069
-4.40184e-28 0.0174815 0.0174936 0.145122 -0.176992 0.0152604
-3.54802e-20 0.0174815 0.0175 0.145155 -0.176969 0.0152608
8.08443e-20 -0.0175185 0.0175 0.183386 -0.170933 0.00179259
0 0.0187315 0.0162494 0.137974 -0.1816 0.0162619
0 0.0162315 0.01875 0.152247 -0.172606 0.0144094
1.0842e-19 -0.0162685 0.01875 0.186477 -0.168645 0.00225528
1.0842e-19 -0.0187685 0.0162494 0.180394 -0.173205 0.00140826
0 0.0249815 1.76875e-08 6.79069e-07 -8.76906e-07 3.10907e-09
0 0.0199815 0.0149988 0.130806 -0.186237 0.0167694
1.58401e-19 0.0149815 0.02 0.159235 -0.169133 0.013275
-1.91544e-20 -1.85e-05 0.025 0.19209 -0.1586 0.00618522
-3.54881e-20 -0.0150185 0.02 0.189342 -0.16632 0.00265757
6.31089e-30 -0.0200185 0.0149988 0.17728 -0.175331 0.000986038
1.65436e-24 -0.0250185 1.26415e-08 6.33523e-07 -7.30721e-07 7.35367e-12
0 0.0249815 0.00233888 0.0745453 -0.121525 0.00306035
-1.91544e-20 0.0024815 0.025 0.190086 -0.158746 0.00690519
1.58401e-19 -0.0025185 0.025 0.194142 -0.158348 0.00554497
0 -0.0250185 0.00233887 0.113587 -0.13745 -9.42803e-05
0 0.0237315 0.00865601 0.0972974 -0.199377 0.0155039
1.0842e-19 0.0212315 0.0137433 0.123449 -0.191109 0.0174275
1.0842e-19 -0.0237685 0.008656 0.159867 -0.183924 -0.000347302
0 0.0137315 0.02125 0.166174 -0.16586 0.0123112
0 0.0087315 0.02375 0.180786 -0.161141 0.00933151
0 -0.0087685 0.02375 0.195657 -0.1599 0.00421342
0 -0.0137685 0.02125 0.192319 -0.163967 0.00311339
-1.0842e-19 -0.0212685 0.0137433 0.174217 -0.17745 0.000656898
4.1359e-25 0.0249815 0.00479858 0.0843636 -0.170996 0.00882819
0 -0.0250185 0.00479858 0.142832 -0.175844 -0.000212598
1.58401e-19 0.0049815 0.025 0.188145 -0.158765 0.00769476
-1.91544e-20 -0.0050185 0.025 0.196227 -0.158009 0.0049873
0 0.0224815 0.0124878 0.11631 -0.194691 0.017486
1.58401e-19 0.0124815 0.0225 0.172619 -0.163294 0.0112427
8.08456e-20 -0.0125185 0.0225 0.195039 -0.161691 0.00346604
8.07794e-28 -0.0225185 0.0124878 0.171255 -0.179157 0.000392172
-1.03398e-25 0.0249815 0.00736572 0.0915059 -0.194282 0.0141171
5.16988e-26 -0.0250185 0.00736572 0.155944 -0.183371 -0.000173283
1.58401e-19 0.0074815 0.025 0.186284 -0.158645 0.00853663
8.08456e-20 -0.0075185 0.025 0.198332 -0.1576 0.00450977
0 0.0237315 0.011217 0.108936 -0.198599 0.0177372
0 0.0262315 0.00116943 0.0642512 -0.0879694 0.000622157
1.0842e-19 0.0112315 0.02375 0.178953 -0.160751 0.0103354
1.0842e-19 0.0012315 0.02625 0.195271 -0.15608 0.00645551
0 -0.0012685 0.02625 0.197175 -0.155894 0.00583609
1.0842e-19 -0.0237685 0.011217 0.168256 -0.180871 0.000210489
-1.0842e-19 -0.0112685 0.02375 0.197867 -0.159383 0.00384149
0 -0.0200185 0.0170411 0.184309 -0.171122 0.0016759
0 -0.0262685 0.00116943 0.0930576 -0.106301 8.80984e-07
0 0.0262315 0.00356873 0.0792194 -0.154833 0.0063305
0 0.0187315 0.01875 0.150705 -0.172381 0.0157796
1.0842e-19 -0.0262685 0.00356872 0.135288 -0.167691 -8.38325e-05
0 0.0037315 0.02625 0.193425 -0.156162 0.00713329
0 -0.0037685 0.02625 0.199127 -0.155618 0.00528123
0 -0.0187685 0.01875 0.188938 -0.167914 0.00220864
-1.78283e-28 0.0199815 0.017493 0.143592 -0.177015 0.0166097
-3.54808e-20 0.0199815 0.0175 0.143627 -0.17699 0.0166092
-9.67102e-20 0.0174815 0.02 0.1576 -0.168708 0.0145932
3.28979e-21 -0.0175185 0.02 0.191751 -0.165624 0.00253883
0 -0.0200185 0.0175 0.185888 -0.170176 0.00183091
1.0842e-19 0.0212315 0.0162494 0.136456 -0.181836 0.0175543
-1.0842e-19 0.0162315 0.02125 0.164468 -0.165253 0.0135499
0 -0.0162685 0.02125 0.19466 -0.163315 0.00291905
0 -0.0212685 0.0162494 0.182922 -0.172431 0.00152047
0 0.0249815 0.00994629 0.102043 -0.199742 0.0172057
-1.91544e-20 0.0099815 0.025 0.184518 -0.158373 0.00940698
-1.29247e-26 -0.0250185 0.00994629 0.165196 -0.181977 0.00012336
-1.0842e-19 0.0262315 0.00608215 0.0851912 -0.189629 0.0128717
1.58401e-19 -0.0100185 0.025 0.200446 -0.157136 0.00410631
0 -0.0262685 0.00608215 0.151795 -0.182687 2.67757e-06
-1.0842e-19 0.0062315 0.02625 0.191652 -0.156124 0.00785594
0 -0.0062685 0.02625 0.201113 -0.15527 0.00479228
0 0.0224815 0.0149988 0.129184 -0.186639 0.0179748
-1.91544e-20 0.0149815 0.0225 0.170896 -0.162703 0.0123599
3.28979e-21 -0.0150185 0.0225 0.19731 -0.161083 0.00321582
0 -0.0225185 0.0149988 0.179802 -0.174541 0.00117732
1.0842e-19 0.0237315 0.0137433 0.121743 -0.191649 0.0185249
0 0.0137315 0.02375 0.17725 -0.160198 0.0113254
0 -0.0137685 0.02375 0.200055 -0.158826 0.00353827
0 -0.0237685 0.0137433 0.176724 -0.176652 0.000908997
0 0.0274815 1.36323e-09 4.76968e-08 -6.52001e-08 4.34462e-10
1.58401e-19 -1.85e-05 0.0275 0.199891 -0.153602 0.00595109
1.65436e-24 -0.0275185 1.29131e-08 6.5419e-07 -7.4047e-07 -2.47862e-10
0 0.0274815 0.00233887 0.0690036 -0.121282 0.00380625
-1.91571e-20 0.0024815 0.0275 0.198098 -0.153725 0.00653399
1.584e-19 -0.0025185 0.0275 0.201737 -0.153389 0.0054169
-8.53899e-21 -0.0275185 0.00233886 0.114532 -0.136107 -1.17481e-05
-2.1684e-19 0.0262315 0.008656 0.0948549 -0.201417 0.0169095
2.1684e-19 -0.0262685 0.008656 0.162002 -0.183068 8.67825e-05
1.0842e-19 0.0087315 0.02625 0.189965 -0.155955 0.00860467
0 -0.0087685 0.02625 0.203121 -0.15486 0.00436749
-5.16988e-26 0.0274815 0.00479858 0.0802008 -0.17357 0.0101818
-3.23117e-27 0.0249815 0.0124878 0.114477 -0.195449 0.0185028
2.63192e-20 -0.0275185 0.00479858 0.144176 -0.174408 7.40586e-05
-9.67102e-20 0.0124815 0.025 0.18286 -0.157946 0.0102749
5.84013e-20 0.0049815 0.0275 0.19637 -0.153745 0.00715636
-1.91544e-20 -0.0050185 0.0275 0.203626 -0.153098 0.00493609
1.58401e-19 -0.0125185 0.025 0.202556 -0.156625 0.00376926
1.61559e-27 -0.0250185 0.0124878 0.173686 -0.178352 0.000693346
5.16988e-26 0.0278127 0.00479858 0.0797042 -0.173996 0.010321
3.28979e-21 0.0199815 0.02 0.156188 -0.168258 0.0156854
2.58494e-26 0.0273129 0.00736572 0.0888808 -0.196642 0.0153297
-9.67102e-20 -0.0200185 0.02 0.19407 -0.164898 0.00245726
0 0.0212315 0.01875 0.149372 -0.172143 0.0168413
1.0842e-19 0.0187315 0.02125 0.162981 -0.164593 0.0146341
1.0842e-19 -0.0187685 0.02125 0.196928 -0.162625 0.00277237
0 -0.0212685 0.01875 0.191296 -0.167158 0.00218615
-2.58494e-26 0.0274815 0.00708861 0.0877745 -0.194304 0.0148523
-3.15544e-30 -0.0225185 0.0173267 0.187691 -0.169756 0.0018281
0 0.0274815 0.00736572 0.088691 -0.196813 0.0154174
-1.21485e-28 0.0224815 0.0174925 0.142232 -0.17699 0.0175789
-5.16988e-26 -0.0275185 0.00736572 0.157827 -0.182353 0.000200231
-1.57772e-30 0.0224815 0.0175 0.142271 -0.176961 0.0175777
-9.67102e-20 0.0174815 0.0225 0.169356 -0.16201 0.0133758
1.58401e-19 0.0074815 0.0275 0.194717 -0.153653 0.00780377
4.2064e-20 -0.0075185 0.0275 0.205547 -0.152742 0.00451013
3.28979e-21 -0.0175185 0.0225 0.199524 -0.160433 0.0030198
-1.57772e-30 -0.0225185 0.0175 0.188278 -0.169399 0.00187654
0 0.0262315 0.011217 0.107022 -0.199579 0.0186615
1.0842e-19 0.0112315 0.02625 0.188369 -0.155645 0.00935633
-1.0842e-19 -0.0262685 0.011217 0.170612 -0.180058 0.000540814
0 -0.0112685 0.02625 0.205142 -0.154401 0.00400284
-7.88861e-30 0.0074815 0.0276324 0.195104 -0.153412 0.00775519
1.0842e-19 0.0287315 0.00116943 0.0583606 -0.0859954 0.000890563
0 0.0237315 0.0162494 0.135069 -0.181975 0.0183925
0 0.0162315 0.02375 0.175692 -0.159501 0.0122532
1.0842e-19 0.0012315 0.0287506 0.20269 -0.151295 0.0060068
-1.0842e-19 -0.0012685 0.0287506 0.20443 -0.151139 0.0055059
0 -0.0162685 0.02375 0.202205 -0.158223 0.0032926
0 -0.0237685 0.0162494 0.185332 -0.171637 0.00162189
1.0842e-19 -0.0287685 0.00116943 0.094051 -0.105418 -3.52924e-05
1.0842e-19 0.0287315 0.00356873 0.0744296 -0.157427 0.00747942
1.0842e-19 -0.0287685 0.00356872 0.136403 -0.165984 7.1426e-05
0 0.0037315 0.0287506 0.201008 -0.151362 0.00654028
1.0842e-19 -0.0037685 0.0287506 0.206219 -0.150904 0.00504435
-4.03897e-28 0.0249815 0.0149988 0.127684 -0.186901 0.0186865
0 0.0274815 0.00969854 0.0988863 -0.200739 0.0178295
3.28979e-21 0.0149815 0.025 0.181321 -0.15737 0.0111033
-1.91544e-20 -0.0150185 0.025 0.204645 -0.156068 0.00349102
0 -0.0250185 0.0149988 0.182208 -0.173738 0.00133764
0 0.0274815 0.00994629 0.099969 -0.201156 0.0180856
8.08456e-20 0.0099815 0.0275 0.193148 -0.153441 0.00845765
-1.29247e-26 -0.0275185 0.00994629 0.167403 -0.181128 0.000455262
8.08456e-20 -0.0100185 0.0275 0.207491 -0.15233 0.00413814
0 0.0275288 0.00994629 0.0999332 -0.201178 0.0180917
9.30856e-29 0.0099815 0.0275163 0.193196 -0.153412 0.00845056
0 0.0287315 0.00608215 0.0820604 -0.192896 0.0141404
0 -0.0287685 0.00608215 0.153458 -0.181489 0.000308283
0 0.0062315 0.0287506 0.199395 -0.151333 0.00709584
1.0842e-19 -0.0062685 0.0287506 0.208047 -0.150601 0.00462648
0 0.0293435 0.00233887 0.0652511 -0.121947 0.00429513
-1.0842e-19 0.0262315 0.0137433 0.120154 -0.191998 0.0190852
1.0842e-19 0.0137315 0.02625 0.18687 -0.155189 0.0100827
0 -0.0137685 0.02625 0.20716 -0.153891 0.00369443
-1.0842e-19 -0.0262685 0.0137433 0.179118 -0.175844 0.0011105
-1.65436e-24 0.0299815 1.10974e-08 3.44184e-07 -5.0392e-07 4.96214e-09
1.09589e-19 -1.85e-05 0.0300012 0.206811 -0.149048 0.00546324
1.0842e-19 0.0287315 0.008656 0.0926758 -0.203329 0.0177551
-1.65436e-24 -0.0300185 1.29568e-08 6.64824e-07 -7.3817e-07 -3.95365e-10
1.0842e-19 0.0212315 0.02125 0.161693 -0.163915 0.0154868
0 -0.0287685 0.008656 0.164069 -0.182169 0.000403344
0 0.0087315 0.0287506 0.197858 -0.151201 0.00765848
1.0842e-19 -0.0087685 0.0287506 0.209909 -0.150237 0.00425427
-1.03398e-24 0.0299815 0.00217865 0.0595836 -0.113806 0.00415695
0 -0.0212685 0.02125 0.199118 -0.161895 0.0026619
0 0.0299815 0.00233887 0.0639652 -0.122175 0.00446265
-1.91544e-20 0.0224815 0.02 0.154953 -0.1678 0.0164743
-3.54881e-20 0.0199815 0.0225 0.167995 -0.161252 0.0142243
-1.09081e-19 0.0024815 0.0300012 0.205154 -0.149154 0.00592111