# k  POINT_DATA 28110
# x  y  z  k
0.015557 -1.35525e-20 5.70113e-08 6.86688e-10
-0.015557 1.35525e-20 5.70113e-08 1.74109e-06
-0.015557 -6.77626e-21 0.000135948 1.75416e-06
0.015557 0 0.000135964 6.95666e-10
-0.015557 6.77626e-21 0.000527058 2.12864e-06
0.015557 6.77626e-21 0.000527125 6.90616e-10
-0.015557 1.35525e-20 0.000659558 2.36289e-06
0.015557 -1.35525e-20 0.000659639 6.74808e-10
-0.0155569 0 0.000798557 2.65745e-06
0.015557 0 0.000798637 6.7481e-10
-0.0155569 6.77626e-21 0.00121614 2.85642e-06
0.0155569 0 0.00121623 6.55417e-10
-0.0155569 -6.77626e-21 0.00135476 2.69307e-06
0.0155569 0 0.00135485 6.39749e-10
-0.0156159 0 6.65977e-05 1.74158e-06
0.0156159 -6.77626e-21 6.66114e-05 6.83464e-10
0.015617 -6.77626e-21 5.8671e-08 6.83603e-10
-0.015617 0 5.86705e-08 1.74172e-06
-0.0156133 0 0.000593966 2.24424e-06
0.0156133 -6.77626e-21 0.00059404 6.77211e-10
0.0156101 0 0.000721026 6.69569e-10
-0.0156101 6.77626e-21 0.000720945 2.50583e-06
-0.0155569 -6.77626e-21 0.00150199 2.59062e-06
0.0155569 0 0.00150206 6.3902e-10
-0.0156099 -6.77626e-21 0.00127797 2.77176e-06
0.0156099 6.77626e-21 0.00127806 6.43742e-10
0.0156067 -6.77626e-21 0.00140498 6.35743e-10
-0.0156067 0 0.00140489 2.63701e-06
-0.0156758 -6.77626e-21 6.25738e-08 2.21859e-06
0.0156758 6.77626e-21 6.25741e-08 1.21163e-09
-0.0155569 1.35525e-20 0.00193255 2.83341e-06
0.0155569 0 0.00193257 7.45398e-10
-0.0156643 -2.71051e-20 0.000653593 2.42998e-06
0.0156643 1.35525e-20 0.000653701 8.45462e-10
0.015557 -6.77626e-21 0.002087 8.64029e-10
-0.015557 6.77626e-21 0.002087 3.22464e-06
0.0156581 2.03288e-20 0.00132521 5.59648e-10
-0.0156581 0 0.00132509 2.43601e-06
0.0156109 0 0.00197556 7.78483e-10
-0.0156109 0 0.00197554 2.96736e-06
-0.01562 0 0.00210848 3.15501e-06
0.01562 -6.77626e-21 0.00210848 8.63484e-10
0.0156426 0 0.00205604 8.44924e-10
-0.0156426 6.77626e-21 0.00205603 3.14137e-06
0.0156707 0 0.00197912 7.24801e-10
-0.0156707 -6.77626e-21 0.00197907 2.83253e-06
-0.0156949 0 0.00213398 3.44161e-06
0.0156949 0 0.00213398 1.00393e-09
0.015885 6.77626e-21 7.41484e-08 1.09667e-09
-0.015885 6.77626e-21 7.41473e-08 2.10881e-06
-0.01589 -4.51751e-21 0.00034758 2.0799e-06
0.01589 -3.76459e-22 0.000347688 9.87389e-10
-0.0158834 2.71051e-21 0.000956113 2.78797e-06
0.0158834 -4.51751e-22 0.000956328 7.27236e-10
0.0158471 7.52918e-22 0.00154379 5.23532e-10
-0.0158471 7.52918e-22 0.00154362 2.16043e-06
-0.0158414 1.69407e-21 0.00196386 3.49041e-06
0.0158414 -1.12938e-21 0.00196392 8.36988e-10
-0.015839 0 0.00218308 3.91195e-06
0.015839 -1.35525e-20 0.00218308 1.05965e-09
-0.0159079 -4.06576e-20 0.00220656 4.26108e-06
0.0159079 0 0.00220656 1.40801e-09
-0.0160357 0 0.00166133 2.5737e-06
0.0160357 1.12938e-21 0.00166159 6.43724e-10
-0.0161335 0 1.64555e-05 4.3863e-06
0.0161337 4.23516e-22 1.6266e-05 3.31513e-09
-0.0161343 -4.23516e-22 5.30999e-08 4.39038e-06
0.0161345 0 5.30909e-08 3.31916e-09
-0.0159895 -4.06576e-20 0.00223438 4.65534e-06
0.0159896 0 0.00223438 1.54275e-09
-0.0161453 0 5.24551e-08 4.52383e-06
0.0161479 0 3.0392e-06 3.44564e-09
-0.0161363 -2.25875e-21 0.000658258 3.30365e-06
0.0161363 0 0.00065863 1.70635e-09
-0.016108 0 0.00123662 2.37909e-06
0.0161079 -2.25875e-21 0.00123704 5.69829e-10
-0.0162278 -2.63521e-21 0.00195621 4.61591e-06
0.0162278 7.52918e-22 0.00195641 1.41049e-09
0.0161979 6.77626e-21 0.00230534 1.81217e-09
-0.0161979 0 0.00230537 4.54553e-06
-0.0162561 6.77626e-21 0.00232518 4.5675e-06
0.0162561 6.77626e-21 0.00232518 1.91028e-09
-0.016267 0 0.00230119 4.57008e-06
0.016267 0 0.00230117 1.89658e-09
-0.0162975 1.35525e-20 0.00227122 4.37141e-06
0.0162975 -6.77626e-21 0.00227118 1.7659e-09
-0.0162994 1.35525e-20 0.00233991 4.67274e-06
0.0162994 6.77626e-21 0.00233992 1.88879e-09
0.0164713 -4.51751e-21 0.000318776 5.31533e-09
-0.0164713 9.03502e-21 0.00031848 6.84233e-06
0.0164838 -4.51751e-21 0.000934132 9.76309e-10
-0.0164839 4.51751e-21 0.000933459 2.67161e-06
-0.0165151 2.71051e-20 8.91788e-08 7.43787e-06
0.0165151 0 8.91806e-08 5.72904e-09
0.0164768 -4.51751e-21 0.00151147 5.3856e-10
-0.0164769 9.03502e-21 0.00151089 2.08155e-06
0.0166394 0 9.23357e-08 5.62385e-09
-0.0166394 0 9.23334e-08 8.28989e-06
-0.0165053 0 0.00241002 4.68631e-06
0.0165054 1.35525e-20 0.00241002 1.96471e-09
0.0167038 2.71051e-20 0.000635416 3.25695e-09
-0.0167039 0 0.000634646 5.48938e-06
0.0165943 5.64689e-22 0.00217414 1.83368e-09
-0.0165943 -1.41172e-21 0.00217395 4.2025e-06
0.0167298 0 0.00122679 6.60758e-10
-0.0167299 0 0.00122589 2.0574e-06
0.0166885 0 0.00181391 8.69683e-10
-0.0166886 -2.71051e-20 0.00181341 2.69531e-06
-0.0166608 -1.35525e-20 0.00246303 4.66557e-06
0.016661 0 0.00246306 1.84925e-09
0.0168423 -1.35525e-20 7.0937e-08 6.62321e-09
-0.0168423 1.35525e-20 7.09338e-08 9.98438e-06
0.0169749 -2.25875e-21 0.000303039 7.03875e-09
-0.016975 2.25875e-21 0.000302648 1.06253e-05
-0.0168731 0 0.0022093 3.46986e-06
0.0168731 1.12938e-21 0.00220951 1.29773e-09
0.016996 0 0.000918683 1.13494e-09
-0.0169961 -6.77626e-21 0.000917792 2.22794e-06
0.0168625 -2.03288e-20 0.00253161 1.57338e-09
-0.0168625 0 0.00253162 4.32231e-06
0.0169886 -4.51751e-21 0.00152442 3.24098e-10
-0.0169887 -4.51751e-21 0.00152371 1.23585e-06
0.0170875 0 2.4605e-08 7.92583e-09
-0.0170875 0 2.46021e-08 1.16532e-05
0.0169822 4.51751e-21 0.00199465 5.79109e-10
-0.0169822 0 0.00199427 2.07913e-06
-0.0169516 -9.03502e-21 0.00241979 4.53112e-06
0.0169517 9.03502e-21 0.00241989 1.71317e-09
-0.0169616 -1.35525e-20 0.00256534 4.66853e-06
0.0169617 -2.03288e-20 0.00256538 1.73128e-09
0.0172725 2.71051e-20 0.000609814 4.56627e-09
-0.0172727 0 0.000608963 7.29027e-06
0.017301 2.71051e-20 3.86873e-09 8.67244e-09
-0.0173011 2.71051e-20 3.86453e-09 1.27558e-05
0.0172756 0 0.0012186 6.57344e-10
-0.0172758 5.42101e-20 0.00121766 1.67111e-06
0.0172503 0 0.00183262 7.01853e-10
-0.0172504 2.71051e-20 0.00183214 2.23461e-06
-0.0171625 0 0.00263367 6.9008e-06
0.0171625 0 0.00263369 2.7502e-09
-0.0172627 -3.95282e-21 0.00228337 4.4539e-06
0.0172628 -5.64689e-22 0.00228356 1.6984e-09
0.0175152 -1.35525e-20 3.90438e-09 1.11488e-08
-0.0175152 0 3.90115e-09 1.49794e-05
0.0176166 -6.77626e-21 0.000304265 1.15152e-08
-0.0176168 -4.51751e-21 0.000303958 1.5427e-05
0.0176138 -1.12938e-21 0.000914505 1.92734e-09
-0.0176139 0 0.000913847 3.05395e-06
0.0175986 1.12938e-21 0.00154662 4.40544e-10
-0.0175987 1.12938e-21 0.0015461 1.22738e-06
0.0174824 0 0.00274279 2.93232e-09
-0.0174824 -1.01644e-20 0.0027428 8.16052e-06
-0.0174954 -1.69407e-21 0.00274721 8.21558e-06
0.0174955 3.72694e-20 0.00274726 2.95281e-09
0.0177275 -1.35525e-20 5.30347e-09 1.2608e-08
-0.0177276 4.06576e-20 5.30237e-09 1.68769e-05
-0.0176266 -9.03502e-21 0.00211798 2.92021e-06
0.0176266 2.25875e-21 0.00211823 9.74045e-10
-0.0175733 4.51751e-21 0.00255362 7.71541e-06
0.0175734 -4.51751e-21 0.0025537 2.91274e-09
0.0179395 0 5.36713e-09 1.22049e-08
-0.0179395 0 5.36695e-09 1.7671e-05
0.0179446 -2.71051e-20 0.000602236 6.95574e-09
-0.0179448 -2.71051e-20 0.000601852 1.05004e-05
0.0179404 2.71051e-20 0.00122938 9.93817e-10
-0.0179405 0 0.00122893 2.17628e-06
-0.0179 -2.71051e-20 0.00190852 2.52463e-06
0.0179 -2.71051e-20 0.00190875 1.00905e-09
-0.0177928 0 0.00284873 8.69887e-06
0.0177928 2.71051e-20 0.00284875 3.84532e-09
-0.0179476 2.71051e-20 0.0024258 5.80123e-06
0.0179477 2.71051e-20 0.00242589 2.43642e-09
0.0181451 0 4.40341e-09 1.26999e-08
-0.0181451 0 4.40324e-09 1.92005e-05
-0.0180159 4.06576e-20 0.00292502 9.91479e-06
0.018016 0 0.00292506 4.32898e-09
0.0182715 -2.25875e-21 0.000300999 1.20647e-08
-0.0182716 9.03502e-21 0.000300875 1.86051e-05
0.0182775 -9.03502e-21 0.000913342 2.62194e-09
-0.0182775 -9.03502e-21 0.00091307 4.68371e-06
-0.0182702 -2.25875e-21 0.00156202 1.51814e-06
0.0182702 2.25875e-21 0.00156224 5.85441e-10
-0.0182366 6.77626e-21 0.00214879 2.35692e-06
0.0182366 4.51751e-21 0.00214891 8.23462e-10
0.0181444 -6.77626e-21 0.00296949 4.34197e-09
-0.0181446 -6.77626e-21 0.00296953 9.68306e-06
-0.0181872 9.03502e-22 0.00270867 9.59906e-06
0.0181872 6.77626e-22 0.00270873 4.19118e-09
0.0183921 1.35525e-20 2.43155e-09 1.32654e-08
-0.0183922 1.35525e-20 2.43148e-09 2.05285e-05
-0.0185886 0 1.46532e-09 2.06313e-05
0.0185886 0 1.46539e-09 1.32914e-08
-0.0183446 -1.35525e-20 0.00303802 9.06202e-06
0.0183446 0 0.00303804 4.22379e-09
0.0185996 -2.71051e-20 0.000595038 7.64363e-09
-0.0185997 0 0.000594918 1.24712e-05
-0.0186737 5.80823e-21 0.00129278 2.37133e-06
0.0186737 1.16165e-20 0.00129291 9.67086e-10
-0.0187703 -1.35525e-20 1.23409e-09 2.14112e-05
0.0187703 1.35525e-20 1.23413e-09 1.36477e-08
0.0185175 2.03288e-20 0.00309812 4.27697e-09
-0.0185175 2.03288e-20 0.00309812 8.76826e-06
-0.0187148 -1.35525e-20 0.00187601 1.7013e-06
0.0187148 9.03502e-21 0.00187608 4.63397e-10
-0.0186674 0 0.00253515 5.05654e-06
0.0186674 3.01167e-21 0.00253519 2.10165e-09
0.018823 4.51751e-21 0.000903657 2.88444e-09
-0.018823 -4.51751e-21 0.00090356 5.66551e-06
0.0188705 -4.51751e-21 0.0002483 1.2927e-08
-0.0188706 -2.25875e-21 0.000248266 2.06487e-05
-0.0186437 0 0.002939 8.75572e-06
0.0186438 0 0.00293906 4.28275e-09
-0.0189391 0 0.00154412 1.55337e-06
0.0189391 0 0.00154419 5.18718e-10
0.0187701 -9.74088e-21 0.00318665 3.88451e-09
-0.0187699 1.43996e-20 0.00318654 8.39027e-06
0.0188367 -1.35525e-20 0.00285269 3.22477e-09
-0.0188367 -1.35525e-20 0.00285269 7.09085e-06
0.0190684 0 6.42265e-10 1.37005e-08
-0.0190684 1.35525e-20 6.42229e-10 2.21812e-05
-0.018947 0 0.00220299 1.95663e-06
0.018947 2.71051e-20 0.00220303 3.7943e-10
-0.0189611 6.77626e-21 0.00294132 7.37646e-06
0.0189611 0 0.00294137 3.3841e-09
-0.0192376 0 4.16948e-10 2.1809e-05
0.0192376 -2.71051e-20 4.16969e-10 1.33021e-08
0.0192505 6.77626e-21 0.000578858 7.88211e-09
-0.0192506 2.25875e-21 0.000578833 1.371e-05
-0.0192654 -9.03502e-21 0.00120337 3.45956e-06
0.0192654 0 0.0012034 1.40014e-09
-0.0192728 6.77626e-21 0.00186871 1.97039e-06
0.0192728 4.51751e-21 0.00186874 5.28821e-10
-0.0190865 2.71051e-20 0.00329541 8.29627e-06
0.0190867 2.71051e-20 0.00329547 3.40686e-09
-0.0193938 0 3.58644e-10 2.21849e-05
0.0193938 -2.71051e-20 3.58662e-10 1.31526e-08
0.0193936 -1.35525e-20 0.000130553 1.31614e-08
-0.0193936 -4.06576e-20 0.000130545 2.21772e-05
-0.0191339 0 0.00323263 8.39477e-06
0.019134 0 0.00323272 3.48615e-09
-0.0192591 4.51751e-21 0.00254519 3.85923e-06
0.0192591 0 0.00254522 1.33979e-09
-0.0192048 0 0.003336 9.74042e-06
0.0192049 1.35525e-20 0.00333604 4.10972e-09
-0.0193217 2.93638e-21 0.00298746 6.79803e-06
0.0193218 -1.58113e-21 0.0029875 2.72333e-09
0.0195688 0 0.000280898 1.30987e-08
-0.0195688 -2.71051e-20 0.00028089 2.23857e-05
0.0195891 -2.71051e-20 0.000871761 2.26337e-09
-0.0195891 2.71051e-20 0.000871755 5.3796e-06
-0.019374 1.35525e-20 0.0032822 1.01981e-05
0.019374 -1.35525e-20 0.00328227 4.29145e-09
-0.0196057 0 0.00151348 2.2243e-06
0.0196057 2.71051e-20 0.0015135 8.16566e-10
-0.0193742 -2.71051e-20 0.00339404 1.05462e-05
0.0193743 0 0.00339406 4.40101e-09
-0.0196063 -5.42101e-20 0.0021914 2.13172e-06
0.0196063 0 0.00219141 3.87118e-10
0.0197445 0 1.1881e-10 1.23902e-08
-0.0197445 0 1.1881e-10 2.22679e-05
0.0197496 -1.35525e-20 0.000118775 1.23864e-08
-0.0197497 0 0.000118767 2.22622e-05
-0.0196349 -5.42101e-20 0.00277709 3.16399e-06
0.019635 -2.71051e-20 0.00277712 6.86514e-10
-0.0195953 0 0.00324376 1.01388e-05
0.0195954 0 0.0032438 4.0443e-09
-0.0198869 1.35525e-20 6.23641e-11 2.16882e-05
0.0198869 1.35525e-20 6.23597e-11 1.23687e-08
0.0199025 2.25875e-21 0.000551642 7.78838e-09
-0.0199025 9.03502e-21 0.00055164 1.42245e-05
-0.0196372 -2.71051e-20 0.00348423 1.15649e-05
0.0196374 0 0.0034843 4.77309e-09
-0.0199263 5.64689e-21 0.00116493 4.44892e-06
0.0199263 0 0.00116493 2.42953e-09
-0.0197065 1.35525e-20 0.0033997 1.14969e-05
0.0197066 1.35525e-20 0.00339978 4.76513e-09
-0.0200175 -1.35525e-20 0.000104927 2.18761e-05
0.0200175 -1.35525e-20 0.000104918 1.07888e-08
-0.020018 0 5.47768e-11 2.18749e-05
0.0200181 0 5.47745e-11 1.07725e-08
-0.0199354 -2.25875e-21 0.00184109 2.53803e-06
0.0199355 -2.25875e-21 0.0018411 9.14821e-10
-0.0199397 -2.25875e-21 0.00250609 2.90519e-06
0.0199397 -1.12938e-21 0.0025061 6.64877e-10
-0.0198048 -1.35525e-20 0.00354162 1.16554e-05
0.0198049 2.71051e-20 0.00354168 5.02698e-09
-0.0199176 1.12938e-21 0.00307583 7.77093e-06
0.0199177 2.25875e-21 0.00307587 2.96952e-09
-0.0202108 2.71051e-20 0.000262551 2.1745e-05
0.0202108 0 0.000262544 1.01048e-08
-0.0202372 -2.71051e-20 0.000828952 6.6644e-06
0.0202372 0 0.00082895 4.59927e-09
-0.0199793 1.35525e-20 0.00344741 1.26099e-05
0.0199793 -1.35525e-20 0.00344747 5.65442e-09
-0.0199876 -6.77626e-21 0.00360417 1.33059e-05
0.0199877 1.35525e-20 0.00360422 6.12349e-09
-0.0202612 2.71051e-20 0.00146953 3.33078e-06
0.0202612 0 0.00146953 1.72906e-09
-0.0202614 2.71051e-20 0.00216708 2.47019e-06
0.0202614 -2.71051e-20 0.0021671 7.2519e-10
-0.020424 0 1.48382e-11 2.13503e-05
0.0204241 0 1.48336e-11 1.15708e-08
-0.0204263 1.35525e-20 8.83618e-05 2.13478e-05
0.0204264 -1.35525e-20 8.83583e-05 1.15899e-08
-0.0201258 -2.71051e-20 0.00365147 1.35593e-05
0.020126 2.03288e-20 0.00365154 6.40535e-09
-0.0202574 0 0.00283409 3.82076e-06
0.0202575 -2.71051e-20 0.00283411 8.62166e-10
-0.02023 -1.35525e-20 0.00346726 1.31575e-05
0.0202301 -8.13152e-21 0.00346732 6.1275e-09
-0.0205366 0 8.07587e-12 2.11502e-05
0.0205367 -1.35525e-20 8.0725e-12 1.3859e-08
-0.0205431 1.12938e-21 0.000507235 1.51403e-05
0.0205431 0 0.000507233 1.29429e-08
-0.0205806 0 0.00109806 6.43077e-06
0.0205806 -1.12938e-21 0.00109806 7.33383e-09
-0.0206332 0 7.2332e-05 2.15181e-05
0.0206332 0 7.23425e-05 1.45641e-08
-0.0206362 0 7.47893e-12 2.15007e-05
0.0206362 1.35525e-20 7.47568e-12 1.4494e-08
-0.0203258 -1.35525e-20 0.00371988 1.19399e-05
0.020326 2.71051e-20 0.00371994 5.79133e-09
-0.0205919 -1.12938e-21 0.00179229 3.56589e-06
0.0205919 -4.51751e-21 0.00179229 1.99313e-09
-0.0205776 1.12938e-21 0.00251302 3.18224e-06
0.0205777 0 0.00251303 8.97416e-10
-0.0204396 1.35525e-20 0.00376155 1.0951e-05
0.0204398 0 0.00376163 5.63791e-09
-0.0204726 -1.35525e-20 0.00364922 1.11389e-05
0.0204728 4.06576e-20 0.00364928 5.64651e-09
-0.0205732 -3.76459e-22 0.00324396 8.07394e-06
0.0205733 -2.25875e-21 0.003244 3.44637e-09
-0.0208433 -5.42101e-20 0.000231572 2.10881e-05
0.0208434 0 0.000231569 1.60297e-08
-0.0208763 2.71051e-20 0.000747796 1.01381e-05
0.0208763 0 0.000747794 1.92231e-08
-0.0209307 -2.71051e-20 0.00137566 5.50484e-06
0.0209307 0 0.00137566 4.25657e-09
-0.0206256 0 0.00382199 1.07814e-05
0.0206258 6.77626e-21 0.00382207 5.10857e-09
-0.0209018 -2.71051e-20 0.00213753 3.08015e-06
0.0209018 2.71051e-20 0.00213753 1.38734e-09
-0.0207137 0 0.00385276 1.06203e-05
0.0207138 0 0.00385283 5.09876e-09
-0.0208885 0 0.00285883 3.33931e-06
0.0208886 2.71051e-20 0.00285885 6.50188e-10
-0.0207601 -1.35525e-20 0.00376298 1.07128e-05
0.0207602 0 0.00376308 5.18791e-09
0.0211429 3.01167e-21 0.0004345 9.80447e-08
-0.0211429 3.01167e-21 0.000434502 1.98367e-05
-0.020841 -2.25875e-21 0.00362679 1.03721e-05
0.0208411 2.25875e-21 0.00362684 5.05718e-09
-0.0208387 -6.77626e-21 0.00389825 1.0588e-05
0.0208388 1.35525e-20 0.0038983 4.83301e-09
-0.0212597 0 5.25669e-13 2.45045e-05
0.0212601 -4.65868e-21 5.198e-13 1.46587e-07
-0.0212767 2.5411e-21 1.41099e-05 2.44184e-05
-0.0212768 0 1.74179e-06 2.4558e-05
0.0212769 -4.65868e-21 1.38726e-05 1.48598e-07
0.0212813 -4.23516e-22 1.45874e-06 1.49391e-07
0.0212895 0 2.69474e-13 1.51068e-07
-0.0212896 0 2.7104e-13 2.45654e-05
-0.0212723 7.52918e-22 0.000878984 1.51897e-05
0.0212724 -1.50584e-21 0.000878975 7.86099e-08
-0.0212427 -4.51751e-22 0.00171816 5.74517e-06
0.0212427 3.38813e-22 0.00171814 8.60452e-09
-0.0212146 1.12938e-21 0.00249693 3.52897e-06
0.0212146 -3.38813e-21 0.00249694 1.43244e-09
-0.0210353 0 0.00398139 1.05137e-05
0.0210355 0 0.00398146 4.23031e-09
-0.021178 0 0.00323686 5.70798e-06
0.0211781 0 0.00323687 2.02674e-09
-0.0210737 0 0.00393726 1.05787e-05
0.0210738 0 0.00393731 4.30655e-09
-0.0211186 1.35525e-20 0.00402021 1.09951e-05
0.0211188 0 0.0040203 4.57177e-09
-0.0212476 8.87368e-22 0.00368161 8.43677e-06
0.0212478 -4.03349e-22 0.00368166 3.3081e-09
-0.0215747 -2.71051e-20 0.00130736 9.13178e-06
0.0215747 0 0.00130737 1.50858e-08
-0.0212486 0 0.00397488 1.14768e-05
0.0212488 0 0.00397493 4.75676e-09
-0.0212527 1.35525e-20 0.00408538 1.17928e-05
0.021253 -6.77626e-21 0.00408549 4.81649e-09
-0.0216407 -7.52918e-22 0.00033173 2.39065e-05
0.0216408 0 0.000331723 3.07599e-07
-0.0215441 -2.71051e-20 0.00209926 4.04553e-06
0.0215442 2.71051e-20 0.00209926 3.0556e-09
-0.0215225 0 0.00284518 3.6835e-06
0.0215225 0 0.0028452 7.28874e-10
-0.0217961 0 7.94919e-14 2.40164e-05
0.0217961 1.35525e-20 7.91737e-14 2.90269e-07
-0.0215506 0 0.00347094 4.22036e-06
0.0215507 0 0.00347097 7.72753e-10
-0.0214959 0 0.00395189 1.12841e-05
0.0214961 1.35525e-20 0.00395193 4.2921e-09
-0.0214983 6.77626e-21 0.00420475 1.22587e-05
0.0214984 6.77626e-21 0.00420479 4.74747e-09
-0.0218606 0 0.00170493 7.40581e-06
0.0218606 6.11746e-22 0.0017049 1.00014e-08
-0.0219212 -2.03288e-21 0.000827127 2.19264e-05
0.0219212 -2.25875e-22 0.00082711 1.30885e-07
-0.0219609 1.35525e-20 4.02034e-14 2.9015e-05
0.021961 -1.35525e-20 4.01314e-14 2.37322e-07
-0.0218494 -1.12938e-21 0.00247003 4.11803e-06
0.0218494 0 0.00247004 2.26262e-09
-0.0216145 0 0.00413981 1.21343e-05
0.0216145 1.35525e-20 0.00413983 4.6467e-09
-0.0216502 1.35525e-20 0.00427857 1.17584e-05
0.0216503 0 0.00427863 4.46773e-09
-0.0218421 1.12938e-21 0.00317495 4.1821e-06
0.0218422 -2.25875e-21 0.00317496 8.35701e-10
-0.0217324 0 0.00431835 1.16274e-05
0.0217325 0 0.00431843 4.41347e-09
-0.0217583 0 0.00423555 1.16785e-05
0.0217584 1.35525e-20 0.0042356 4.41677e-09
-0.0221733 0 2.81576e-14 2.75858e-05
0.0221735 -6.77626e-21 2.80965e-14 3.56123e-07
0.021866 0 0.00385231 2.75192e-09
-0.021866 -7.05861e-23 0.00385234 8.61415e-06
-0.0222021 -2.71051e-20 0.00129532 1.27765e-05
0.0222022 0 0.00129532 2.04173e-08
0.0222508 -7.05861e-23 0.00033038 4.08812e-07
-0.0222515 3.5293e-23 0.000329552 2.93866e-05
-0.0221694 2.71051e-20 0.00208071 4.83971e-06
0.0221694 -2.71051e-20 0.00208072 4.2503e-09
-0.0218631 -1.35525e-20 0.00438174 1.16931e-05
0.0218633 1.35525e-20 0.00438183 4.12149e-09
0.0223211 0 1.21342e-14 3.78117e-07
-0.0223212 6.77626e-21 1.21355e-14 2.8913e-05
-0.0221597 -2.71051e-20 0.00282094 3.93189e-06
0.0221598 -2.71051e-20 0.00282094 1.11415e-09
-0.0221457 0 0.00350913 4.86062e-06
0.0221457 -5.42101e-20 0.00350915 7.58303e-10
-0.0220148 -6.77626e-21 0.00445531 1.15711e-05
0.0220149 6.77626e-21 0.00445537 4.11694e-09
-0.0225415 0 1.22276e-15 3.74046e-05
0.0225416 0 1.23378e-15 3.16336e-07
-0.0221394 1.12938e-21 0.00425961 1.14163e-05
0.0221395 1.12938e-21 0.00425967 4.18167e-09
-0.0224964 1.77877e-20 0.00168456 9.30876e-06
0.0224964 -4.23516e-22 0.0016846 1.11749e-08
-0.0225021 0 0.00168479 9.27468e-06
0.0225021 0 0.00168483 1.11533e-08
0.0225129 0 0.00168799 1.11849e-08
-0.022513 0 0.00168798 9.3168e-06
-0.022576 2.71051e-21 0.000874276 2.74629e-05
0.0225761 4.51751e-21 0.000874269 1.48839e-07
-0.0225135 -7.26028e-22 0.00242345 4.92673e-06
0.0225136 6.45358e-22 0.00242345 3.15972e-09
-0.0224593 -2.25875e-21 0.00318123 4.24329e-06
0.0224593 0 0.00318124 1.06815e-09
-0.0223019 -3.38813e-21 0.00459436 1.44444e-05
0.022302 -3.38813e-21 0.00459437 4.40894e-09
-0.0224349 -9.03502e-22 0.00390505 8.55063e-06
0.022435 9.48677e-21 0.00390508 2.58989e-09
-0.0228059 -1.27055e-20 8.70912e-16 3.926e-05
0.0228061 4.23516e-22 8.77264e-16 5.81413e-07
-0.022811 2.96462e-21 2.46648e-05 3.94624e-05
0.0228111 0 2.39222e-05 5.86521e-07
-0.0223412 3.38813e-21 0.00461337 1.472e-05
0.0223413 3.38813e-21 0.00461342 4.3961e-09
0.0228141 4.23516e-22 8.58194e-16 5.81699e-07
-0.0228142 2.5411e-20 8.51405e-16 3.94231e-05
-0.0228118 -1.12938e-21 0.000334117 4.1116e-05
0.0228118 -1.12938e-21 0.000334137 5.19617e-07
-0.022347 0 0.00460685 1.47574e-05
0.0223471 0 0.00460689 4.41632e-09
-0.0223545 0 0.00461977 1.49241e-05
0.0223546 0 0.00461984 4.45648e-09
-0.0223623 1.01644e-20 0.00458505 1.46154e-05
0.0223624 1.69407e-21 0.00458505 4.37267e-09
-0.0223809 0 0.0046121 1.53146e-05
0.022381 0 0.00461216 4.47164e-09
-0.0223957 0 0.00463972 1.57623e-05
0.0223958 0 0.00463983 4.45424e-09
-0.0225314 0 0.00433167 1.34182e-05
0.0225315 0 0.00433171 4.69126e-09
-0.0227767 -2.71051e-20 0.00282452 4.37906e-06
0.0227767 0 0.00282454 1.68783e-09
-0.0229169 2.71051e-20 0.00145351 1.3315e-05
0.022917 0 0.00145354 1.26772e-08
-0.0229127 2.71051e-20 0.001952 7.3809e-06
0.0229127 0 0.001952 7.07246e-09
-0.0227583 -2.71051e-20 0.00352775 3.79385e-06
0.0227583 -2.71051e-20 0.00352777 7.46416e-10
-0.0226788 -1.35525e-20 0.00436549 1.4895e-05
0.0226789 -1.35525e-20 0.00436553 4.80057e-09
-0.0231146 0 6.24631e-16 5.32512e-05
0.0231146 0 6.26477e-16 3.26654e-07
-0.0231263 -5.64689e-22 0.000857356 3.78618e-05
0.0231264 1.12938e-21 0.000857382 1.58135e-07
-0.0231204 0 0.00168686 1.09359e-05
0.0231204 0 0.00168687 1.12533e-08
-0.0226912 0 0.00478277 1.98783e-05
0.0226912 1.35525e-20 0.00478283 4.56659e-09
-0.0231332 -9.88205e-22 0.00244156 6.3529e-06
0.0231332 -8.47033e-22 0.00244157 3.99741e-09
-0.0227888 0 0.00466799 1.9323e-05
0.0227889 -1.35525e-20 0.00466803 4.78561e-09
-0.0230834 1.12938e-21 0.00317456 4.53152e-06
0.0230835 1.12938e-21 0.00317458 1.34042e-09
-0.023319 0 3.10971e-16 6.14121e-05
0.0233191 6.77626e-21 3.12101e-16 3.20108e-07
-0.0230283 1.35525e-20 0.00391292 7.13513e-06
0.0230284 0 0.00391294 2.00342e-09
-0.02333 -2.71051e-20 0.00142276 1.39051e-05
0.02333 0 0.00142278 1.77655e-08
-0.0233168 0 0.00194192 9.69933e-06
0.0233168 0 0.00194194 8.29878e-09
-0.0228965 1.35525e-20 0.0048822 1.92021e-05
0.0228966 0 0.00488226 5.0252e-09
-0.0234102 0 0.000267243 6.64098e-05
0.0234102 2.25875e-21 0.000267244 2.95894e-07
-0.0229986 3.01167e-21 0.0043906 1.29687e-05
0.0229987 -2.25875e-21 0.00439064 3.49191e-09
0.0235162 1.35525e-20 1.75957e-16 2.79208e-07
-0.0235162 6.77626e-21 1.74953e-16 7.06736e-05
-0.0234234 0 0.00278585 5.57175e-06
0.0234234 2.71051e-20 0.00278586 2.27143e-09
-0.0230651 0 0.00496382 2.1983e-05
0.0230652 -2.71051e-20 0.00496388 5.57538e-09
-0.0233787 0 0.00352562 4.41111e-06
0.0233787 0 0.00352564 6.76079e-10
-0.0237161 1.35525e-20 -1.12818e-16 8.33553e-05
0.0237161 1.35525e-20 -1.126e-16 2.29793e-07
-0.0232668 -1.807e-21 0.00471662 2.07725e-05
0.0232669 -1.35525e-21 0.00471667 5.51492e-09
-0.0233857 0 0.00417634 5.49558e-06
0.0233857 0 0.00417637 9.06954e-10
-0.0232203 6.77626e-21 0.00503892 2.23887e-05
0.0232204 -1.35525e-20 0.00503899 5.66537e-09
-0.0237642 1.97641e-21 0.000871715 5.85819e-05
0.0237642 2.82344e-22 0.000871732 1.37267e-07
-0.0237897 0 9.69712e-05 9.2041e-05
0.0237897 -1.35525e-20 9.70283e-05 2.52047e-07
-0.0237941 1.35525e-20 4.97247e-16 9.20093e-05
0.0237942 -1.35525e-20 5.01214e-16 2.52521e-07
-0.0237454 -4.23516e-22 0.00168598 1.39605e-05
0.0237454 -9.88205e-22 0.00168599 1.33874e-08
-0.0238504 1.35525e-20 -3.63004e-16 9.01209e-05
0.0238505 0 -3.63597e-16 2.38012e-07
-0.0237771 9.03502e-22 0.00232532 9.02306e-06
0.0237772 4.06576e-21 0.00232532 5.89705e-09
-0.023345 -2.71051e-20 0.00509928 2.15357e-05
0.0233451 1.35525e-20 0.00509935 5.33072e-09
-0.0237118 2.25875e-21 0.00315193 5.51278e-06
0.0237118 -2.25875e-21 0.00315194 1.78966e-09
-0.0239754 0 0.000105727 9.52757e-05
0.0239757 0 0.000105814 2.14018e-07
-0.0240029 0 2.3863e-16 9.5481e-05
-0.0236913 0 0.0038564 5.2857e-06
0.0236913 -3.38813e-21 0.00385642 7.64947e-10
0.0240032 -1.35525e-20 2.38694e-16 2.12064e-07
-0.0235265 1.69407e-20 0.00518714 2.12603e-05
0.0235266 -1.35525e-20 0.0051872 5.09217e-09
-0.0237117 -4.51751e-21 0.00456148 1.31107e-05
0.0237118 6.02335e-21 0.00456152 2.87471e-09
-0.0235865 0 0.00521624 2.17238e-05
0.0235867 -6.77626e-21 0.00521631 4.93861e-09
-0.0236569 -5.42101e-21 0.00499193 2.05635e-05
0.023657 -5.42101e-21 0.00499199 5.13653e-09
-0.0240359 0 0.0027785 6.78687e-06
0.024036 -2.71051e-20 0.00277852 3.29285e-09
-0.0240146 -2.71051e-20 0.00349448 5.28668e-06
0.0240147 0 0.0034945 9.2312e-10
-0.0237108 0 0.00516871 2.22431e-05
0.023711 0 0.00516878 4.71955e-09
-0.0237215 0 0.00528159 2.27284e-05
0.0237217 0 0.00528165 4.39086e-09
-0.0238516 6.77626e-21 0.00489348 1.82703e-05
0.0238517 3.38813e-21 0.00489352 3.84079e-09
-0.0239976 0 0.00419241 5.91913e-06
0.0239977 0 0.00419244 5.40035e-10
-0.0238168 0 0.00514855 2.14304e-05
0.0238169 -6.77626e-21 0.00514863 4.15e-09
-0.0238281 -6.77626e-21 0.00525503 2.41826e-05
0.0238283 6.77626e-21 0.00525509 4.18519e-09
-0.0238429 6.77626e-21 0.00534032 2.5531e-05
0.023843 -6.77626e-21 0.00534036 3.86882e-09
-0.0243893 5.42101e-20 0.00171905 1.89468e-05
0.0243893 -5.42101e-20 0.00171905 1.46265e-08
-0.0239789 -1.35525e-20 0.00489875 1.54404e-05
0.023979 0 0.00489881 3.40276e-09
-0.0243696 1.41172e-22 0.00243113 1.01109e-05
0.0243706 -1.41172e-22 0.00243196 6.06429e-09
-0.0244866 0 0.00051268 0.000117078
0.0244867 0 0.000512684 1.42494e-07
-0.0243442 5.64689e-22 0.00312516 6.64101e-06
0.0243442 -3.38813e-21 0.00312517 2.325e-09
-0.0239577 2.03288e-20 0.00539587 2.71635e-05
0.0239578 -2.71051e-20 0.00539595 3.53236e-09
-0.0240298 2.1684e-20 0.00521691 2.4991e-05
0.02403 -1.0842e-20 0.00521698 3.998e-09
-0.0243197 -2.25875e-21 0.00383765 6.03689e-06
0.0243198 -2.25875e-21 0.00383767 7.9026e-10
-0.0242836 2.25875e-21 0.00455364 1.05272e-05
0.0242836 -2.25875e-21 0.00455368 1.60352e-09
-0.0241601 2.71051e-20 0.00549388 2.69031e-05
0.0241602 0 0.00549396 3.94725e-09
-0.0242635 3.01167e-21 0.00502115 1.87665e-05
0.0242637 3.01167e-21 0.00502121 2.89255e-09
-0.0246819 -2.71051e-20 0.00275432 8.1082e-06
0.0246819 -2.71051e-20 0.00275433 3.8307e-09
-0.0246457 2.71051e-20 0.00346491 6.37942e-06
0.0246458 0 0.00346492 1.2741e-09
-0.0243131 0 0.00556792 3.12887e-05
0.0243132 -1.35525e-20 0.00556799 4.32155e-09
-0.0249638 1.35525e-20 3.14504e-16 0.000122701
0.0249638 1.35525e-20 3.14469e-16 1.36148e-07
-0.0249658 -2.71051e-20 0.000127061 0.000123447
0.0249658 -1.35525e-20 0.000127084 1.35724e-07
-0.0246319 2.71051e-20 0.00416571 6.5153e-06
0.0246319 -2.71051e-20 0.00416574 4.31067e-10
-0.0250669 -4.51751e-21 0.00111391 7.8084e-05
0.025067 -4.51751e-21 0.00111391 7.62407e-08
-0.0245277 2.25875e-21 0.00533379 3.04081e-05
0.0245278 -4.51751e-22 0.00533385 4.42379e-09
-0.0246411 2.71051e-20 0.00480622 1.02326e-05
0.0246412 0 0.00480627 7.19363e-10
-0.0251264 0 -5.57175e-18 0.000125319
0.0251265 2.71051e-20 -5.54308e-18 1.41604e-07
-0.0244892 0 0.00565317 3.25424e-05
0.0244893 0 0.00565322 4.38959e-09
-0.0250457 -3.38813e-21 0.00228488 1.56223e-05
0.0250457 1.12938e-21 0.00228489 8.88215e-09
-0.0249744 1.41172e-21 0.00307726 8.59659e-06
0.0249744 2.82344e-22 0.00307727 3.19011e-09
-0.0245965 1.35525e-20 0.00570514 3.15833e-05
0.0245966 -2.71051e-20 0.00570519 4.13553e-09
-0.0252751 0 0.000134702 0.000131774
-0.0249934 5.64689e-22 0.00376622 7.29309e-06
0.0252752 0 0.000134716 1.31096e-07
0.0249934 8.47033e-22 0.00376624 1.04691e-09
-0.0252845 0 -2.40076e-18 0.000131809
0.0252846 0 -2.39523e-18 1.31081e-07
-0.0249434 6.77626e-21 0.00449176 8.95985e-06
0.0249434 -4.51751e-21 0.00449179 5.36747e-10
-0.0247822 0 0.00579502 3.16337e-05
0.0247823 -1.35525e-20 0.00579507 3.89505e-09
-0.0249665 -7.52918e-21 0.00518177 2.03887e-05
0.0249666 1.50584e-21 0.00518182 2.2495e-09
-0.0248296 3.38813e-21 0.00581795 3.22402e-05
0.0248297 -3.38813e-21 0.00581801 3.80677e-09
-0.0249104 -1.35525e-20 0.00560274 3.04333e-05
0.0249105 -8.13152e-21 0.00560279 3.9749e-09
-0.0254015 -2.71051e-20 0.00285469 1.13935e-05
0.0254015 0 0.0028547 4.44622e-09
-0.0252645 0 0.00414474 8.35662e-06
0.0252645 -2.71051e-20 0.00414475 5.69994e-10
-0.0254031 2.71051e-20 0.00331055 8.63259e-06
0.0254031 0 0.00331056 2.21052e-09
-0.0249624 0 0.00577192 3.31318e-05
0.0249625 -6.77626e-21 0.00577202 3.65554e-09
-0.0249739 1.35525e-20 0.00588778 3.39367e-05
0.024974 0 0.00588783 3.40473e-09
-0.0252501 2.71051e-20 0.00482067 1.06196e-05
0.0252501 -2.71051e-20 0.00482071 4.02737e-10
-0.0257173 5.42101e-20 0.000556257 0.00013978
0.0257173 -5.42101e-20 0.000556256 1.23432e-07
-0.0250723 6.77626e-21 0.00575396 3.22187e-05
0.0250724 1.35525e-20 0.00575407 3.2136e-09
-0.0256699 0 0.00175088 2.97993e-05
0.0256699 5.42101e-20 0.00175088 1.68846e-08
-0.0256382 -2.82344e-21 0.0024157 1.70284e-05
0.0256382 -1.97641e-21 0.00241571 8.46524e-09
-0.0250837 -1.35525e-20 0.00586274 3.63924e-05
0.0250838 1.35525e-20 0.00586281 3.2531e-09
-0.0256079 1.35525e-20 0.00307876 1.01943e-05
0.0256079 1.35525e-20 0.00307876 3.43097e-09
-0.025098 0 0.00594767 3.86058e-05
0.025098 0 0.0059477 3.00804e-09
-0.0251925 -2.25875e-21 0.00555311 2.8471e-05
0.0251926 1.12938e-20 0.00555317 2.89822e-09
-0.0252316 0 0.00551486 2.38767e-05
0.0252317 0 0.00551494 2.66066e-09
-0.0255924 3.76459e-21 0.0037929 9.28396e-06
0.0255924 4.51751e-21 0.00379291 1.22623e-09
-0.0252102 2.71051e-20 0.00600189 4.1156e-05
0.0252104 -6.77626e-21 0.00600198 2.76648e-09
-0.0252817 8.13152e-21 0.00582896 3.76458e-05
0.0252819 8.13152e-21 0.00582905 3.13738e-09
-0.0255735 -3.38813e-21 0.00447397 1.05566e-05
0.0255735 2.25875e-21 0.00447399 5.08119e-10
-0.0258318 2.71051e-20 0.0028448 1.13866e-05
0.0258318 5.42101e-20 0.0028448 4.62738e-09
-0.0257993 0 0.00329834 9.9802e-06
0.0257993 0 0.00329835 2.4769e-09
-0.0255336 4.51751e-21 0.0051788 1.76303e-05
0.0255337 -2.25875e-21 0.00517885 1.24934e-09
-0.025412 -2.71051e-20 0.00609921 3.98593e-05
0.0254122 1.35525e-20 0.00609928 3.12921e-09
-0.0255488 2.25875e-21 0.00563576 2.90661e-05
0.0255489 6.77626e-21 0.00563582 2.18228e-09
0.0262229 0 -2.45033e-18 1.23302e-07
-0.0262229 0 -2.47168e-18 0.000141398
0.0262242 0 0.000110099 1.23241e-07
-0.0262242 1.35525e-20 0.000110094 0.000141462
-0.025914 -2.71051e-20 0.00409942 1.07503e-05
0.025914 -2.71051e-20 0.00409944 7.56772e-10
-0.0255675 0 0.00617786 4.57393e-05
0.0255677 0 0.00617797 3.45903e-09
-0.025876 2.71051e-20 0.00480446 1.23524e-05
0.025876 -2.71051e-20 0.00480449 3.02492e-10
0.0263176 6.77626e-21 0.00114406 7.06932e-08
-0.0263176 -9.03502e-21 0.00114406 8.93994e-05