# omega  POINT_DATA 14647
# x  y  z  omega
4.23516e-22 -0.0130568 4.20108e-06 1613.85
0 0.0130568 4.20422e-06 1612.94
0 0.0130538 6.6649e-06 1616.12
-4.23516e-22 -0.0130538 6.66028e-06 1617.03
1.69407e-21 -0.0130538 0.000644839 2226.48
0 0.0130538 0.000645282 2225.77
0 -0.0130538 0.000659278 2240.99
-8.47033e-22 0.0130538 0.000659736 2240.29
0 -0.0130538 0.000674531 2289.57
-8.47033e-22 0.0130538 0.000674994 2288.88
0 -0.0130603 0.000649722 2235.24
8.47033e-22 0.0130603 0.000650171 2234.53
0 -0.0130603 0.000668856 2278.35
0 0.0130603 0.000669319 2277.66
-5.92923e-21 -0.0130709 0.000658157 2212.8
1.60936e-20 0.0130709 0.000658618 2210.1
0 -0.0130538 0.00133809 3280.67
1.69407e-21 0.0130538 0.00133857 3279.99
0 -0.0130538 0.00135468 3268.71
0 0.0130538 0.00135516 3268.04
0 -0.0130538 0.00137216 3320.75
0 0.0130538 0.00137263 3320.07
-1.69407e-21 -0.0130609 0.00134164 3282.98
1.69407e-21 0.0130609 0.00134212 3282.3
-1.69407e-21 -0.0130605 0.00136331 3312.39
0 0.0130605 0.00136378 3311.71
5.0822e-21 -0.0130744 0.00134748 3201.01
1.69407e-21 0.0130744 0.00134796 3195.39
0 -0.0130556 0.00208219 2051.72
0 0.0130577 0.00208858 2051.88
-3.38813e-21 -0.0130676 0.00208095 2016.64
3.81165e-21 0.0130676 0.00208095 2017.04
-6.77626e-21 -0.0133442 8.05862e-08 1460.66
0 0.0133442 8.05859e-08 1459.57
-1.12938e-21 -0.0133452 0.000326479 1464.89
-3.38813e-21 0.0133452 0.000326736 1460.54
-2.25875e-21 -0.0133372 0.000959829 2334.76
-7.90564e-21 0.0133372 0.000960365 2324.89
0 -0.0132973 0.00155417 3008.69
0 0.0132973 0.00155454 2985.79
3.04932e-20 0.0132406 0.00216284 1241.14
0 -0.0132406 0.00216285 1240.51
0 -0.0132805 0.00206428 1241.08
-3.38813e-21 0.0132805 0.00206425 1241.75
-2.71051e-20 0.0133174 0.00219404 1496.27
0 -0.0133175 0.00219406 1496.03
2.25875e-21 -0.0133831 0.00186918 1517.74
0 0.0133831 0.00186936 1514.27
1.35525e-20 -0.0135632 9.24961e-08 1127.36
-2.71051e-20 0.0135632 9.24953e-08 1125.64
2.25875e-21 -0.0134965 0.00146605 1531.14
6.77626e-21 0.0134965 0.00146649 1527.09
0 -0.0136117 8.70388e-05 1033.58
6.77626e-21 0.0136117 8.71003e-05 1031.73
6.77626e-21 -0.0136152 8.46271e-08 1038.24
0 0.0136152 8.46271e-08 1036.4
1.35525e-20 -0.0136416 8.0639e-08 1073.27
0 0.0136416 8.06395e-08 1071.45
6.77626e-22 -0.0136355 0.000678728 992.674
6.77626e-22 0.0136355 0.000679269 970.725
-1.35525e-20 0.0134811 0.00226049 1037.34
0 -0.0134812 0.00226053 1037.23
1.69407e-21 -0.0136197 0.00118987 1041.41
1.50584e-21 0.0136197 0.00119045 1004.23
-3.01167e-21 -0.0136061 0.00162976 1157.04
-4.51751e-21 0.0136061 0.00163011 1115.95
1.35525e-20 0.0137235 7.39497e-08 1029.71
1.35525e-20 -0.0137235 7.39483e-08 1031.67
6.77626e-21 0.0137252 9.16823e-05 1025.7
-6.77626e-21 -0.0137253 9.16246e-05 1027.68
-1.12938e-22 -0.0137103 0.00202484 962.256
-3.38813e-22 0.0137102 0.00202496 961.444
-6.77626e-21 0.0136752 0.0023393 1139.25
6.77626e-21 -0.0136753 0.00233933 1139.21
-6.77626e-21 0.0137679 0.00237692 1238.7
1.35525e-20 -0.013768 0.00237696 1238.63
-1.35525e-20 -0.0139849 0.000399002 758.535
0 0.0139849 0.000399313 752.861
-9.03502e-21 -0.013986 0.000912946 367.129
-9.03502e-21 0.013986 0.000913447 348.268
-9.03502e-21 -0.0139545 0.00150378 391.048
4.51751e-21 0.0139546 0.00150416 369.615
1.35525e-20 -0.0140935 0.000126371 832.275
-1.35525e-20 0.0140935 0.000126457 829.701
0 -0.0141015 1.51513e-08 832.282
0 0.0141015 1.51514e-08 829.708
8.47033e-22 -0.0139607 0.00245511 1352.26
0 0.0139609 0.00245518 1352.45
-2.71051e-20 -0.0141702 0.000612039 576.084
-2.71051e-20 0.0141702 0.000612472 561.208
2.71051e-20 0.0139759 0.00246127 1364.31
7.6233e-21 -0.013976 0.00246129 1364.31
9.31736e-21 0.0139805 0.00244911 1359.23
-2.5411e-21 -0.0139806 0.00244893 1359.14
-2.71051e-20 -0.0141582 0.00121268 344.039
0 0.0141582 0.00121315 325.297
1.35525e-20 -0.0142137 6.98307e-09 835.085
0 0.0142137 6.98407e-09 832.441
0 -0.0141062 0.00185461 698.55
0 0.0141062 0.00185482 677.938
0 0.0140936 0.00222224 1295.94
-2.25875e-21 -0.0140936 0.00222217 1297.16
-1.35525e-20 0.0143442 6.46477e-09 831.932
0 -0.0143442 6.46386e-09 834.715
1.35525e-20 0.0141438 0.00239267 1499.19
-6.77626e-21 -0.0141439 0.00239256 1499.11
0 0.014345 0.000135164 832.01
-1.35525e-20 -0.014345 0.00013509 834.802
-1.35525e-20 0.0141782 0.00254345 1666.19
0 -0.0141783 0.00254345 1666.3
-2.43945e-20 0.0144148 0.000393235 760.575
-2.71051e-21 -0.0144148 0.000392975 766.424
0 0.014293 0.00252719 1838.33
6.77626e-21 -0.0142931 0.00252719 1838.48
-2.03288e-20 0.0142857 0.00258696 1909.03
0 -0.0142858 0.00258699 1909.23
6.77626e-21 -0.0145008 0.000915389 289.055
4.51751e-21 0.0145008 0.000915765 258.192
1.69407e-21 0.0143708 0.00229756 1329.15
-3.38813e-21 -0.0143708 0.00229749 1342.51
2.25875e-21 -0.0144715 0.00154752 280.858
0 0.0144715 0.0015478 242.193
0 -0.0144657 0.00205596 619.277
-4.51751e-21 0.0144657 0.00205609 579.77
0 0.0146705 0.00015054 837.686
1.35525e-20 -0.0146705 0.000150448 840.781
-1.35525e-20 0.01468 6.30535e-09 837.779
1.35525e-20 -0.01468 6.30475e-09 840.874
0 -0.0144708 0.00266175 2131.3
1.35525e-20 0.0144708 0.00266174 2131.04
2.71051e-21 0.0145057 0.00250599 1983.29
-2.71051e-21 -0.0145058 0.00250596 1983.52
0 0.0148233 5.71582e-09 847.5
0 -0.0148234 5.71538e-09 850.649
0 -0.0148745 0.000558342 569.829
-4.51751e-21 0.0148745 0.000558581 553.445
0 -0.0147686 0.00191048 465.775
0 0.0147686 0.00191064 426.783
0 0.0146404 0.00273044 1643.7
0 -0.0146404 0.00273047 1644.46
-1.54886e-20 -0.0148827 0.00116851 184.7
5.80823e-21 0.0148827 0.00116882 149.281
1.35525e-20 0.0149747 4.96127e-09 854.949
2.71051e-20 -0.0149747 4.9609e-09 858.186
1.35525e-20 0.0149752 0.000142336 854.801
-1.35525e-20 -0.0149752 0.000142287 858.036
-2.25875e-21 -0.0148161 0.00236406 1210.12
4.51751e-21 0.0148161 0.00236412 1181.18
-1.807e-20 -0.0150223 0.00156473 216.883
0 0.0150222 0.00156494 179.414
-2.71051e-20 0.0151424 0.000304981 860.388
0 -0.0151424 0.000304874 863.725
-1.35525e-20 0.0148918 0.00283394 1502.69
2.71051e-20 -0.0148918 0.00283398 1504
0 -0.0151422 0.000920422 180.274
0 0.0151422 0.000920657 146.724
8.13152e-21 0.0150419 0.00210501 334.496
-1.89735e-20 -0.0150419 0.00210492 402.177
4.51751e-21 -0.015053 0.00270398 1585.09
0 0.015053 0.00270402 1583.86
-6.77626e-21 -0.0150244 0.00288816 1517.46
-2.71051e-20 0.0150245 0.0028882 1516.07
1.35525e-20 0.0153086 2.24203e-09 868.856
1.35525e-20 -0.0153086 2.24182e-09 872.257
0 0.0153121 0.000140875 868.836
-1.35525e-20 -0.0153122 0.000140824 872.238
0 -0.0154577 1.48782e-09 879.168
-1.35525e-20 0.0154577 1.48795e-09 875.722
4.51751e-21 -0.0154655 0.000604019 532.045
2.25875e-21 0.0154655 0.000604165 514.972
-1.12938e-20 -0.0154631 0.00123933 150.776
3.76158e-37 0.0154631 0.0012395 116.759
0 -0.0152755 0.00299148 1602.78
2.71051e-20 0.0152755 0.0029915 1601.49
0 -0.015469 0.0018808 204.024
2.25875e-21 0.015469 0.00188091 153.742
0 -0.0156043 1.3028e-09 884.176
-1.35525e-20 0.0156043 1.30289e-09 880.645
-1.35525e-20 -0.0156046 0.000132299 883.904
1.35525e-20 0.0156046 0.000132329 880.375
0 0.0153937 0.00303998 1795.09
0 -0.0153938 0.00303999 1796.41
1.35525e-20 0.0154261 0.0029384 1789.42
-2.71051e-20 -0.0154261 0.00293835 1790.72
5.27043e-21 -0.0155039 0.00256159 1064.84
-7.52918e-22 0.0155039 0.00256162 1025.16
0 0.0157872 0.000299952 889.312
2.71051e-20 -0.0157872 0.000299901 892.909
2.71051e-20 -0.0157971 0.000915013 173.282
-2.71051e-20 0.0157971 0.000915131 144.952
0 -0.0157989 0.00156074 110.126
-2.71051e-20 0.0157989 0.00156083 74.5432
6.77626e-21 0.0156182 0.00313283 2057.69
-6.77626e-21 -0.0156183 0.00313286 2058.92
2.71051e-20 -0.015809 0.0022127 206.192
2.71051e-20 0.015809 0.00221276 162.806
0 0.0159653 5.84461e-10 901.449
-1.35525e-20 -0.0159653 5.84404e-10 905.111
-1.35525e-20 0.0159712 0.000124971 901.514
0 -0.0159712 0.000124945 905.175
6.77626e-21 -0.0156925 0.0031635 2050.45
6.77626e-21 0.0156925 0.00316352 2049.25
6.77626e-21 -0.01572 0.00310334 2017.98
-6.77626e-21 0.0157201 0.00310327 2016.74
-1.50584e-21 -0.0157996 0.00293416 1745.16
0 0.0157996 0.00293419 1729.38
0 -0.015781 0.00319986 2127.97
-2.03288e-20 0.0157812 0.00319994 2126.84
0 -0.0161034 4.04832e-10 920.447
0 0.0161034 4.0486e-10 916.78
-6.77626e-21 -0.016119 0.000594184 554.33
-6.77626e-21 0.016119 0.000594247 536.831
-9.03502e-21 -0.0161299 0.00122524 143.229
2.25875e-21 0.0161299 0.00122532 109.479
0 -0.0162343 3.59803e-10 928.306
-1.35525e-20 0.0162343 3.59826e-10 924.57
0 -0.0162345 0.00011328 927.845
0 0.0162345 0.000113292 924.112
-6.77626e-21 -0.0161352 0.00188661 141.598
0 0.0161352 0.00188666 100.69
0 -0.0161278 0.00255594 595.311
-2.25875e-21 0.0161278 0.00255599 539.903
-1.35525e-20 -0.0159975 0.00328828 2447.98
0 0.0159976 0.00328832 2446.71
1.35525e-20 -0.0160352 0.00323057 2404.87
4.06576e-20 0.0160353 0.00323064 2403.62
1.35525e-20 -0.0160906 0.00332631 2051.23
1.35525e-20 0.0160907 0.00332633 2049.95
-2.71051e-20 -0.0164377 0.00029234 940.328
-2.71051e-20 0.0164377 0.000292357 936.529
-2.71051e-20 -0.0164552 0.000897699 188.294
0 0.0164552 0.000897745 153.209
-1.807e-21 -0.0162066 0.0029897 1513.38
1.35525e-21 0.0162067 0.00298974 1477.18
-2.71051e-20 -0.0164658 0.00154123 99.5257
0 0.0164658 0.00154127 63.5447
1.35525e-20 0.0162526 0.00328164 1917.02
0 -0.0162527 0.00328159 1918.39
0 0.0162526 0.00339239 1866.91
-2.71051e-20 -0.0162526 0.00339241 1868.33
-2.71051e-20 -0.0164656 0.00220947 147.289
5.42101e-20 0.0164656 0.00220951 98.6534
0 0.0166389 1.04271e-10 961.323
0 -0.0166389 1.04267e-10 965.135
0 0.0166447 0.000100575 961.416
0 -0.0166447 0.000100568 965.227
0 -0.0165065 0.00278869 408.333
-2.71051e-20 0.0165065 0.00278872 333.829
0 -0.0167551 6.1842e-11 989.602
1.35525e-20 0.0167551 6.18409e-11 985.842
4.51751e-21 -0.0167741 0.000577096 593.105
4.51751e-21 0.0167741 0.000577118 574.824
2.71051e-20 -0.0164727 0.00325225 2009.8
2.71051e-20 0.0164728 0.00325227 2008.3
3.38813e-21 -0.0167927 0.00119999 147.027
1.12938e-21 0.0167928 0.00120002 110.582
2.71051e-20 -0.0164932 0.00349062 1699.33
1.35525e-20 0.0164934 0.00349067 1697.49
-1.35525e-20 -0.0168627 5.6253e-11 998.042
-1.35525e-20 0.0168627 5.62518e-11 994.274
0 -0.0168631 9.00351e-05 997.6
-1.35525e-20 0.0168631 9.00377e-05 993.832
1.12938e-21 -0.0167971 0.00186718 114.78
3.38813e-21 0.0167971 0.0018672 71.9633
-2.71051e-20 -0.0165645 0.00339838 1704.09
0 0.0165646 0.00339847 1702.24
2.25875e-21 -0.0168038 0.00251859 235.658
-2.25875e-21 0.0168039 0.00251861 179.777
-2.71051e-20 -0.0166657 0.003561 1601.2
0 0.0166658 0.00356102 1599.35
3.38813e-21 -0.0167839 0.00309024 1028.95
-6.77626e-21 0.016784 0.00309026 998.05
5.42101e-20 0.0170872 0.000280478 1018.55
-2.71051e-20 -0.0170872 0.000280474 1022.33
5.42101e-20 -0.0171093 0.000869706 196.288
0 0.0171094 0.000869716 165.165
0 -0.0171238 0.0015109 102.456
2.71051e-20 0.0171238 0.00151092 58.9028
-6.77626e-21 0.0168547 0.00363794 1135.71
2.03288e-20 -0.0168548 0.00363795 1137.75
-2.71051e-20 -0.0171215 0.00218644 109.046
5.42101e-20 0.0171216 0.00218645 65.9749
0 -0.0173128 1.50028e-11 1067.19
-1.35525e-20 0.0173128 1.50016e-11 1063.43
1.35525e-20 0.017316 7.61098e-05 1063.49
0 -0.017316 7.61078e-05 1067.25
0 -0.0169937 0.00347014 1203.16
0 0.0169937 0.00347019 1201.07
-2.03288e-20 -0.0169518 0.00367748 1049.83
2.03288e-20 0.0169519 0.00367752 1047.61
-2.71051e-20 -0.0171192 0.00284365 257.008
2.71051e-20 0.0171192 0.00284368 202.358
0 0.0174041 1.00273e-11 1096.21
0 -0.0174041 1.00286e-11 1099.95
-2.25875e-21 -0.0174225 0.000552281 660.046
2.25875e-21 0.0174225 0.000552286 635.318
5.64689e-21 -0.0174464 0.00116236 160.935
0 0.0174464 0.00116237 116.13
0 -0.0174883 9.27754e-12 1107.63
1.35525e-20 0.0174883 9.27624e-12 1103.9
0 -0.0174886 6.91534e-05 1107.39
1.35525e-20 0.0174886 6.91578e-05 1103.66
0 -0.0174523 0.00183361 101.19
0 0.0174523 0.00183363 57.5104
4.06576e-20 0.0171554 0.00376035 1266.86
1.35525e-20 -0.0171554 0.00376034 1268.77
3.38813e-21 -0.0174395 0.00252755 165.382
2.25875e-21 0.0174395 0.00252757 111.343
0 -0.0172701 0.00381183 1335.76
0 0.0172701 0.00381183 1333.98
1.35525e-20 0.0173096 0.0036891 1318.92
0 -0.0173096 0.00368906 1320.73
-1.8823e-21 -0.0174174 0.00327288 802.205
4.89397e-21 0.0174174 0.00327291 764.66
2.71051e-20 -0.0177262 0.000264489 1150.67
0 0.0177262 0.000264491 1146.96
0 -0.0177529 0.000830839 241.466
-2.71051e-20 0.0177529 0.000830843 180.876
0 -0.0177737 0.00146633 101.493
0 0.0177737 0.00146634 57.2576
-2.03288e-20 0.0174674 0.00388876 1562.48
-1.35525e-20 -0.0174675 0.00388877 1564.23
-2.71051e-20 -0.0177694 0.00215825 92.1708
2.71051e-20 0.0177694 0.00215826 48.2153
-6.77626e-21 -0.0175188 0.00391124 1572.05
0 0.017519 0.0039113 1570.36
-3.38813e-21 -0.0175509 0.00385321 1546.47
-3.38813e-21 0.0175511 0.00385308 1544.69
-2.71051e-20 -0.0177413 0.00287705 194.294
2.71051e-20 0.0177414 0.00287708 119.893
-6.77626e-21 0.0179809 1.39465e-12 1265.78
-6.77626e-21 -0.0179809 1.39504e-12 1269.29
-6.77626e-21 0.017982 5.25092e-05 1265.89
6.77626e-21 -0.017982 5.25067e-05 1269.41
0 -0.0175787 0.00394073 1610.85
-1.35525e-20 0.017579 0.0039409 1609.25
-4.51751e-21 -0.01766 0.00367697 1349.5
3.01167e-21 0.01766 0.00367702 1337.09
-6.77626e-21 -0.0180462 7.99821e-13 1316.7
6.77626e-21 0.0180462 7.99456e-13 1313.22
-2.25875e-21 -0.0180586 0.000513285 793.557
-3.38813e-21 0.0180586 0.000513288 761.331
6.77626e-21 -0.0181035 4.49129e-05 1338.22
0 0.0181035 4.49204e-05 1334.8
0 -0.0181053 7.64927e-13 1335.78
0 0.0181054 7.64553e-13 1332.35
0 0.0181062 0.00109872 132.963
1.12938e-21 -0.0181062 0.00109871 188.975
5.64689e-22 -0.0181012 0.00178214 98.046
-2.25875e-21 0.0181012 0.00178214 51.033
-1.12938e-21 -0.0180748 0.00251396 128.544
-2.25875e-21 0.0180748 0.00251397 69.3443
-1.35525e-20 -0.0177924 0.00406323 1873.18
0 0.0177926 0.00406332 1871.35
0 -0.0178459 0.00400227 1821.29
0 0.017846 0.00400239 1819.48
-2.25875e-21 -0.0180178 0.00326611 496.711
-6.77626e-21 0.0180179 0.00326616 428.119
-2.71051e-20 -0.0183483 0.000235222 1456.17
2.71051e-20 0.0183483 0.000235228 1452.94
0 -0.0178961 0.00412296 1559.49
0 0.0178962 0.004123 1557.69
2.71051e-20 0.0183931 0.00076447 215.15
0 -0.0183931 0.000764464 277.429
4.51751e-22 -0.0180567 0.00374589 1163.17
-4.51751e-22 0.0180567 0.00374594 1124.66
-2.71051e-20 -0.0184337 0.00138079 118.544
0 0.0184337 0.0013808 60.7274
0 -0.0184036 0.00212468 81.3523
2.71051e-20 0.0184036 0.00212468 38.4559
3.38813e-21 -0.0185327 3.11692e-13 1186.93
-6.77626e-21 0.0185328 3.11508e-13 1182.68
0 0.0180755 0.00422628 1260.79
1.35525e-20 -0.0180755 0.00422633 1262.67
0 -0.0183781 0.00285998 144.123
2.71051e-20 0.0183781 0.00285999 68.8955
-2.25875e-21 -0.0186584 0.000460862 817.951
2.25875e-21 0.0186584 0.000460867 785.34
1.35525e-20 -0.0181752 0.00428374 1221.51
6.77626e-21 0.0181755 0.00428388 1219.44
0 -0.0182334 0.00409647 1350.72
-4.51751e-21 0.0182335 0.00409657 1348.76
0 -0.0183786 0.00352144 354.047
0 0.0183786 0.00352149 255.809
3.38813e-21 -0.018738 2.24864e-13 1152.95
0 0.018738 2.24779e-13 1148.44
0 -0.0187383 1.85704e-05 1152.39
3.38813e-21 0.0187383 1.85635e-05 1147.88
-3.38813e-21 -0.0187394 0.000144213 1046.82
-3.38813e-21 0.0187394 0.000144178 1033.52
-3.38813e-21 -0.0187638 5.24913e-14 1145.79
-3.38813e-21 0.0187638 5.2518e-14 1141.22
0 0.018782 1.52393e-05 1163.63
0 -0.018782 1.5244e-05 1168.19
-3.38813e-21 0.0187835 4.19052e-14 1165.16
3.38813e-21 -0.0187835 4.18701e-14 1169.71
5.64689e-23 0.0187413 0.0017483 50.99
2.25875e-22 -0.0187413 0.00174835 100.082
3.38813e-21 0.0188423 3.06821e-14 1148.95
0 -0.0188423 3.06421e-14 1153.82
0 0.0188305 0.000950992 238.012
-6.77626e-21 -0.0188305 0.000950983 292.561
0 -0.0183688 0.00439528 1359.97
0 0.0183689 0.00439535 1357.97
-4.03349e-23 -0.0187533 0.00244388 107.522
0 0.0187533 0.00244392 50.1845
-1.12938e-21 -0.0186868 0.0032017 210.408
-1.12938e-21 0.0186868 0.00320172 128.495
1.35525e-20 -0.0184806 0.00445983 1372.16
1.35525e-20 0.0184807 0.00445985 1370.25
-1.35525e-20 -0.0185303 0.00433131 1379.33
1.35525e-20 0.0185303 0.00433142 1377.38
-7.52918e-22 -0.0186604 0.00393307 898.537
2.25875e-21 0.0186604 0.0039331 849.347
1.12938e-21 -0.0191244 0.000340856 735.439
-2.82344e-22 0.0191244 0.000340868 724.614
1.35525e-20 0.0192203 9.49176e-15 871.911
1.35525e-20 -0.0192203 9.47246e-15 878.547
2.71051e-20 0.0191645 0.00146332 56.0234
0 -0.0191645 0.00146333 100.166
0 -0.0190143 0.00283766 108.135
2.71051e-20 0.0190143 0.00283768 46.1948
-1.69407e-21 0.0186824 0.00457622 1499.66
1.01644e-20 -0.0186825 0.00457626 1501.7
1.69407e-21 -0.0187038 0.00458858 1493
0 0.0187039 0.00458863 1490.9
0 0.01916 0.00195764 37.3275
0 -0.01916 0.00195763 82.1008
1.69407e-21 -0.0187213 0.00456183 1482.6
0 0.0187215 0.00456168 1480.43
-1.18585e-20 -0.0187278 0.00460243 1500.73
-8.47033e-21 0.0187281 0.00460258 1498.66
-5.42101e-20 -0.0189854 0.00354595 220.464
-2.71051e-20 0.0189854 0.00354598 130.545
0 -0.0188773 0.00434108 1283.39
-3.01167e-21 0.0188774 0.00434115 1268.47
0 -0.0193794 0.000836844 387.16
-1.69407e-21 0.0193797 0.000837393 323.808
0 -0.0193832 0.00085584 375.509
2.75286e-21 0.0193834 0.000855823 310.644
-2.11758e-21 0.0194038 0.000856698 310.217
-2.5411e-21 -0.0194042 0.000856742 374.751
-1.35525e-20 0.0194237 1.55386e-15 914.922
0 -0.0194238 1.5392e-15 923.594
0 -0.0193728 0.00168997 91.6892
0 0.0193728 0.00168998 48.3267
1.41172e-21 0.0193778 0.00244583 37.3664
2.82344e-22 -0.0193778 0.00244582 88.172
-1.35525e-20 -0.0189666 0.0047402 1677.74
-1.35525e-20 0.0189667 0.00474028 1675.32
1.12938e-21 -0.0193197 0.00318392 139.67
-1.12938e-21 0.0193197 0.00318394 70.2724
0 -0.0190326 0.00467124 1627.26
1.35525e-20 0.0190327 0.00467137 1624.86
2.71051e-20 0.0195819 0.00142144 63.1961
2.71051e-20 -0.0195819 0.00142144 101.976
-2.25875e-21 -0.0192551 0.00392917 491.233
4.51751e-21 0.0192551 0.00392922 413.721
0 -0.0196529 3.98812e-16 674.256
-6.77626e-21 0.019653 4.05019e-16 662.163
5.42101e-20 -0.0195685 0.0019371 79.6209
2.71051e-20 0.0195685 0.00193711 34.9528
2.71051e-20 -0.0190799 0.00480555 1380.65
-2.71051e-20 0.0190799 0.00480559 1378.17
0 0.0197212 0.00026999 636.451
9.03502e-21 -0.0197213 0.000269872 648.86
0 -0.0192753 0.0044119 1047.95
-9.03502e-22 0.0192753 0.00441194 1004.02
-3.38813e-21 0.019834 4.73089e-16 621.761
1.35525e-20 -0.0198344 4.68021e-16 634.279
-6.77626e-21 0.0192476 0.00490233 1049.05
0 -0.0192477 0.00490234 1051.96
2.71051e-20 -0.0196698 0.00278682 81.2724
-2.71051e-20 0.0196698 0.00278683 32.7261
2.71051e-20 -0.0196164 0.00353233 145.529
0 0.0196164 0.00353236 68.9701
-1.35525e-20 -0.0193208 0.00494455 1060.6
-1.35525e-20 0.019321 0.00494463 1057.61
4.51751e-21 -0.0194217 0.00475372 1185.59
4.51751e-21 0.0194217 0.0047538 1182.72
0 0.0200351 -3.30531e-17 646.901
-1.35525e-20 -0.0200351 -3.31475e-17 658.784
-4.70198e-38 0.0200397 0.000879641 328.871
-8.47033e-22 -0.0200397 0.000879689 371.832
-2.71051e-20 -0.0196209 0.00418595 344.243
0 0.019621 0.00418598 230.388
0 0.0200082 0.001684 46.8493
0 -0.0200082 0.00168399 88.0807
0 -0.0200926 6.73445e-05 562.103
-1.35525e-20 0.0200927 6.74618e-05 549.852
0 -0.0200965 -8.39152e-19 561.727
0 0.0200966 -7.09534e-19 549.467
0 -0.0201334 8.4998e-18 545.594
0 0.0201335 8.62606e-18 532.977
2.71051e-20 -0.0195081 0.00505258 1307.23
-1.35525e-20 0.0195081 0.00505262 1304.28
0 0.0200347 0.00229462 33.141
-2.25875e-21 -0.0200347 0.0022946 76.439
0 -0.0199605 0.00311668 95.085
-2.03288e-21 0.0199605 0.00311671 42.1296
1.35525e-20 -0.020225 6.93279e-05 503.853
0 0.0202253 6.94576e-05 490.31
-1.35525e-20 -0.0202304 -1.78061e-17 503.812
1.35525e-20 0.0202307 -1.76953e-17 490.267
-3.38813e-21 -0.0199314 0.00385542 198.026
4.51751e-21 0.0199314 0.00385544 114.875
-6.77626e-21 0.0196737 0.00514811 1242.39
-1.35525e-20 -0.0196737 0.00514812 1245.41
3.61401e-21 -0.0198941 0.00456695 829.2
7.52316e-38 0.0198941 0.00456697 758.306
0 -0.0197657 0.00520119 1344.15
1.35525e-20 0.0197657 0.00520124 1341.31
4.51751e-21 -0.0198219 0.00501114 1415.94
0 0.0198219 0.00501119 1413.05
-2.71051e-20 -0.0202897 0.00277314 65.5064
-2.71051e-20 0.0202897 0.00277314 27.4151
-2.71051e-20 -0.0202612 0.00349046 94.4412
2.71051e-20 0.0202612 0.00349047 42.4766
0 0.0199065 0.00528242 1803.99
2.71051e-20 -0.0199065 0.00528242 1806.84
-2.71051e-20 -0.0202451 0.00417935 195.913
0 0.0202451 0.00417938 109.21
-5.42101e-20 0.0206574 0.00171968 40.3018
1.0842e-19 -0.0206574 0.00171968 79.8734
4.51751e-21 -0.0201293 0.004986 1368.37
1.50584e-21 0.0201293 0.00498603 1311.06
0 0.0200532 0.00536706 1660.35
-6.77626e-21 -0.0200532 0.00536708 1663.43
2.82344e-22 -0.0206314 0.00242245 65.8562
-5.64689e-22 0.0206314 0.00242249 28.8983
0 0.0207755 0.000514881 303.788
-5.42101e-20 -0.0207756 0.000514862 320.847
0 -0.0205987 0.00311576 70.446
-1.12938e-21 0.0205987 0.00311576 30.6617
-2.71051e-20 -0.0203105 0.00476265 532.129
-2.71051e-20 0.0203105 0.00476269 352.857
-6.77626e-21 -0.0201708 0.00543492 1652.26
2.03288e-20 0.0201709 0.00543498 1649.12
4.51751e-21 -0.0202177 0.00527681 1769.74
-4.51751e-21 0.0202177 0.00527687 1766.79
-3.38813e-21 -0.0205738 0.00381737 117.267
1.12938e-21 0.0205738 0.00381738 60.0738
4.51751e-21 -0.0205819 0.00447085 291.92
0 0.0205819 0.00447087 180.093
0 -0.0203369 0.00553075 1819.04
0 0.0203371 0.00553081 1816
5.42101e-20 -0.0209426 0.00274697 57.2051
0 0.0209426 0.00274698 23.3413
0 -0.0209032 0.00344943 65.151
8.13152e-20 0.0209032 0.00344944 29.6807
-1.35525e-20 -0.0204447 0.0055929 1803.48
-1.35525e-20 0.0204447 0.00559292 1800.54
-1.35525e-20 -0.0204858 0.00548981 1813.65
0 0.0204858 0.00548988 1810.71
7.52918e-22 -0.0206004 0.00512924 1192.64
2.25875e-21 0.0206004 0.00512925 1120.59
-5.42101e-20 -0.0208995 0.00412601 111.895
-2.71051e-20 0.0208995 0.00412602 58.1352
1.35525e-20 0.0213128 8.97542e-05 281.86
0 -0.0213128 8.9712e-05 299.986
1.35525e-20 0.0213193 -2.80333e-18 281.876
-1.35525e-20 -0.0213194 -2.88788e-18 300
6.77626e-21 0.0213562 0.00112751 159.326
0 -0.0213563 0.0011275 188.384
2.03288e-20 0.0206272 0.00569817 1941.14
-6.77626e-21 -0.0206273 0.00569821 1944.4
0 -0.0208932 0.00478631 290.6
0 0.0208932 0.00478633 172.762
2.25875e-21 0.0213143 0.00228572 29.1666
1.12938e-21 -0.0213143 0.00228571 65.0411
0 0.02144 1.08456e-18 274.844
-1.35525e-20 -0.0214401 1.0845e-18 293.298
0 -0.0206784 0.00572772 1908.23
0 0.0206785 0.00572775 1904.85
-2.82344e-22 -0.0212371 0.00307351 58.685
-2.82344e-22 0.0212371 0.00307352 24.9279
6.77626e-21 -0.0207149 0.00567146 1875.15
0 0.020715 0.00567136 1871.7
6.77626e-21 -0.0207375 0.00576179 1944.38
6.77626e-21 0.0207376 0.00576188 1940.96
3.01167e-21 -0.0208293 0.00551232 1650.12
3.01167e-21 0.0208293 0.00551235 1633.24
0 -0.0215471 0.000109115 286.344
0 0.0215471 0.000109145 267.37
0 0.0215566 9.65884e-19 267.242
0 -0.0215566 9.65614e-19 286.222
-3.17637e-22 -0.0212592 0.00373091 78.9861
-3.17637e-22 0.0212592 0.00373092 38.6023
-3.38813e-21 -0.0212042 0.00445828 161.553
0 0.0212042 0.00445829 90.667
0 -0.0209535 0.0058866 2171.91
-1.35525e-20 0.0209535 0.00588664 2168.01
6.77626e-21 -0.0211675 0.00514624 642.874
-6.77626e-21 0.0211675 0.00514627 555.168
-1.35525e-20 -0.0210048 0.00583271 2119.19
0 0.0210048 0.00583278 2115.29
0 0.0216644 0.00284434 20.583
0 -0.0216644 0.00284434 52.5108
2.71051e-20 -0.0210555 0.00594567 1833.37
0 0.0210555 0.00594567 1829.26
0 0.0216616 0.00329946 22.4961
2.71051e-20 -0.0216616 0.00329945 54.809
0 -0.0215297 0.00411132 73.7546
-2.71051e-20 0.0215297 0.00411133 38.1178
0 -0.0212154 0.00559337 1372.3
1.12938e-21 0.0212154 0.0055934 1318.95
0 0.0219546 0.00177015 38.2362
5.42101e-20 -0.0219546 0.00177015 78.6513
-5.42101e-20 0.0220217 0.000571054 245.406
-5.42101e-20 -0.0220218 0.000571066 265.475
0 -0.0215068 0.00478713 162.293
0 0.0215068 0.00478716 88.7213
0 0.0219097 0.00242093 25.9342
-8.47033e-22 -0.0219097 0.00242092 59.8537
6.77626e-21 0.021227 0.00604556 1497.68
-6.77626e-21 -0.0212271 0.00604561 1502.54
-1.35525e-20 -0.0218721 0.0030677 52.0989
0 0.0218721 0.0030677 20.5412
-2.71051e-20 -0.0215266 0.00539882 433.235
0 0.0215266 0.00539885 301.075
-4.51751e-21 -0.021392 0.00594167 1582.85
-9.03502e-21 0.021392 0.00594175 1577.97
8.47033e-22 0.0218838 0.00375445 27.2956
1.69407e-21 -0.0218838 0.00375445 59.1766
-1.35525e-20 -0.0213574 0.00612127 1429.91
0 0.0213576 0.00612138 1424.6
0 -0.0218345 0.00443965 95.8404
-1.12938e-21 0.0218345 0.00443967 51.3029
2.71051e-20 -0.0221011 0.00283877 49.6037
2.71051e-20 0.0221011 0.00283877 19.1879
2.71051e-20 -0.0220656 0.0032889 50.8971
2.71051e-20 0.0220656 0.00328891 19.0569
-2.25875e-21 -0.0218182 0.00510344 234.452
2.25875e-21 0.0218183 0.00510346 151.508
0 -0.0215448 0.00623065 1547.42
-1.35525e-20 0.0215448 0.00623071 1542.2
-1.35525e-20 0.0225384 9.17221e-05 242.108
0 -0.0225384 9.17064e-05 262.271
1.35525e-20 0.0225403 1.79113e-19 242.155
0 -0.0225404 1.78131e-19 262.316
0 0.0216442 0.0063096 1534.31
-1.35525e-20 -0.0216442 0.00630959 1539.54
-2.71051e-20 -0.0221735 0.00407695 54.6546
-2.71051e-20 0.0221736 0.00407697 26.1298
0 0.0216896 0.0061912 1548.78
0 -0.0216897 0.00619112 1553.99
7.52918e-22 -0.0218103 0.00580094 1016.4
-7.52918e-22 0.0218103 0.00580096 958.561
0 0.0225989 0.00115695 141.677
0 -0.0225989 0.00115695 172.074
0 0.0226373 8.21489e-20 242.386
0 -0.0226373 8.09897e-20 262.558
5.42101e-20 -0.0221353 0.00476853 91.6131
-2.71051e-20 0.0221353 0.00476855 51.6082
0 0.022582 0.00236336 27.3928
-3.38813e-21 -0.022582 0.00236336 63.4412
4.23516e-22 0.0225009 0.00305827 18.2457
0 -0.022501 0.00305827 50.0702
0 0.0225095 0.00306052 18.2004
-6.69156e-20 -0.0225142 0.0030581 50.0278
1.35525e-20 -0.0227255 8.81882e-05 260.32
-1.35525e-20 0.0227256 8.82072e-05 240.021
0 -0.0227307 3.10213e-20 260.308
-1.35525e-20 0.0227308 3.16342e-20 240.007
0 0.0218385 0.00644695 1564.84
3.38813e-21 -0.0218386 0.00644701 1570.05
2.71051e-20 -0.0221179 0.00543869 230.379
0 0.0221179 0.00543873 149.705
1.69407e-21 -0.0218565 0.0064596 1559.8
1.69407e-21 0.0218565 0.00645965 1554.5
0 -0.0218724 0.00643784 1553.46
0 0.0218726 0.00643772 1548.1
0 -0.0218744 0.00647341 1573.2
3.38813e-21 0.0218746 0.00647358 1568.02
-1.58113e-21 -0.0225287 0.00364569 52.2238
-1.807e-21 0.0225287 0.00364571 21.8939
2.25875e-21 -0.0224649 0.00441818 63.7229
-1.12938e-21 0.022465 0.00441819 32.662
4.51751e-21 -0.0220386 0.00622588 1381.39
-3.01167e-21 0.0220386 0.00622594 1361.95
1.12938e-21 -0.0224373 0.00510162 128.982
-3.38813e-21 0.0224374 0.00510164 77.6704
0 -0.022069 0.00662861 1719.46
-1.35525e-20 0.0220691 0.00662869 1714.39
-2.71051e-20 -0.0221728 0.00656824 1702.62
-2.71051e-20 0.0221729 0.00656835 1697.56
-9.03502e-21 -0.0223901 0.00581141 534.12
-2.25875e-21 0.0223901 0.00581147 457.838
0 -0.0227864 0.00407104 48.4313
0 0.0227864 0.00407104 20.199
-1.35525e-20 -0.0221653 0.00670526 1771
-1.35525e-20 0.0221653 0.0067053 1766.01
0 0.0232274 0.000581677 236.445
0 -0.0232275 0.000581678 256.849
2.71051e-20 -0.0227665 0.00474853 60.8243
0 0.0227666 0.00474854 33.1048
0 0.0231993 0.00176868 38.6435
5.42101e-20 -0.0231993 0.00176868 80.1339
-1.35525e-20 -0.0222608 0.00678087 1834.72
-1.35525e-20 0.0222609 0.00678088 1830.09
-2.71051e-20 -0.0223061 0.0066761 1790.32
1.35525e-20 0.0223061 0.00667615 1785.59
7.26028e-22 -0.0224559 0.00637514 1221.33
-1.04871e-21 0.0224559 0.00637519 1162.17
-5.42101e-20 -0.023153 0.00306261 49.4508
0 0.023153 0.00306261 15.6066
2.71051e-20 -0.0227373 0.00543366 129.335
0 0.0227374 0.0054337 73.6536
-1.41172e-22 0.0231517 0.00371753 17.5049
3.29402e-22 -0.0231517 0.00371752 47.8774
1.86347e-20 0.0224506 0.00693113 1958
-6.77626e-21 -0.0224506 0.00693118 1963.19
-1.12938e-21 -0.0230941 0.00439939 51.3905
5.64689e-22 0.0230941 0.00439939 23.2274
0 -0.0224718 0.00694794 1974.67
-1.69407e-21 0.0224719 0.00694799 1969.56
-3.38813e-21 -0.0224912 0.0069255 1965.67
1.69407e-21 0.0224914 0.00692542 1960.52
5.42101e-20 -0.0227469 0.00606424 343.809
0 0.0227469 0.00606428 222.571
3.38813e-21 -0.0224923 0.00696421 1970.8
-8.47033e-21 0.0224926 0.00696436 1965.58
-4.51751e-21 -0.0230702 0.00507677 78.4349
1.12938e-21 0.0230702 0.00507679 42.596
-3.01167e-21 -0.0226501 0.00674885 1763.96
-1.50584e-21 0.0226501 0.00674891 1740.59
-3.38813e-21 -0.0230547 0.0057392 181.089
0 0.0230547 0.00573923 109.948
0 0.0237727 6.9468e-05 236.126
0 -0.0237727 6.946e-05 256.073
1.35525e-20 0.0237733 3.61652e-20 236.128
0 -0.0237733 3.57767e-20 256.077
0 -0.0234288 0.00404821 46.133
0 0.0234288 0.00404821 16.3575
1.35525e-20 -0.0227099 0.00713632 2031.57
1.35525e-20 0.02271 0.00713641 2025.25
0 -0.0238467 -1.44311e-21 256.162
0 0.0238467 -1.45864e-21 236.274
-4.51751e-21 0.0238238 0.00116196 138.362
1.12938e-21 -0.0238238 0.00116196 169.654
1.35525e-20 -0.0227817 0.00707289 1978.36
0 0.0227818 0.00707302 1972.08
-2.71051e-20 -0.0233918 0.0047262 50.25
0 0.0233918 0.00472621 23.3328
0 -0.023014 0.0064061 701.633
0 0.023014 0.00640616 607.266
0 -0.0239154 6.70031e-05 255.917
0 0.0239154 6.70111e-05 236.029
0 -0.0239174 -9.71216e-22 255.917
1.35525e-20 0.0239174 -9.82538e-22 236.029
0 0.0237984 0.00239289 26.9192
-3.38813e-21 -0.0237984 0.00239289 66.3115
0 -0.0228223 0.00722527 1625.65
2.71051e-20 0.0228223 0.00722532 1619.23
2.71051e-20 -0.0233899 0.00538613 73.9741
-2.71051e-20 0.0233899 0.00538614 40.7123
-2.71051e-21 -0.0230284 0.00685517 1292.08
2.71051e-21 0.0230285 0.00685522 1230.92
1.12938e-22 0.0238366 0.00363265 15.3499
-2.25875e-22 -0.0238366 0.00363263 48.1789
-7.52918e-22 -0.0237221 0.00437772 47.7257
-1.50584e-21 0.0237221 0.00437772 18.3604
0 -0.0233571 0.00605947 168.839
2.71051e-20 0.0233571 0.0060595 97.5812
-4.23516e-21 0.0230006 0.00736631 1050.33
0 -0.0230006 0.00736634 1057.75
2.11758e-20 -0.023013 0.00737611 1050.08
2.03288e-20 0.0230131 0.0073762 1042.52
-9.03502e-21 -0.0231562 0.00719479 1278.43
4.51751e-21 0.0231562 0.00719486 1271.16
0 -0.0237825 0.00497092 57.1606
-5.64689e-22 0.0237825 0.00497093 27.4548
0 -0.0233676 0.00666646 415.294
0 0.0233676 0.0066665 275.881
0 -0.023688 0.00571603 95.9732
2.25875e-21 0.023688 0.00571605 54.0092
0 -0.0232066 0.00752929 1293.05
1.35525e-20 0.0232066 0.00752931 1285.78
0 -0.0244467 0.000582597 255.114