# omega  POINT_DATA 28110
# x  y  z  omega
0.015557 -1.35525e-20 5.70113e-08 1597.19
-0.015557 1.35525e-20 5.70113e-08 1597.56
-0.015557 -6.77626e-21 0.000135948 1592.81
0.015557 0 0.000135964 1592.46
-0.015557 6.77626e-21 0.000527058 1977.65
0.015557 6.77626e-21 0.000527125 1977.38
-0.015557 1.35525e-20 0.000659558 2219.98
0.015557 -1.35525e-20 0.000659639 2219.74
-0.0155569 0 0.000798557 2449.73
0.015557 0 0.000798637 2449.59
-0.0155569 6.77626e-21 0.00121614 3071.33
0.0155569 0 0.00121623 3071.34
-0.0155569 -6.77626e-21 0.00135476 3221.98
0.0155569 0 0.00135485 3221.99
-0.0156159 0 6.65977e-05 1608.92
0.0156159 -6.77626e-21 6.66114e-05 1608.54
0.015617 -6.77626e-21 5.8671e-08 1608.36
-0.015617 0 5.86705e-08 1608.74
-0.0156133 0 0.000593966 2124.26
0.0156133 -6.77626e-21 0.00059404 2123.98
0.0156101 0 0.000721026 2356.8
-0.0156101 6.77626e-21 0.000720945 2357.01
-0.0155569 -6.77626e-21 0.00150199 3342.69
0.0155569 0 0.00150206 3342.88
-0.0156099 -6.77626e-21 0.00127797 3186.08
0.0156099 6.77626e-21 0.00127806 3186.07
0.0156067 -6.77626e-21 0.00140498 3322.34
-0.0156067 0 0.00140489 3322.26
-0.0156758 -6.77626e-21 6.25738e-08 1527.52
0.0156758 6.77626e-21 6.25741e-08 1527
-0.0155569 1.35525e-20 0.00193255 2633.13
0.0155569 0 0.00193257 2633.5
-0.0156643 -2.71051e-20 0.000653593 2058.1
0.0156643 1.35525e-20 0.000653701 2047.68
0.015557 -6.77626e-21 0.002087 2021.71
-0.015557 6.77626e-21 0.002087 2021.52
0.0156581 2.03288e-20 0.00132521 2914.3
-0.0156581 0 0.00132509 2934.53
0.0156109 0 0.00197556 2366.9
-0.0156109 0 0.00197554 2366.59
-0.01562 0 0.00210848 1781.83
0.01562 -6.77626e-21 0.00210848 1782.03
0.0156426 0 0.00205604 1892.26
-0.0156426 6.77626e-21 0.00205603 1892.02
0.0156707 0 0.00197912 1950.32
-0.0156707 -6.77626e-21 0.00197907 1970.67
-0.0156949 0 0.00213398 1856.31
0.0156949 0 0.00213398 1856.52
0.015885 6.77626e-21 7.41484e-08 1598.19
-0.015885 6.77626e-21 7.41473e-08 1598.82
-0.01589 -4.51751e-21 0.00034758 1576.63
0.01589 -3.76459e-22 0.000347688 1568.95
-0.0158834 2.71051e-21 0.000956113 2660.79
0.0158834 -4.51751e-22 0.000956328 2637.06
0.0158471 7.52918e-22 0.00154379 3303.56
-0.0158471 7.52918e-22 0.00154362 3336.76
-0.0158414 1.69407e-21 0.00196386 1787.09
0.0158414 -1.12938e-21 0.00196392 1787.46
-0.015839 0 0.00218308 1343.78
0.015839 -1.35525e-20 0.00218308 1344.09
-0.0159079 -4.06576e-20 0.00220656 1411.01
0.0159079 0 0.00220656 1411.17
-0.0160357 0 0.00166133 1751.04
0.0160357 1.12938e-21 0.00166159 1690.22
-0.0161335 0 1.64555e-05 1145.37
0.0161337 4.23516e-22 1.6266e-05 1143.82
-0.0161343 -4.23516e-22 5.30999e-08 1144.54
0.0161345 0 5.30909e-08 1142.99
-0.0159895 -4.06576e-20 0.00223438 1085.72
0.0159896 0 0.00223438 1086.03
-0.0161453 0 5.24551e-08 1115.28
0.0161479 0 3.0392e-06 1114.04
-0.0161363 -2.25875e-21 0.000658258 1161.49
0.0161363 0 0.00065863 1120.34
-0.016108 0 0.00123662 1342.2
0.0161079 -2.25875e-21 0.00123704 1271.57
-0.0162278 -2.63521e-21 0.00195621 956.594
0.0162278 7.52918e-22 0.00195641 951.482
0.0161979 6.77626e-21 0.00230534 1287.44
-0.0161979 0 0.00230537 1286.65
-0.0162561 6.77626e-21 0.00232518 1313.28
0.0162561 6.77626e-21 0.00232518 1314.17
-0.016267 0 0.00230119 1307.89
0.016267 0 0.00230117 1308.8
-0.0162975 1.35525e-20 0.00227122 1232.39
0.0162975 -6.77626e-21 0.00227118 1230.47
-0.0162994 1.35525e-20 0.00233991 1380.04
0.0162994 6.77626e-21 0.00233992 1380.97
0.0164713 -4.51751e-21 0.000318776 822.987
-0.0164713 9.03502e-21 0.00031848 826.178
0.0164838 -4.51751e-21 0.000934132 515.215
-0.0164839 4.51751e-21 0.000933459 545.295
-0.0165151 2.71051e-20 8.91788e-08 850.285
0.0165151 0 8.91806e-08 847.982
0.0164768 -4.51751e-21 0.00151147 542.523
-0.0164769 9.03502e-21 0.00151089 570.431
0.0166394 0 9.23357e-08 895.09
-0.0166394 0 9.23334e-08 897.521
-0.0165053 0 0.00241002 1712.88
0.0165054 1.35525e-20 0.00241002 1714.13
0.0167038 2.71051e-20 0.000635416 676.066
-0.0167039 0 0.000634646 688.596
0.0165943 5.64689e-22 0.00217414 1543.63
-0.0165943 -1.41172e-21 0.00217395 1544.34
0.0167298 0 0.00122679 479.07
-0.0167299 0 0.00122589 498.629
0.0166885 0 0.00181391 785.792
-0.0166886 -2.71051e-20 0.00181341 805.576
-0.0166608 -1.35525e-20 0.00246303 1984.98
0.016661 0 0.00246306 1986.51
0.0168423 -1.35525e-20 7.0937e-08 873.521
-0.0168423 1.35525e-20 7.09338e-08 876.572
0.0169749 -2.25875e-21 0.000303039 829.229
-0.016975 2.25875e-21 0.000302648 833.407
-0.0168731 0 0.0022093 1609.11
0.0168731 1.12938e-21 0.00220951 1592.09
0.016996 0 0.000918683 262.934
-0.0169961 -6.77626e-21 0.000917792 292.349
0.0168625 -2.03288e-20 0.00253161 2593.5
-0.0168625 0 0.00253162 2592.18
0.0169886 -4.51751e-21 0.00152442 260.93
-0.0169887 -4.51751e-21 0.00152371 292.193
0.0170875 0 2.4605e-08 846.468
-0.0170875 0 2.46021e-08 850.066
0.0169822 4.51751e-21 0.00199465 611.075
-0.0169822 0 0.00199427 658.152
-0.0169516 -9.03502e-21 0.00241979 2449.85
0.0169517 9.03502e-21 0.00241989 2451.31
-0.0169616 -1.35525e-20 0.00256534 2614.79
0.0169617 -2.03288e-20 0.00256538 2615.9
0.0172725 2.71051e-20 0.000609814 524.752
-0.0172727 0 0.000608963 538.09
0.017301 2.71051e-20 3.86873e-09 856.59
-0.0173011 2.71051e-20 3.86453e-09 860.212
0.0172756 0 0.0012186 222.637
-0.0172758 5.42101e-20 0.00121766 239.301
0.0172503 0 0.00183262 447.697
-0.0172504 2.71051e-20 0.00183214 478.95
-0.0171625 0 0.00263367 1880.79
0.0171625 0 0.00263369 1881.35
-0.0172627 -3.95282e-21 0.00228337 1420.1
0.0172628 -5.64689e-22 0.00228356 1392.26
0.0175152 -1.35525e-20 3.90438e-09 845.824
-0.0175152 0 3.90115e-09 849.558
0.0176166 -6.77626e-21 0.000304265 804.964
-0.0176168 -4.51751e-21 0.000303958 809.922
0.0176138 -1.12938e-21 0.000914505 196.268
-0.0176139 0 0.000913847 226.834
0.0175986 1.12938e-21 0.00154662 150.331
-0.0175987 1.12938e-21 0.0015461 178.199
0.0174824 0 0.00274279 1914.43
-0.0174824 -1.01644e-20 0.0027428 1914.72
-0.0174954 -1.69407e-21 0.00274721 1909.24
0.0174955 3.72694e-20 0.00274726 1908.85
0.0177275 -1.35525e-20 5.30347e-09 845.335
-0.0177276 4.06576e-20 5.30237e-09 848.951
-0.0176266 -9.03502e-21 0.00211798 530.689
0.0176266 2.25875e-21 0.00211823 460.214
-0.0175733 4.51751e-21 0.00255362 1795.52
0.0175734 -4.51751e-21 0.0025537 1793.2
0.0179395 0 5.36713e-09 865.311
-0.0179395 0 5.36695e-09 868.692
0.0179446 -2.71051e-20 0.000602236 514.617
-0.0179448 -2.71051e-20 0.000601852 531.59
0.0179404 2.71051e-20 0.00122938 134.531
-0.0179405 0 0.00122893 166.014
-0.0179 -2.71051e-20 0.00190852 377.021
0.0179 -2.71051e-20 0.00190875 340.21
-0.0177928 0 0.00284873 1477.84
0.0177928 2.71051e-20 0.00284875 1477.16
-0.0179476 2.71051e-20 0.0024258 1044.12
0.0179477 2.71051e-20 0.00242589 1019.39
0.0181451 0 4.40341e-09 876.715
-0.0181451 0 4.40324e-09 880.039
-0.0180159 4.06576e-20 0.00292502 1301.3
0.018016 0 0.00292506 1300.23
0.0182715 -2.25875e-21 0.000300999 822.459
-0.0182716 9.03502e-21 0.000300875 827.989
0.0182775 -9.03502e-21 0.000913342 208.77
-0.0182775 -9.03502e-21 0.00091307 236.061
-0.0182702 -2.25875e-21 0.00156202 155.274
0.0182702 2.25875e-21 0.00156224 122.501
-0.0182366 6.77626e-21 0.00214879 357.319
0.0182366 4.51751e-21 0.00214891 325.895
0.0181444 -6.77626e-21 0.00296949 1344.31
-0.0181446 -6.77626e-21 0.00296953 1345.45
-0.0181872 9.03502e-22 0.00270867 1271.52
0.0181872 6.77626e-22 0.00270873 1268.73
0.0183921 1.35525e-20 2.43155e-09 890.469
-0.0183922 1.35525e-20 2.43148e-09 893.649
-0.0185886 0 1.46532e-09 911.869
0.0185886 0 1.46539e-09 908.837
-0.0183446 -1.35525e-20 0.00303802 1511.21
0.0183446 0 0.00303804 1510.25
0.0185996 -2.71051e-20 0.000595038 533.277
-0.0185997 0 0.000594918 548.944
-0.0186737 5.80823e-21 0.00129278 133.13
0.0186737 1.16165e-20 0.00129291 101.954
-0.0187703 -1.35525e-20 1.23409e-09 921.518
0.0187703 1.35525e-20 1.23413e-09 918.517
0.0185175 2.03288e-20 0.00309812 1580.1
-0.0185175 2.03288e-20 0.00309812 1581.07
-0.0187148 -1.35525e-20 0.00187601 170.741
0.0187148 9.03502e-21 0.00187608 130.984
-0.0186674 0 0.00253515 859.568
0.0186674 3.01167e-21 0.00253519 828.935
0.018823 4.51751e-21 0.000903657 215.335
-0.018823 -4.51751e-21 0.00090356 242.922
0.0188705 -4.51751e-21 0.0002483 879.933
-0.0188706 -2.25875e-21 0.000248266 884.563
-0.0186437 0 0.002939 1596.49
0.0186438 0 0.00293906 1595.54
-0.0189391 0 0.00154412 104.098
0.0189391 0 0.00154419 72.2069
0.0187701 -9.74088e-21 0.00318665 1897.44
-0.0187699 1.43996e-20 0.00318654 1898.5
0.0188367 -1.35525e-20 0.00285269 1439.08
-0.0188367 -1.35525e-20 0.00285269 1458.47
0.0190684 0 6.42265e-10 946.846
-0.0190684 1.35525e-20 6.42229e-10 949.766
-0.018947 0 0.00220299 193.599
0.018947 2.71051e-20 0.00220303 148.583
-0.0189611 6.77626e-21 0.00294132 1597.96
0.0189611 0 0.00294137 1579.51
-0.0192376 0 4.16948e-10 988.817
0.0192376 -2.71051e-20 4.16969e-10 985.986
0.0192505 6.77626e-21 0.000578858 570.986
-0.0192506 2.25875e-21 0.000578833 588.078
-0.0192654 -9.03502e-21 0.00120337 143.64
0.0192654 0 0.0012034 111.124
-0.0192728 6.77626e-21 0.00186871 135.052
0.0192728 4.51751e-21 0.00186874 96.1666
-0.0190865 2.71051e-20 0.00329541 2297.29
0.0190867 2.71051e-20 0.00329547 2296.14
-0.0193938 0 3.58644e-10 1000.72
0.0193938 -2.71051e-20 3.58662e-10 997.874
0.0193936 -1.35525e-20 0.000130553 997.038
-0.0193936 -4.06576e-20 0.000130545 999.888
-0.0191339 0 0.00323263 2258.43
0.019134 0 0.00323272 2257.31
-0.0192591 4.51751e-21 0.00254519 563.008
0.0192591 0 0.00254522 512.227
-0.0192048 0 0.003336 1960.87
0.0192049 1.35525e-20 0.00333604 1959.78
-0.0193217 2.93638e-21 0.00298746 1465.42
0.0193218 -1.58113e-21 0.0029875 1431.99
0.0195688 0 0.000280898 1015.8
-0.0195688 -2.71051e-20 0.00028089 1018.63
0.0195891 -2.71051e-20 0.000871761 157.993
-0.0195891 2.71051e-20 0.000871755 192.534
-0.019374 1.35525e-20 0.0032822 1881.82
0.019374 -1.35525e-20 0.00328227 1880.68
-0.0196057 0 0.00151348 97.3138
0.0196057 2.71051e-20 0.0015135 62.5979
-0.0193742 -2.71051e-20 0.00339404 1832.86
0.0193743 0 0.00339406 1831.7
-0.0196063 -5.42101e-20 0.0021914 140.99
0.0196063 0 0.00219141 96.9391
0.0197445 0 1.1881e-10 1055.14
-0.0197445 0 1.1881e-10 1057.92
0.0197496 -1.35525e-20 0.000118775 1055.26
-0.0197497 0 0.000118767 1058.05
-0.0196349 -5.42101e-20 0.00277709 421.355
0.019635 -2.71051e-20 0.00277712 334.767
-0.0195953 0 0.00324376 2119.15
0.0195954 0 0.0032438 2117.93
-0.0198869 1.35525e-20 6.23641e-11 1116.82
0.0198869 1.35525e-20 6.23597e-11 1114.13
0.0199025 2.25875e-21 0.000551642 638.992
-0.0199025 9.03502e-21 0.00055164 660.509
-0.0196372 -2.71051e-20 0.00348423 1744.53
0.0196374 0 0.0034843 1743.1
-0.0199263 5.64689e-21 0.00116493 152.815
0.0199263 0 0.00116493 114.155
-0.0197065 1.35525e-20 0.0033997 1768.62
0.0197066 1.35525e-20 0.00339978 1767.18
-0.0200175 -1.35525e-20 0.000104927 1129.61
0.0200175 -1.35525e-20 0.000104918 1126.94
-0.020018 0 5.47768e-11 1130.37
0.0200181 0 5.47745e-11 1127.69
-0.0199354 -2.25875e-21 0.00184109 111.053
0.0199355 -2.25875e-21 0.0018411 71.5485
-0.0199397 -2.25875e-21 0.00250609 251.713
0.0199397 -1.12938e-21 0.0025061 185.667
-0.0198048 -1.35525e-20 0.00354162 1706.54
0.0198049 2.71051e-20 0.00354168 1705.1
-0.0199176 1.12938e-21 0.00307583 1117.81
0.0199177 2.25875e-21 0.00307587 1076.46
-0.0202108 2.71051e-20 0.000262551 1167.92
0.0202108 0 0.000262544 1165.3
-0.0202372 -2.71051e-20 0.000828952 222.425
0.0202372 0 0.00082895 174.848
-0.0199793 1.35525e-20 0.00344741 1462.45
0.0199793 -1.35525e-20 0.00344747 1460.9
-0.0199876 -6.77626e-21 0.00360417 1260.91
0.0199877 1.35525e-20 0.00360422 1259.33
-0.0202612 2.71051e-20 0.00146953 97.4368
0.0202612 0 0.00146953 58.1279
-0.0202614 2.71051e-20 0.00216708 107.394
0.0202614 -2.71051e-20 0.0021671 67.4241
-0.020424 0 1.48382e-11 1271.67
0.0204241 0 1.48336e-11 1269.08
-0.0204263 1.35525e-20 8.83618e-05 1272
0.0204264 -1.35525e-20 8.83583e-05 1269.41
-0.0201258 -2.71051e-20 0.00365147 1144.65
0.020126 2.03288e-20 0.00365154 1142.99
-0.0202574 0 0.00283409 313.196
0.0202575 -2.71051e-20 0.00283411 223.014
-0.02023 -1.35525e-20 0.00346726 1262.5
0.0202301 -8.13152e-21 0.00346732 1260.86
-0.0205366 0 8.07587e-12 1365.23
0.0205367 -1.35525e-20 8.0725e-12 1362.65
-0.0205431 1.12938e-21 0.000507235 809.244
0.0205431 0 0.000507233 782.678
-0.0205806 0 0.00109806 175.418
0.0205806 -1.12938e-21 0.00109806 129.947
-0.0206332 0 7.2332e-05 1402
0.0206332 0 7.23425e-05 1399.38
-0.0206362 0 7.47893e-12 1397.06
0.0206362 1.35525e-20 7.47568e-12 1394.44
-0.0203258 -1.35525e-20 0.00371988 1412.2
0.020326 2.71051e-20 0.00371994 1410.72
-0.0205919 -1.12938e-21 0.00179229 102.495
0.0205919 -4.51751e-21 0.00179229 59.0852
-0.0205776 1.12938e-21 0.00251302 185.941
0.0205777 0 0.00251303 124.374
-0.0204396 1.35525e-20 0.00376155 1492.43
0.0204398 0 0.00376163 1491.03
-0.0204726 -1.35525e-20 0.00364922 1488.72
0.0204728 4.06576e-20 0.00364928 1487.3
-0.0205732 -3.76459e-22 0.00324396 928.295
0.0205733 -2.25875e-21 0.003244 888.893
-0.0208433 -5.42101e-20 0.000231572 1506.98
0.0208434 0 0.000231569 1504.4
-0.0208763 2.71051e-20 0.000747796 279.553
0.0208763 0 0.000747794 226.741
-0.0209307 -2.71051e-20 0.00137566 104.961
0.0209307 0 0.00137566 59.2411
-0.0206256 0 0.00382199 1771.46
0.0206258 6.77626e-21 0.00382207 1770.2
-0.0209018 -2.71051e-20 0.00213753 100.635
0.0209018 2.71051e-20 0.00213753 51.7978
-0.0207137 0 0.00385276 1791.25
0.0207138 0 0.00385283 1790.05
-0.0208885 0 0.00285883 210.015
0.0208886 2.71051e-20 0.00285885 144.835
-0.0207601 -1.35525e-20 0.00376298 1752.69
0.0207602 0 0.00376308 1751.49
0.0211429 3.01167e-21 0.0004345 859.357
-0.0211429 3.01167e-21 0.000434502 874.421
-0.020841 -2.25875e-21 0.00362679 1582.56
0.0208411 2.25875e-21 0.00362684 1573.68
-0.0208387 -6.77626e-21 0.00389825 1917.15
0.0208388 1.35525e-20 0.0038983 1915.9
-0.0212597 0 5.25669e-13 1181.14
0.0212601 -4.65868e-21 5.198e-13 1178.06
-0.0212767 2.5411e-21 1.41099e-05 1167.56
-0.0212768 0 1.74179e-06 1179.18
0.0212769 -4.65868e-21 1.38726e-05 1164.5
0.0212813 -4.23516e-22 1.45874e-06 1176.12
0.0212895 0 2.69474e-13 1174.47
-0.0212896 0 2.7104e-13 1177.5
-0.0212723 7.52918e-22 0.000878984 321.55
0.0212724 -1.50584e-21 0.000878975 294.478
-0.0212427 -4.51751e-22 0.00171816 108.722
0.0212427 3.38813e-22 0.00171814 62.8555
-0.0212146 1.12938e-21 0.00249693 139.159
0.0212146 -3.38813e-21 0.00249694 83.4789
-0.0210353 0 0.00398139 2213.8
0.0210355 0 0.00398146 2212.74
-0.021178 0 0.00323686 628.623
0.0211781 0 0.00323687 562.549
-0.0210737 0 0.00393726 2178.09
0.0210738 0 0.00393731 2177.01
-0.0211186 1.35525e-20 0.00402021 1961.71
0.0211188 0 0.0040203 1960.42
-0.0212476 8.87368e-22 0.00368161 1475.82
0.0212478 -4.03349e-22 0.00368166 1434.22
-0.0215747 -2.71051e-20 0.00130736 119.538
0.0215747 0 0.00130737 67.2949
-0.0212486 0 0.00397488 1819.92
0.0212488 0 0.00397493 1818.46
-0.0212527 1.35525e-20 0.00408538 1716
0.021253 -6.77626e-21 0.00408549 1714.41
-0.0216407 -7.52918e-22 0.00033173 792.931
0.0216408 0 0.000331723 790.093
-0.0215441 -2.71051e-20 0.00209926 82.3398
0.0215442 2.71051e-20 0.00209926 42.337
-0.0215225 0 0.00284518 158.925
0.0215225 0 0.0028452 91.0043
-0.0217961 0 7.94919e-14 919.165
0.0217961 1.35525e-20 7.91737e-14 916.108
-0.0215506 0 0.00347094 461.356
0.0215507 0 0.00347097 337.535
-0.0214959 0 0.00395189 2119.32
0.0214961 1.35525e-20 0.00395193 2117.8
-0.0214983 6.77626e-21 0.00420475 1680.11
0.0214984 6.77626e-21 0.00420479 1678.39
-0.0218606 0 0.00170493 100.588
0.0218606 6.11746e-22 0.0017049 53.9957
-0.0219212 -2.03288e-21 0.000827127 329.292
0.0219212 -2.25875e-22 0.00082711 308.007
-0.0219609 1.35525e-20 4.02034e-14 949.765
0.021961 -1.35525e-20 4.01314e-14 946.071
-0.0218494 -1.12938e-21 0.00247003 109.884
0.0218494 0 0.00247004 57.2985
-0.0216145 0 0.00413981 1778.72
0.0216145 1.35525e-20 0.00413983 1777.07
-0.0216502 1.35525e-20 0.00427857 1861.18
0.0216503 0 0.00427863 1859.59
-0.0218421 1.12938e-21 0.00317495 273.391
0.0218422 -2.25875e-21 0.00317496 177.713
-0.0217324 0 0.00431835 1880.26
0.0217325 0 0.00431843 1878.72
-0.0217583 0 0.00423555 1904.28
0.0217584 1.35525e-20 0.0042356 1902.75
-0.0221733 0 2.81576e-14 858.027
0.0221735 -6.77626e-21 2.80965e-14 854.388
0.021866 0 0.00385231 1218.67
-0.021866 -7.05861e-23 0.00385234 1280.85
-0.0222021 -2.71051e-20 0.00129532 120.851
0.0222022 0 0.00129532 69.0739
0.0222508 -7.05861e-23 0.00033038 746.775
-0.0222515 3.5293e-23 0.000329552 750.882
-0.0221694 2.71051e-20 0.00208071 77.9732
0.0221694 -2.71051e-20 0.00208072 36.8028
-0.0218631 -1.35525e-20 0.00438174 2060.33
0.0218633 1.35525e-20 0.00438183 2058.82
0.0223211 0 1.21342e-14 851.019
-0.0223212 6.77626e-21 1.21355e-14 854.836
-0.0221597 -2.71051e-20 0.00282094 118.88
0.0221598 -2.71051e-20 0.00282094 58.0843
-0.0221457 0 0.00350913 329.269
0.0221457 -5.42101e-20 0.00350915 203.469
-0.0220148 -6.77626e-21 0.00445531 2031.14
0.0220149 6.77626e-21 0.00445537 2029.59
-0.0225415 0 1.22276e-15 952.576
0.0225416 0 1.23378e-15 947.781
-0.0221394 1.12938e-21 0.00425961 1900.23
0.0221395 1.12938e-21 0.00425967 1891.89
-0.0224964 1.77877e-20 0.00168456 96.9711
0.0224964 -4.23516e-22 0.0016846 51.4866
-0.0225021 0 0.00168479 96.6462
0.0225021 0 0.00168483 51.3417
0.0225129 0 0.00168799 51.3483
-0.022513 0 0.00168798 96.5688
-0.022576 2.71051e-21 0.000874276 331.072
0.0225761 4.51751e-21 0.000874269 297.015
-0.0225135 -7.26028e-22 0.00242345 99.0097
0.0225136 6.45358e-22 0.00242345 46.8111
-0.0224593 -2.25875e-21 0.00318123 187.31
0.0224593 0 0.00318124 106.675
-0.0223019 -3.38813e-21 0.00459436 1877.99
0.022302 -3.38813e-21 0.00459437 1876.12
-0.0224349 -9.03502e-22 0.00390505 798.303
0.022435 9.48677e-21 0.00390508 719.08
-0.0228059 -1.27055e-20 8.70912e-16 768.152
0.0228061 4.23516e-22 8.77264e-16 763.065
-0.022811 2.96462e-21 2.46648e-05 760.85
0.0228111 0 2.39222e-05 755.96
-0.0223412 3.38813e-21 0.00461337 1890.16
0.0223413 3.38813e-21 0.00461342 1888.27
0.0228141 4.23516e-22 8.58194e-16 763.651
-0.0228142 2.5411e-20 8.51405e-16 768.775
-0.0228118 -1.12938e-21 0.000334117 700.448
0.0228118 -1.12938e-21 0.000334137 692.42
-0.022347 0 0.00460685 1879.59
0.0223471 0 0.00460689 1877.67
-0.0223545 0 0.00461977 1843.44
0.0223546 0 0.00461984 1841.44
-0.0223623 1.01644e-20 0.00458505 1804.32
0.0223624 1.69407e-21 0.00458505 1797.05
-0.0223809 0 0.0046121 1826.45
0.022381 0 0.00461216 1824.37
-0.0223957 0 0.00463972 1810
0.0223958 0 0.00463983 1807.84
-0.0225314 0 0.00433167 1315.76
0.0225315 0 0.00433171 1284.17
-0.0227767 -2.71051e-20 0.00282452 106.337
0.0227767 0 0.00282454 44.0457
-0.0229169 2.71051e-20 0.00145351 104.427
0.022917 0 0.00145354 58.0052
-0.0229127 2.71051e-20 0.001952 75.1439
0.0229127 0 0.001952 36.9829
-0.0227583 -2.71051e-20 0.00352775 187.623
0.0227583 -2.71051e-20 0.00352777 115.236
-0.0226788 -1.35525e-20 0.00436549 1150.23
0.0226789 -1.35525e-20 0.00436553 1114.59
-0.0231146 0 6.24631e-16 882.079
0.0231146 0 6.26477e-16 875.489
-0.0231263 -5.64689e-22 0.000857356 372.696
0.0231264 1.12938e-21 0.000857382 321.476
-0.0231204 0 0.00168686 88.7803
0.0231204 0 0.00168687 48.7448
-0.0226912 0 0.00478277 1563.07
0.0226912 1.35525e-20 0.00478283 1560.52
-0.0231332 -9.88205e-22 0.00244156 84.1117
0.0231332 -8.47033e-22 0.00244157 37.0901
-0.0227888 0 0.00466799 1514.05
0.0227889 -1.35525e-20 0.00466803 1511.57
-0.0230834 1.12938e-21 0.00317456 130.695
0.0230835 1.12938e-21 0.00317458 66.6474
-0.023319 0 3.10971e-16 678.647
0.0233191 6.77626e-21 3.12101e-16 671.162
-0.0230283 1.35525e-20 0.00391292 444.484
0.0230284 0 0.00391294 365.309
-0.02333 -2.71051e-20 0.00142276 96.1114
0.02333 0 0.00142278 62.4578
-0.0233168 0 0.00194192 75.1732
0.0233168 0 0.00194194 35.1994
-0.0228965 1.35525e-20 0.0048822 1384.04
0.0228966 0 0.00488226 1381.58
-0.0234102 0 0.000267243 656.442
0.0234102 2.25875e-21 0.000267244 648.366
-0.0229986 3.01167e-21 0.0043906 993.651
0.0229987 -2.25875e-21 0.00439064 939.375
0.0235162 1.35525e-20 1.75957e-16 633.648
-0.0235162 6.77626e-21 1.74953e-16 642.206
-0.0234234 0 0.00278585 77.0673
0.0234234 2.71051e-20 0.00278586 33.5054
-0.0230651 0 0.00496382 1093.43
0.0230652 -2.71051e-20 0.00496388 1090.65
-0.0233787 0 0.00352562 147.786
0.0233787 0 0.00352564 70.7692
-0.0237161 1.35525e-20 -1.12818e-16 698.157
0.0237161 1.35525e-20 -1.126e-16 688.139
-0.0232668 -1.807e-21 0.00471662 989.81
0.0232669 -1.35525e-21 0.00471667 979.375
-0.0233857 0 0.00417634 331.036
0.0233857 0 0.00417637 231.186
-0.0232203 6.77626e-21 0.00503892 1026.25
0.0232204 -1.35525e-20 0.00503899 1023.43
-0.0237642 1.97641e-21 0.000871715 367.158
0.0237642 2.82344e-22 0.000871732 328.054
-0.0237897 0 9.69712e-05 571.63
0.0237897 -1.35525e-20 9.70283e-05 560.469
-0.0237941 1.35525e-20 4.97247e-16 572.678
0.0237942 -1.35525e-20 5.01214e-16 561.521
-0.0237454 -4.23516e-22 0.00168598 83.5986
0.0237454 -9.88205e-22 0.00168599 46.8066
-0.0238504 1.35525e-20 -3.63004e-16 547.797
0.0238505 0 -3.63597e-16 536.843
-0.0237771 9.03502e-22 0.00232532 75.5912
0.0237772 4.06576e-21 0.00232532 34.9101
-0.023345 -2.71051e-20 0.00509928 1147.03
0.0233451 1.35525e-20 0.00509935 1144.32
-0.0237118 2.25875e-21 0.00315193 97.7534
0.0237118 -2.25875e-21 0.00315194 45.2233
-0.0239754 0 0.000105727 487.628
0.0239757 0 0.000105814 476.008
-0.0240029 0 2.3863e-16 483.31
-0.0236913 0 0.0038564 203.93
0.0236913 -3.38813e-21 0.00385642 122.962
0.0240032 -1.35525e-20 2.38694e-16 471.662
-0.0235265 1.69407e-20 0.00518714 1210.14
0.0235266 -1.35525e-20 0.0051872 1207.53
-0.0237117 -4.51751e-21 0.00456148 770.213
0.0237118 6.02335e-21 0.00456152 712.294
-0.0235865 0 0.00521624 1258.59
0.0235867 -6.77626e-21 0.00521631 1255.92
-0.0236569 -5.42101e-21 0.00499193 1235.99
0.023657 -5.42101e-21 0.00499199 1233.43
-0.0240359 0 0.0027785 66.0074
0.024036 -2.71051e-20 0.00277852 29.0315
-0.0240146 -2.71051e-20 0.00349448 99.4804
0.0240147 0 0.0034945 46.974
-0.0237108 0 0.00516871 1347.56
0.023711 0 0.00516878 1344.76
-0.0237215 0 0.00528159 1452.26
0.0237217 0 0.00528165 1449.34
-0.0238516 6.77626e-21 0.00489348 1133.29
0.0238517 3.38813e-21 0.00489352 1098.56
-0.0239976 0 0.00419241 221.099
0.0239977 0 0.00419244 129.305
-0.0238168 0 0.00514855 1320.93
0.0238169 -6.77626e-21 0.00514863 1302.49
-0.0238281 -6.77626e-21 0.00525503 1526.62
0.0238283 6.77626e-21 0.00525509 1523.43
-0.0238429 6.77626e-21 0.00534032 1621.38
0.023843 -6.77626e-21 0.00534036 1617.93
-0.0243893 5.42101e-20 0.00171905 76.5123
0.0243893 -5.42101e-20 0.00171905 40.6342
-0.0239789 -1.35525e-20 0.00489875 941.285
0.023979 0 0.00489881 877.288
-0.0243696 1.41172e-22 0.00243113 64.9861
0.0243706 -1.41172e-22 0.00243196 30.1249
-0.0244866 0 0.00051268 320.532
0.0244867 0 0.000512684 306.37
-0.0243442 5.64689e-22 0.00312516 73.1995
0.0243442 -3.38813e-21 0.00312517 33.6473
-0.0239577 2.03288e-20 0.00539587 1723.92
0.0239578 -2.71051e-20 0.00539595 1720.24
-0.0240298 2.1684e-20 0.00521691 1597.85
0.02403 -1.0842e-20 0.00521698 1594.5
-0.0243197 -2.25875e-21 0.00383765 134.465
0.0243198 -2.25875e-21 0.00383767 71.96
-0.0242836 2.25875e-21 0.00455364 471.939
0.0242836 -2.25875e-21 0.00455368 393.673
-0.0241601 2.71051e-20 0.00549388 1512.73
0.0241602 0 0.00549396 1509.25
-0.0242635 3.01167e-21 0.00502115 1038.14
0.0242637 3.01167e-21 0.00502121 986.973
-0.0246819 -2.71051e-20 0.00275432 56.7107
0.0246819 -2.71051e-20 0.00275433 24.7957
-0.0246457 2.71051e-20 0.00346491 70.3995
0.0246458 0 0.00346492 33.6964
-0.0243131 0 0.00556792 1208.55
0.0243132 -1.35525e-20 0.00556799 1204.56
-0.0249638 1.35525e-20 3.14504e-16 307.617
0.0249638 1.35525e-20 3.14469e-16 292.818
-0.0249658 -2.71051e-20 0.000127061 306.399
0.0249658 -1.35525e-20 0.000127084 291.512
-0.0246319 2.71051e-20 0.00416571 141.218
0.0246319 -2.71051e-20 0.00416574 73.5494
-0.0250669 -4.51751e-21 0.00111391 191.273
0.025067 -4.51751e-21 0.00111391 165.712
-0.0245277 2.25875e-21 0.00533379 1043
0.0245278 -4.51751e-22 0.00533385 1032.54
-0.0246411 2.71051e-20 0.00480622 344.85
0.0246412 0 0.00480627 241.366
-0.0251264 0 -5.57175e-18 324.131
0.0251265 2.71051e-20 -5.54308e-18 309.036
-0.0244892 0 0.00565317 1099.32
0.0244893 0 0.00565322 1095.19
-0.0250457 -3.38813e-21 0.00228488 63.9926
0.0250457 1.12938e-21 0.00228489 30.6316
-0.0249744 1.41172e-21 0.00307726 60.7654
0.0249744 2.82344e-22 0.00307727 27.8288
-0.0245965 1.35525e-20 0.00570514 1209.17
0.0245966 -2.71051e-20 0.00570519 1205.21
-0.0252751 0 0.000134702 292.726
-0.0249934 5.64689e-22 0.00376622 92.7906
0.0252752 0 0.000134716 276.868
0.0249934 8.47033e-22 0.00376624 47.3861
-0.0252845 0 -2.40076e-18 292.667
0.0252846 0 -2.39523e-18 276.806
-0.0249434 6.77626e-21 0.00449176 201.765
0.0249434 -4.51751e-21 0.00449179 128.259
-0.0247822 0 0.00579502 1273.42
0.0247823 -1.35525e-20 0.00579507 1269.51
-0.0249665 -7.52918e-21 0.00518177 799.58
0.0249666 1.50584e-21 0.00518182 743.687
-0.0248296 3.38813e-21 0.00581795 1315.54
0.0248297 -3.38813e-21 0.00581801 1311.58
-0.0249104 -1.35525e-20 0.00560274 1297.84
0.0249105 -8.13152e-21 0.00560279 1294.09
-0.0254015 -2.71051e-20 0.00285469 53.3257
0.0254015 0 0.0028547 22.3736
-0.0252645 0 0.00414474 90.8584
0.0252645 -2.71051e-20 0.00414475 49.1943
-0.0254031 2.71051e-20 0.00331055 56.5934
0.0254031 0 0.00331056 26.1975
-0.0249624 0 0.00577192 1419.36
0.0249625 -6.77626e-21 0.00577202 1415.28
-0.0249739 1.35525e-20 0.00588778 1539.88
0.024974 0 0.00588783 1535.64
-0.0252501 2.71051e-20 0.00482067 210.961
0.0252501 -2.71051e-20 0.00482071 134.216
-0.0257173 5.42101e-20 0.000556257 275.99
0.0257173 -5.42101e-20 0.000556256 259.218
-0.0250723 6.77626e-21 0.00575396 1390.18
0.0250724 1.35525e-20 0.00575407 1369.79
-0.0256699 0 0.00175088 76.0455
0.0256699 5.42101e-20 0.00175088 40.1324
-0.0256382 -2.82344e-21 0.0024157 59.5195
0.0256382 -1.97641e-21 0.00241571 27.6995
-0.0250837 -1.35525e-20 0.00586274 1625.07
0.0250838 1.35525e-20 0.00586281 1620.48
-0.0256079 1.35525e-20 0.00307876 53.3241
0.0256079 1.35525e-20 0.00307876 23.0982
-0.025098 0 0.00594767 1732.31
0.025098 0 0.0059477 1727.35
-0.0251925 -2.25875e-21 0.00555311 1192.88
0.0251926 1.12938e-20 0.00555317 1155.52
-0.0252316 0 0.00551486 975.973
0.0252317 0 0.00551494 910.589
-0.0255924 3.76459e-21 0.0037929 68.9287
0.0255924 4.51751e-21 0.00379291 35.2829
-0.0252102 2.71051e-20 0.00600189 1842.63
0.0252104 -6.77626e-21 0.00600198 1837.43
-0.0252817 8.13152e-21 0.00582896 1700.42
0.0252819 8.13152e-21 0.00582905 1695.71
-0.0255735 -3.38813e-21 0.00447397 125.427
0.0255735 2.25875e-21 0.00447399 75.1156
-0.0258318 2.71051e-20 0.0028448 49.8794
0.0258318 5.42101e-20 0.0028448 20.6132
-0.0257993 0 0.00329834 52.442
0.0257993 0 0.00329835 22.0068
-0.0255336 4.51751e-21 0.0051788 475.968
0.0255337 -2.25875e-21 0.00517885 409.662
-0.025412 -2.71051e-20 0.00609921 1589.62
0.0254122 1.35525e-20 0.00609928 1584.64
-0.0255488 2.25875e-21 0.00563576 1064.62
0.0255489 6.77626e-21 0.00563582 1016.87
0.0262229 0 -2.45033e-18 253.29
-0.0262229 0 -2.47168e-18 270.239
0.0262242 0 0.000110099 253.116
-0.0262242 1.35525e-20 0.000110094 270.072
-0.025914 -2.71051e-20 0.00409942 63.5391
0.025914 -2.71051e-20 0.00409944 33.9307
-0.0255675 0 0.00617786 1260.32
0.0255677 0 0.00617797 1254.44
-0.025876 2.71051e-20 0.00480446 129.234
0.025876 -2.71051e-20 0.00480449 77.9508
0.0263176 6.77626e-21 0.00114406 146.995
-0.0263176 -9.03502e-21 0.00114406 173.293
-0.0263544 0 1.26628e-19 269.627
0.0263544 -1.35525e-20 1.28683e-19 252.723
-0.0263095 7.90564e-21 0.00235736 62.0141
0.0263095 2.25875e-21 0.00235737 29.1723
-0.0262443 0 0.00306374 50.6111
0.0262443 -3.10226e-20 0.00306374 20.3197
-0.0262456 -1.05879e-22 0.00305714 50.7192
0.0262456 6.67038e-21 0.00305717 20.4042
0.0262459 2.11758e-22 0.00308325 20.5176
-0.0262459 0 0.00308332 50.7663
-0.0258908 0 0.00543286 332.414
0.0258909 0 0.00543291 250.621
-0.0257782 0 0.00595398 1095.69
0.0257783 -1.35525e-21 0.00595406 1084.46
-0.0264724 -1.35525e-20 0.000113036 264.555
0.0264724 -1.35525e-20 0.000113038 247.374
-0.0264809 1.35525e-20 1.33507e-19 264.517
0.0264809 0 1.34472e-19 247.335
-0.0257322 0 0.00626847 1120.14
0.0257323 0 0.00626852 1114.29
-0.0262544 -7.52918e-22 0.00364382 56.9972
0.0262544 8.47033e-22 0.00364383 27.3621
-0.0262049 -2.25875e-21 0.00444578 81.9088
0.026205 3.38813e-21 0.0044458 47.1325
-0.0258428 1.35525e-20 0.00632526 1217.5
0.025843 -1.35525e-20 0.00632535 1211.89
-0.0261907 2.25875e-21 0.00512142 189.643
0.0261908 -5.64689e-21 0.00512145 132.519
-0.0260126 0 0.00644125 1242.99
0.0260127 5.0822e-21 0.00644133 1237.6
-0.0260426 -3.38813e-21 0.00646012 1254.12
0.0260428 3.38813e-21 0.00646024 1248.76
-0.0265279 -5.42101e-20 0.00408779 51.8358
0.026528 2.71051e-20 0.0040878 26.1387
-0.0262146 3.01167e-21 0.00581641 799.327
0.0262147 -3.76459e-21 0.00581648 756.507
-0.0261568 -8.13152e-21 0.00624565 1283.04
0.026157 8.13152e-21 0.00624574 1277.69
-0.0265114 -2.71051e-20 0.0047731 81.2535
0.0265114 2.71051e-20 0.00477312 49.4795
0.0269562 0 0.000576391 240.834
-0.0269562 0 0.000576394 258.219
-0.0261882 -6.77626e-21 0.00642613 1318.65
0.0261883 -6.77626e-21 0.00642626 1313.29
0.0269247 0 0.00175757 40.5664
-0.0269247 0 0.00175757 76.3446
-0.0261875 0 0.00655335 1373.29
0.0261876 0 0.00655342 1367.9
-0.0264989 2.71051e-20 0.00545186 193.819
0.026499 0 0.0054519 135.915
-0.0268811 5.42101e-20 0.00306205 48.9342
0.0268811 1.0842e-19 0.00306205 17.3292
-0.02635 -6.77626e-21 0.00616024 1119.5
0.0263501 0 0.00616028 1092.16
-0.0262995 -6.77626e-21 0.00641282 1260.57
0.0262996 -1.35525e-20 0.00641295 1244.47
-0.0263015 0 0.00652542 1412.06
0.0263016 1.35525e-20 0.00652551 1406.69
-0.0268577 3.38813e-22 0.00373171 49.9322
0.0268577 3.95282e-22 0.00373171 22.0404
-0.0263055 6.77626e-21 0.00663191 1469.24
0.0263056 6.77626e-21 0.00663195 1463.84
-0.0264848 -1.35525e-20 0.00617549 956.63
0.0264849 0 0.00617557 910.715
-0.0268382 -2.25875e-21 0.0044189 60.0291
0.0268382 0 0.00441892 32.502
-0.0263807 2.03288e-20 0.00668199 1525.27
0.0263808 -2.03288e-20 0.00668208 1519.98
-0.0265072 1.0842e-20 0.00650855 1484.75
0.0265073 -1.89735e-20 0.00650863 1479.48
-0.0268184 0 0.00510417 114.18
0.0268185 5.64689e-21 0.00510419 74.0946
-0.0265337 -2.71051e-20 0.0067838 1601.69