# p  POINT_DATA 28110
# x  y  z  p
0.015557 -1.35525e-20 5.70113e-08 -0.0103086
-0.015557 1.35525e-20 5.70113e-08 0.0479135
-0.015557 -6.77626e-21 0.000135948 0.047914
0.015557 0 0.000135964 -0.0103086
-0.015557 6.77626e-21 0.000527058 0.0479131
0.015557 6.77626e-21 0.000527125 -0.0103086
-0.015557 1.35525e-20 0.000659558 0.0479119
0.015557 -1.35525e-20 0.000659639 -0.0103086
-0.0155569 0 0.000798557 0.0479146
0.015557 0 0.000798637 -0.0103086
-0.0155569 6.77626e-21 0.00121614 0.0479129
0.0155569 0 0.00121623 -0.0103086
-0.0155569 -6.77626e-21 0.00135476 0.0479091
0.0155569 0 0.00135485 -0.0103086
-0.0156159 0 6.65977e-05 0.0479168
0.0156159 -6.77626e-21 6.66114e-05 -0.0103085
0.015617 -6.77626e-21 5.8671e-08 -0.0103085
-0.015617 0 5.86705e-08 0.0479168
-0.0156133 0 0.000593966 0.0479154
0.0156133 -6.77626e-21 0.00059404 -0.0103085
0.0156101 0 0.000721026 -0.0103085
-0.0156101 6.77626e-21 0.000720945 0.0479162
-0.0155569 -6.77626e-21 0.00150199 0.0479113
0.0155569 0 0.00150206 -0.0103086
-0.0156099 -6.77626e-21 0.00127797 0.0479139
0.0156099 6.77626e-21 0.00127806 -0.0103085
0.0156067 -6.77626e-21 0.00140498 -0.0103085
-0.0156067 0 0.00140489 0.047913
-0.0156758 -6.77626e-21 6.25738e-08 0.0479192
0.0156758 6.77626e-21 6.25741e-08 -0.0103084
-0.0155569 1.35525e-20 0.00193255 0.0479111
0.0155569 0 0.00193257 -0.0103086
-0.0156643 -2.71051e-20 0.000653593 0.0479178
0.0156643 1.35525e-20 0.000653701 -0.0103084
0.015557 -6.77626e-21 0.002087 -0.0103085
-0.015557 6.77626e-21 0.002087 0.0479091
0.0156581 2.03288e-20 0.00132521 -0.0103084
-0.0156581 0 0.00132509 0.0479138
0.0156109 0 0.00197556 -0.0103085
-0.0156109 0 0.00197554 0.0479129
-0.01562 0 0.00210848 0.0479096
0.01562 -6.77626e-21 0.00210848 -0.0103085
0.0156426 0 0.00205604 -0.0103084
-0.0156426 6.77626e-21 0.00205603 0.0479117
0.0156707 0 0.00197912 -0.0103084
-0.0156707 -6.77626e-21 0.00197907 0.0479141
-0.0156949 0 0.00213398 0.0479158
0.0156949 0 0.00213398 -0.0103084
0.015885 6.77626e-21 7.41484e-08 -0.0103082
-0.015885 6.77626e-21 7.41473e-08 0.0479295
-0.01589 -4.51751e-21 0.00034758 0.047931
0.01589 -3.76459e-22 0.000347688 -0.0103081
-0.0158834 2.71051e-21 0.000956113 0.0479235
0.0158834 -4.51751e-22 0.000956328 -0.010308
0.0158471 7.52918e-22 0.00154379 -0.0103081
-0.0158471 7.52918e-22 0.00154362 0.0479195
-0.0158414 1.69407e-21 0.00196386 0.0479293
0.0158414 -1.12938e-21 0.00196392 -0.010308
-0.015839 0 0.00218308 0.0479284
0.015839 -1.35525e-20 0.00218308 -0.0103081
-0.0159079 -4.06576e-20 0.00220656 0.0479279
0.0159079 0 0.00220656 -0.0103081
-0.0160357 0 0.00166133 0.047937
0.0160357 1.12938e-21 0.00166159 -0.0103078
-0.0161335 0 1.64555e-05 0.0479406
0.0161337 4.23516e-22 1.6266e-05 -0.0103079
-0.0161343 -4.23516e-22 5.30999e-08 0.0479407
0.0161345 0 5.30909e-08 -0.0103079
-0.0159895 -4.06576e-20 0.00223438 0.0479373
0.0159896 0 0.00223438 -0.010308
-0.0161453 0 5.24551e-08 0.0479413
0.0161479 0 3.0392e-06 -0.0103079
-0.0161363 -2.25875e-21 0.000658258 0.0479446
0.0161363 0 0.00065863 -0.0103078
-0.016108 0 0.00123662 0.0479376
0.0161079 -2.25875e-21 0.00123704 -0.0103078
-0.0162278 -2.63521e-21 0.00195621 0.0479539
0.0162278 7.52918e-22 0.00195641 -0.0103077
0.0161979 6.77626e-21 0.00230534 -0.0103077
-0.0161979 0 0.00230537 0.0479448
-0.0162561 6.77626e-21 0.00232518 0.0479437
0.0162561 6.77626e-21 0.00232518 -0.0103077
-0.016267 0 0.00230119 0.0479456
0.016267 0 0.00230117 -0.0103077
-0.0162975 1.35525e-20 0.00227122 0.0479502
0.0162975 -6.77626e-21 0.00227118 -0.0103076
-0.0162994 1.35525e-20 0.00233991 0.0479496
0.0162994 6.77626e-21 0.00233992 -0.0103076
0.0164713 -4.51751e-21 0.000318776 -0.0103074
-0.0164713 9.03502e-21 0.00031848 0.0479594
0.0164838 -4.51751e-21 0.000934132 -0.0103074
-0.0164839 4.51751e-21 0.000933459 0.0479598
-0.0165151 2.71051e-20 8.91788e-08 0.0479621
0.0165151 0 8.91806e-08 -0.0103074
0.0164768 -4.51751e-21 0.00151147 -0.0103074
-0.0164769 9.03502e-21 0.00151089 0.0479576
0.0166394 0 9.23357e-08 -0.0103072
-0.0166394 0 9.23334e-08 0.047967
-0.0165053 0 0.00241002 0.0479678
0.0165054 1.35525e-20 0.00241002 -0.0103073
0.0167038 2.71051e-20 0.000635416 -0.0103072
-0.0167039 0 0.000634646 0.0479686
0.0165943 5.64689e-22 0.00217414 -0.0103071
-0.0165943 -1.41172e-21 0.00217395 0.0479786
0.0167298 0 0.00122679 -0.0103071
-0.0167299 0 0.00122589 0.0479719
0.0166885 0 0.00181391 -0.0103072
-0.0166886 -2.71051e-20 0.00181341 0.0479682
-0.0166608 -1.35525e-20 0.00246303 0.0479643
0.016661 0 0.00246306 -0.0103072
0.0168423 -1.35525e-20 7.0937e-08 -0.010307
-0.0168423 1.35525e-20 7.09338e-08 0.0479738
0.0169749 -2.25875e-21 0.000303039 -0.0103069
-0.016975 2.25875e-21 0.000302648 0.0479779
-0.0168731 0 0.0022093 0.0479783
0.0168731 1.12938e-21 0.00220951 -0.0103069
0.016996 0 0.000918683 -0.0103069
-0.0169961 -6.77626e-21 0.000917792 0.0479796
0.0168625 -2.03288e-20 0.00253161 -0.010307
-0.0168625 0 0.00253162 0.0479752
0.0169886 -4.51751e-21 0.00152442 -0.0103068
-0.0169887 -4.51751e-21 0.00152371 0.047979
0.0170875 0 2.4605e-08 -0.0103068
-0.0170875 0 2.46021e-08 0.0479829
0.0169822 4.51751e-21 0.00199465 -0.0103068
-0.0169822 0 0.00199427 0.047985
-0.0169516 -9.03502e-21 0.00241979 0.0479773
0.0169517 9.03502e-21 0.00241989 -0.0103069
-0.0169616 -1.35525e-20 0.00256534 0.0479779
0.0169617 -2.03288e-20 0.00256538 -0.0103069
0.0172725 2.71051e-20 0.000609814 -0.0103065
-0.0172727 0 0.000608963 0.0479922
0.017301 2.71051e-20 3.86873e-09 -0.0103065
-0.0173011 2.71051e-20 3.86453e-09 0.0479926
0.0172756 0 0.0012186 -0.0103065
-0.0172758 5.42101e-20 0.00121766 0.0479948
0.0172503 0 0.00183262 -0.0103065
-0.0172504 2.71051e-20 0.00183214 0.0479937
-0.0171625 0 0.00263367 0.0479856
0.0171625 0 0.00263369 -0.0103067
-0.0172627 -3.95282e-21 0.00228337 0.0479916
0.0172628 -5.64689e-22 0.00228356 -0.0103065
0.0175152 -1.35525e-20 3.90438e-09 -0.0103062
-0.0175152 0 3.90115e-09 0.0480022
0.0176166 -6.77626e-21 0.000304265 -0.0103061
-0.0176168 -4.51751e-21 0.000303958 0.0480066
0.0176138 -1.12938e-21 0.000914505 -0.0103061
-0.0176139 0 0.000913847 0.0480081
0.0175986 1.12938e-21 0.00154662 -0.010306
-0.0175987 1.12938e-21 0.0015461 0.0480181
0.0174824 0 0.00274279 -0.0103062
-0.0174824 -1.01644e-20 0.0027428 0.0480111
-0.0174954 -1.69407e-21 0.00274721 0.048012
0.0174955 3.72694e-20 0.00274726 -0.0103062
0.0177275 -1.35525e-20 5.30347e-09 -0.010306
-0.0177276 4.06576e-20 5.30237e-09 0.0480115
-0.0176266 -9.03502e-21 0.00211798 0.0480091
0.0176266 2.25875e-21 0.00211823 -0.010306
-0.0175733 4.51751e-21 0.00255362 0.0480124
0.0175734 -4.51751e-21 0.0025537 -0.0103061
0.0179395 0 5.36713e-09 -0.0103057
-0.0179395 0 5.36695e-09 0.0480206
0.0179446 -2.71051e-20 0.000602236 -0.0103057
-0.0179448 -2.71051e-20 0.000601852 0.0480204
0.0179404 2.71051e-20 0.00122938 -0.0103057
-0.0179405 0 0.00122893 0.0480218
-0.0179 -2.71051e-20 0.00190852 0.0480213
0.0179 -2.71051e-20 0.00190875 -0.0103057
-0.0177928 0 0.00284873 0.0480186
0.0177928 2.71051e-20 0.00284875 -0.0103059
-0.0179476 2.71051e-20 0.0024258 0.0480232
0.0179477 2.71051e-20 0.00242589 -0.0103057
0.0181451 0 4.40341e-09 -0.0103055
-0.0181451 0 4.40324e-09 0.04803
-0.0180159 4.06576e-20 0.00292502 0.048024
0.018016 0 0.00292506 -0.0103056
0.0182715 -2.25875e-21 0.000300999 -0.0103053
-0.0182716 9.03502e-21 0.000300875 0.0480357
0.0182775 -9.03502e-21 0.000913342 -0.0103053
-0.0182775 -9.03502e-21 0.00091307 0.0480367
-0.0182702 -2.25875e-21 0.00156202 0.0480364
0.0182702 2.25875e-21 0.00156224 -0.0103053
-0.0182366 6.77626e-21 0.00214879 0.0480289
0.0182366 4.51751e-21 0.00214891 -0.0103053
0.0181444 -6.77626e-21 0.00296949 -0.0103055
-0.0181446 -6.77626e-21 0.00296953 0.0480288
-0.0181872 9.03502e-22 0.00270867 0.0480304
0.0181872 6.77626e-22 0.00270873 -0.0103054
0.0183921 1.35525e-20 2.43155e-09 -0.0103052
-0.0183922 1.35525e-20 2.43148e-09 0.0480411
-0.0185886 0 1.46532e-09 0.0480495
0.0185886 0 1.46539e-09 -0.0103049
-0.0183446 -1.35525e-20 0.00303802 0.0480363
0.0183446 0 0.00303804 -0.0103052
0.0185996 -2.71051e-20 0.000595038 -0.0103049
-0.0185997 0 0.000594918 0.0480499
-0.0186737 5.80823e-21 0.00129278 0.0480559
0.0186737 1.16165e-20 0.00129291 -0.0103047
-0.0187703 -1.35525e-20 1.23409e-09 0.0480583
0.0187703 1.35525e-20 1.23413e-09 -0.0103047
0.0185175 2.03288e-20 0.00309812 -0.0103049
-0.0185175 2.03288e-20 0.00309812 0.048072
-0.0187148 -1.35525e-20 0.00187601 0.0480525
0.0187148 9.03502e-21 0.00187608 -0.0103047
-0.0186674 0 0.00253515 0.0480495
0.0186674 3.01167e-21 0.00253519 -0.0103048
0.018823 4.51751e-21 0.000903657 -0.0103046
-0.018823 -4.51751e-21 0.00090356 0.0480601
0.0188705 -4.51751e-21 0.0002483 -0.0103046
-0.0188706 -2.25875e-21 0.000248266 0.0480633
-0.0186437 0 0.002939 0.0480603
0.0186438 0 0.00293906 -0.0103048
-0.0189391 0 0.00154412 0.0480667
0.0189391 0 0.00154419 -0.0103044
0.0187701 -9.74088e-21 0.00318665 -0.0103047
-0.0187699 1.43996e-20 0.00318654 0.0480518
0.0188367 -1.35525e-20 0.00285269 -0.0103046
-0.0188367 -1.35525e-20 0.00285269 0.048046
0.0190684 0 6.42265e-10 -0.0103043
-0.0190684 1.35525e-20 6.42229e-10 0.0480719
-0.018947 0 0.00220299 0.0480564
0.018947 2.71051e-20 0.00220303 -0.0103044
-0.0189611 6.77626e-21 0.00294132 0.0480373
0.0189611 0 0.00294137 -0.0103046
-0.0192376 0 4.16948e-10 0.0480794
0.0192376 -2.71051e-20 4.16969e-10 -0.0103041
0.0192505 6.77626e-21 0.000578858 -0.0103041
-0.0192506 2.25875e-21 0.000578833 0.0480813
-0.0192654 -9.03502e-21 0.00120337 0.0480814
0.0192654 0 0.0012034 -0.010304
-0.0192728 6.77626e-21 0.00186871 0.0480759
0.0192728 4.51751e-21 0.00186874 -0.010304
-0.0190865 2.71051e-20 0.00329541 0.0480645
0.0190867 2.71051e-20 0.00329547 -0.0103043
-0.0193938 0 3.58644e-10 0.0480882
0.0193938 -2.71051e-20 3.58662e-10 -0.0103039
0.0193936 -1.35525e-20 0.000130553 -0.0103039
-0.0193936 -4.06576e-20 0.000130545 0.0480881
-0.0191339 0 0.00323263 0.0480667
0.019134 0 0.00323272 -0.0103042
-0.0192591 4.51751e-21 0.00254519 0.0480735
0.0192591 0 0.00254522 -0.010304
-0.0192048 0 0.003336 0.0480719
0.0192049 1.35525e-20 0.00333604 -0.0103041
-0.0193217 2.93638e-21 0.00298746 0.0480773
0.0193218 -1.58113e-21 0.0029875 -0.010304
0.0195688 0 0.000280898 -0.0103037
-0.0195688 -2.71051e-20 0.00028089 0.0480961
0.0195891 -2.71051e-20 0.000871761 -0.0103036
-0.0195891 2.71051e-20 0.000871755 0.0480994
-0.019374 1.35525e-20 0.0032822 0.0480789
0.019374 -1.35525e-20 0.00328227 -0.0103039
-0.0196057 0 0.00151348 0.0480951
0.0196057 2.71051e-20 0.0015135 -0.0103036
-0.0193742 -2.71051e-20 0.00339404 0.0480793
0.0193743 0 0.00339406 -0.0103039
-0.0196063 -5.42101e-20 0.0021914 0.0480861
0.0196063 0 0.00219141 -0.0103036
0.0197445 0 1.1881e-10 -0.0103035
-0.0197445 0 1.1881e-10 0.0481035
0.0197496 -1.35525e-20 0.000118775 -0.0103034
-0.0197497 0 0.000118767 0.0481037
-0.0196349 -5.42101e-20 0.00277709 0.0480961
0.019635 -2.71051e-20 0.00277712 -0.0103035
-0.0195953 0 0.00324376 0.0480896
0.0195954 0 0.0032438 -0.0103036
-0.0198869 1.35525e-20 6.23641e-11 0.0481073
0.0198869 1.35525e-20 6.23597e-11 -0.0103032
0.0199025 2.25875e-21 0.000551642 -0.0103032
-0.0199025 9.03502e-21 0.00055164 0.0481078
-0.0196372 -2.71051e-20 0.00348423 0.0480933
0.0196374 0 0.0034843 -0.0103036
-0.0199263 5.64689e-21 0.00116493 0.0481082
0.0199263 0 0.00116493 -0.0103031
-0.0197065 1.35525e-20 0.0033997 0.0480965
0.0197066 1.35525e-20 0.00339978 -0.0103035
-0.0200175 -1.35525e-20 0.000104927 0.048115
0.0200175 -1.35525e-20 0.000104918 -0.0103031
-0.020018 0 5.47768e-11 0.048115
0.0200181 0 5.47745e-11 -0.0103031
-0.0199354 -2.25875e-21 0.00184109 0.0481111
0.0199355 -2.25875e-21 0.0018411 -0.0103031
-0.0199397 -2.25875e-21 0.00250609 0.04811
0.0199397 -1.12938e-21 0.0025061 -0.0103031
-0.0198048 -1.35525e-20 0.00354162 0.0481023
0.0198049 2.71051e-20 0.00354168 -0.0103033
-0.0199176 1.12938e-21 0.00307583 0.0481066
0.0199177 2.25875e-21 0.00307587 -0.0103032
-0.0202108 2.71051e-20 0.000262551 0.0481231
0.0202108 0 0.000262544 -0.0103029
-0.0202372 -2.71051e-20 0.000828952 0.0481128
0.0202372 0 0.00082895 -0.0103027
-0.0199793 1.35525e-20 0.00344741 0.0481107
0.0199793 -1.35525e-20 0.00344747 -0.0103031
-0.0199876 -6.77626e-21 0.00360417 0.0481118
0.0199877 1.35525e-20 0.00360422 -0.0103031
-0.0202612 2.71051e-20 0.00146953 0.0481258
0.0202612 0 0.00146953 -0.0103027
-0.0202614 2.71051e-20 0.00216708 0.0481387
0.0202614 -2.71051e-20 0.0021671 -0.0103027
-0.020424 0 1.48382e-11 0.0481373
0.0204241 0 1.48336e-11 -0.0103027
-0.0204263 1.35525e-20 8.83618e-05 0.0481374
0.0204264 -1.35525e-20 8.83583e-05 -0.0103027
-0.0201258 -2.71051e-20 0.00365147 0.0481162
0.020126 2.03288e-20 0.00365154 -0.0103029
-0.0202574 0 0.00283409 0.0481191
0.0202575 -2.71051e-20 0.00283411 -0.0103027
-0.02023 -1.35525e-20 0.00346726 0.0481202
0.0202301 -8.13152e-21 0.00346732 -0.0103028
-0.0205366 0 8.07587e-12 0.0481425
0.0205367 -1.35525e-20 8.0725e-12 -0.0103026
-0.0205431 1.12938e-21 0.000507235 0.0481316
0.0205431 0 0.000507233 -0.0103025
-0.0205806 0 0.00109806 0.0481377
0.0205806 -1.12938e-21 0.00109806 -0.0103024
-0.0206332 0 7.2332e-05 0.0481544
0.0206332 0 7.23425e-05 -0.0103026
-0.0206362 0 7.47893e-12 0.0481541
0.0206362 1.35525e-20 7.47568e-12 -0.0103026
-0.0203258 -1.35525e-20 0.00371988 0.048119
0.020326 2.71051e-20 0.00371994 -0.0103027
-0.0205919 -1.12938e-21 0.00179229 0.0481526
0.0205919 -4.51751e-21 0.00179229 -0.0103023
-0.0205776 1.12938e-21 0.00251302 0.0481366
0.0205777 0 0.00251303 -0.0103023
-0.0204396 1.35525e-20 0.00376155 0.0481414
0.0204398 0 0.00376163 -0.0103025
-0.0204726 -1.35525e-20 0.00364922 0.0481387
0.0204728 4.06576e-20 0.00364928 -0.0103024
-0.0205732 -3.76459e-22 0.00324396 0.0481261
0.0205733 -2.25875e-21 0.003244 -0.0103023
-0.0208433 -5.42101e-20 0.000231572 0.048169
0.0208434 0 0.000231569 -0.0103024
-0.0208763 2.71051e-20 0.000747796 0.0481229
0.0208763 0 0.000747794 -0.0103022
-0.0209307 -2.71051e-20 0.00137566 0.0481849
0.0209307 0 0.00137566 -0.0103019
-0.0206256 0 0.00382199 0.0481237
0.0206258 6.77626e-21 0.00382207 -0.0103023
-0.0209018 -2.71051e-20 0.00213753 0.0481639
0.0209018 2.71051e-20 0.00213753 -0.0103019
-0.0207137 0 0.00385276 0.0481152
0.0207138 0 0.00385283 -0.0103022
-0.0208885 0 0.00285883 0.0481255
0.0208886 2.71051e-20 0.00285885 -0.0103019
-0.0207601 -1.35525e-20 0.00376298 0.0481114
0.0207602 0 0.00376308 -0.0103022
0.0211429 3.01167e-21 0.0004345 -0.0103019
-0.0211429 3.01167e-21 0.000434502 0.0481789
-0.020841 -2.25875e-21 0.00362679 0.0481051
0.0208411 2.25875e-21 0.00362684 -0.0103021
-0.0208387 -6.77626e-21 0.00389825 0.0481304
0.0208388 1.35525e-20 0.0038983 -0.010302
-0.0212597 0 5.25669e-13 0.0482
0.0212601 -4.65868e-21 5.198e-13 -0.0103017
-0.0212767 2.5411e-21 1.41099e-05 0.048201
-0.0212768 0 1.74179e-06 0.0482013
0.0212769 -4.65868e-21 1.38726e-05 -0.0103017
0.0212813 -4.23516e-22 1.45874e-06 -0.0103017
0.0212895 0 2.69474e-13 -0.0103016
-0.0212896 0 2.7104e-13 0.0482016
-0.0212723 7.52918e-22 0.000878984 0.0481875
0.0212724 -1.50584e-21 0.000878975 -0.0103016
-0.0212427 -4.51751e-22 0.00171816 0.0481772
0.0212427 3.38813e-22 0.00171814 -0.0103015
-0.0212146 1.12938e-21 0.00249693 0.0481598
0.0212146 -3.38813e-21 0.00249694 -0.0103015
-0.0210353 0 0.00398139 0.0481371
0.0210355 0 0.00398146 -0.0103018
-0.021178 0 0.00323686 0.0481455
0.0211781 0 0.00323687 -0.0103015
-0.0210737 0 0.00393726 0.0481388
0.0210738 0 0.00393731 -0.0103017
-0.0211186 1.35525e-20 0.00402021 0.0481423
0.0211188 0 0.0040203 -0.0103017
-0.0212476 8.87368e-22 0.00368161 0.048148
0.0212478 -4.03349e-22 0.00368166 -0.0103015
-0.0215747 -2.71051e-20 0.00130736 0.048172
0.0215747 0 0.00130737 -0.0103011
-0.0212486 0 0.00397488 0.0481454
0.0212488 0 0.00397493 -0.0103015
-0.0212527 1.35525e-20 0.00408538 0.0481449
0.021253 -6.77626e-21 0.00408549 -0.0103015
-0.0216407 -7.52918e-22 0.00033173 0.048266
0.0216408 0 0.000331723 -0.010299
-0.0215441 -2.71051e-20 0.00209926 0.0481863
0.0215442 2.71051e-20 0.00209926 -0.0103011
-0.0215225 0 0.00284518 0.0481642
0.0215225 0 0.0028452 -0.0103011
-0.0217961 0 7.94919e-14 0.0482516
0.0217961 1.35525e-20 7.91737e-14 -0.0102988
-0.0215506 0 0.00347094 0.0481635
0.0215507 0 0.00347097 -0.0103011
-0.0214959 0 0.00395189 0.0481581
0.0214961 1.35525e-20 0.00395193 -0.0103012
-0.0214983 6.77626e-21 0.00420475 0.0481597
0.0214984 6.77626e-21 0.00420479 -0.0103012
-0.0218606 0 0.00170493 0.0481737
0.0218606 6.11746e-22 0.0017049 -0.0103007
-0.0219212 -2.03288e-21 0.000827127 0.0482117
0.0219212 -2.25875e-22 0.00082711 -0.0103
-0.0219609 1.35525e-20 4.02034e-14 0.0482139
0.021961 -1.35525e-20 4.01314e-14 -0.0102993
-0.0218494 -1.12938e-21 0.00247003 0.0481791
0.0218494 0 0.00247004 -0.0103006
-0.0216145 0 0.00413981 0.0481675
0.0216145 1.35525e-20 0.00413983 -0.010301
-0.0216502 1.35525e-20 0.00427857 0.0481698
0.0216503 0 0.00427863 -0.010301
-0.0218421 1.12938e-21 0.00317495 0.0481813
0.0218422 -2.25875e-21 0.00317496 -0.0103007
-0.0217324 0 0.00431835 0.0481906
0.0217325 0 0.00431843 -0.0103008
-0.0217583 0 0.00423555 0.0481893
0.0217584 1.35525e-20 0.0042356 -0.0103008
-0.0221733 0 2.81576e-14 0.0482132
0.0221735 -6.77626e-21 2.80965e-14 -0.0102974
0.021866 0 0.00385231 -0.0103007
-0.021866 -7.05861e-23 0.00385234 0.0481818
-0.0222021 -2.71051e-20 0.00129532 0.0481773
0.0222022 0 0.00129532 -0.0103002
0.0222508 -7.05861e-23 0.00033038 -0.0102968
-0.0222515 3.5293e-23 0.000329552 0.048214
-0.0221694 2.71051e-20 0.00208071 0.0481587
0.0221694 -2.71051e-20 0.00208072 -0.0103002
-0.0218631 -1.35525e-20 0.00438174 0.0481831
0.0218633 1.35525e-20 0.00438183 -0.0103007
0.0223211 0 1.21342e-14 -0.010297
-0.0223212 6.77626e-21 1.21355e-14 0.0482085
-0.0221597 -2.71051e-20 0.00282094 0.0482053
0.0221598 -2.71051e-20 0.00282094 -0.0103002
-0.0221457 0 0.00350913 0.0481921
0.0221457 -5.42101e-20 0.00350915 -0.0103003
-0.0220148 -6.77626e-21 0.00445531 0.0481747
0.0220149 6.77626e-21 0.00445537 -0.0103005
-0.0225415 0 1.22276e-15 0.0481898
0.0225416 0 1.23378e-15 -0.010298
-0.0221394 1.12938e-21 0.00425961 0.0481694
0.0221395 1.12938e-21 0.00425967 -0.0103004
-0.0224964 1.77877e-20 0.00168456 0.0481952
0.0224964 -4.23516e-22 0.0016846 -0.0102998
-0.0225021 0 0.00168479 0.0481961
0.0225021 0 0.00168483 -0.0102998
0.0225129 0 0.00168799 -0.0102998
-0.022513 0 0.00168798 0.048197
-0.022576 2.71051e-21 0.000874276 0.0482019
0.0225761 4.51751e-21 0.000874269 -0.0102989
-0.0225135 -7.26028e-22 0.00242345 0.0482211
0.0225136 6.45358e-22 0.00242345 -0.0102997
-0.0224593 -2.25875e-21 0.00318123 0.0482201
0.0224593 0 0.00318124 -0.0102999
-0.0223019 -3.38813e-21 0.00459436 0.0482023
0.022302 -3.38813e-21 0.00459437 -0.0103001
-0.0224349 -9.03502e-22 0.00390505 0.0482126
0.022435 9.48677e-21 0.00390508 -0.0102999
-0.0228059 -1.27055e-20 8.70912e-16 0.0482051
0.0228061 4.23516e-22 8.77264e-16 -0.010296
-0.022811 2.96462e-21 2.46648e-05 0.0482054
0.0228111 0 2.39222e-05 -0.010296
-0.0223412 3.38813e-21 0.00461337 0.0482041
0.0223413 3.38813e-21 0.00461342 -0.0103001
0.0228141 4.23516e-22 8.58194e-16 -0.010296
-0.0228142 2.5411e-20 8.51405e-16 0.0482053
-0.0228118 -1.12938e-21 0.000334117 0.0482029
0.0228118 -1.12938e-21 0.000334137 -0.0102964
-0.022347 0 0.00460685 0.0482044
0.0223471 0 0.00460689 -0.0103001
-0.0223545 0 0.00461977 0.0482051
0.0223546 0 0.00461984 -0.0103001
-0.0223623 1.01644e-20 0.00458505 0.048205
0.0223624 1.69407e-21 0.00458505 -0.0103
-0.0223809 0 0.0046121 0.0482089
0.022381 0 0.00461216 -0.0103
-0.0223957 0 0.00463972 0.0482125
0.0223958 0 0.00463983 -0.0103
-0.0225314 0 0.00433167 0.0482102
0.0225315 0 0.00433171 -0.0102998
-0.0227767 -2.71051e-20 0.00282452 0.0482369
0.0227767 0 0.00282454 -0.0102994
-0.0229169 2.71051e-20 0.00145351 0.048194
0.022917 0 0.00145354 -0.0102992
-0.0229127 2.71051e-20 0.001952 0.0482861
0.0229127 0 0.001952 -0.0102992
-0.0227583 -2.71051e-20 0.00352775 0.048246
0.0227583 -2.71051e-20 0.00352777 -0.0102995
-0.0226788 -1.35525e-20 0.00436549 0.0482267
0.0226789 -1.35525e-20 0.00436553 -0.0102996
-0.0231146 0 6.24631e-16 0.0481886
0.0231146 0 6.26477e-16 -0.0102969
-0.0231263 -5.64689e-22 0.000857356 0.0482116
0.0231264 1.12938e-21 0.000857382 -0.010298
-0.0231204 0 0.00168686 0.0482494
0.0231204 0 0.00168687 -0.0102988
-0.0226912 0 0.00478277 0.0482562
0.0226912 1.35525e-20 0.00478283 -0.0102995
-0.0231332 -9.88205e-22 0.00244156 0.0482641
0.0231332 -8.47033e-22 0.00244157 -0.0102988
-0.0227888 0 0.00466799 0.0482593
0.0227889 -1.35525e-20 0.00466803 -0.0102994
-0.0230834 1.12938e-21 0.00317456 0.0482553
0.0230835 1.12938e-21 0.00317458 -0.010299
-0.023319 0 3.10971e-16 0.0481764
0.0233191 6.77626e-21 3.12101e-16 -0.0102962
-0.0230283 1.35525e-20 0.00391292 0.0482514
0.0230284 0 0.00391294 -0.0102992
-0.02333 -2.71051e-20 0.00142276 0.048272
0.02333 0 0.00142278 -0.0102986
-0.0233168 0 0.00194192 0.0482501
0.0233168 0 0.00194194 -0.0102986
-0.0228965 1.35525e-20 0.0048822 0.0482377
0.0228966 0 0.00488226 -0.0102993
-0.0234102 0 0.000267243 0.048179
0.0234102 2.25875e-21 0.000267244 -0.0102965
-0.0229986 3.01167e-21 0.0043906 0.0482527
0.0229987 -2.25875e-21 0.00439064 -0.0102992
0.0235162 1.35525e-20 1.75957e-16 -0.0102967
-0.0235162 6.77626e-21 1.74953e-16 0.048184
-0.0234234 0 0.00278585 0.0482794
0.0234234 2.71051e-20 0.00278586 -0.0102986
-0.0230651 0 0.00496382 0.0482491
0.0230652 -2.71051e-20 0.00496388 -0.0102991
-0.0233787 0 0.00352562 0.0482612
0.0233787 0 0.00352564 -0.0102987
-0.0237161 1.35525e-20 -1.12818e-16 0.0482047
0.0237161 1.35525e-20 -1.126e-16 -0.0102982
-0.0232668 -1.807e-21 0.00471662 0.0482673
0.0232669 -1.35525e-21 0.00471667 -0.0102988
-0.0233857 0 0.00417634 0.0482593
0.0233857 0 0.00417637 -0.0102987
-0.0232203 6.77626e-21 0.00503892 0.0482727
0.0232204 -1.35525e-20 0.00503899 -0.0102989
-0.0237642 1.97641e-21 0.000871715 0.0482328
0.0237642 2.82344e-22 0.000871732 -0.010298
-0.0237897 0 9.69712e-05 0.0482035
0.0237897 -1.35525e-20 9.70283e-05 -0.0102988
-0.0237941 1.35525e-20 4.97247e-16 0.0482034
0.0237942 -1.35525e-20 5.01214e-16 -0.0102988
-0.0237454 -4.23516e-22 0.00168598 0.0482683
0.0237454 -9.88205e-22 0.00168599 -0.0102981
-0.0238504 1.35525e-20 -3.63004e-16 0.0482163
0.0238505 0 -3.63597e-16 -0.0102985
-0.0237771 9.03502e-22 0.00232532 0.048269
0.0237772 4.06576e-21 0.00232532 -0.0102981
-0.023345 -2.71051e-20 0.00509928 0.0482833
0.0233451 1.35525e-20 0.00509935 -0.0102988
-0.0237118 2.25875e-21 0.00315193 0.0482727
0.0237118 -2.25875e-21 0.00315194 -0.0102982
-0.0239754 0 0.000105727 0.0482332
0.0239757 0 0.000105814 -0.0102979
-0.0240029 0 2.3863e-16 0.0482359
-0.0236913 0 0.0038564 0.0482736
0.0236913 -3.38813e-21 0.00385642 -0.0102983
0.0240032 -1.35525e-20 2.38694e-16 -0.0102978
-0.0235265 1.69407e-20 0.00518714 0.0483677
0.0235266 -1.35525e-20 0.0051872 -0.0102987
-0.0237117 -4.51751e-21 0.00456148 0.0482905
0.0237118 6.02335e-21 0.00456152 -0.0102984
-0.0235865 0 0.00521624 0.0483564
0.0235867 -6.77626e-21 0.00521631 -0.0102986
-0.0236569 -5.42101e-21 0.00499193 0.0483304
0.023657 -5.42101e-21 0.00499199 -0.0102985
-0.0240359 0 0.0027785 0.0482659
0.024036 -2.71051e-20 0.00277852 -0.0102978
-0.0240146 -2.71051e-20 0.00349448 0.0482838
0.0240147 0 0.0034945 -0.0102979
-0.0237108 0 0.00516871 0.0483283
0.023711 0 0.00516878 -0.0102984
-0.0237215 0 0.00528159 0.0482998
0.0237217 0 0.00528165 -0.0102984
-0.0238516 6.77626e-21 0.00489348 0.0482865
0.0238517 3.38813e-21 0.00489352 -0.0102982
-0.0239976 0 0.00419241 0.04829
0.0239977 0 0.00419244 -0.0102979
-0.0238168 0 0.00514855 0.0483045
0.0238169 -6.77626e-21 0.00514863 -0.0102982
-0.0238281 -6.77626e-21 0.00525503 0.0483065
0.0238283 6.77626e-21 0.00525509 -0.0102982
-0.0238429 6.77626e-21 0.00534032 0.0483075
0.023843 -6.77626e-21 0.00534036 -0.0102982
-0.0243893 5.42101e-20 0.00171905 0.0482817
0.0243893 -5.42101e-20 0.00171905 -0.0102973
-0.0239789 -1.35525e-20 0.00489875 0.0482581
0.023979 0 0.00489881 -0.0102981
-0.0243696 1.41172e-22 0.00243113 0.0482929
0.0243706 -1.41172e-22 0.00243196 -0.0102974
-0.0244866 0 0.00051268 0.04829
0.0244867 0 0.000512684 -0.0102973
-0.0243442 5.64689e-22 0.00312516 0.0482869
0.0243442 -3.38813e-21 0.00312517 -0.0102974
-0.0239577 2.03288e-20 0.00539587 0.0483126
0.0239578 -2.71051e-20 0.00539595 -0.010298
-0.0240298 2.1684e-20 0.00521691 0.048296
0.02403 -1.0842e-20 0.00521698 -0.0102979
-0.0243197 -2.25875e-21 0.00383765 0.0482887
0.0243198 -2.25875e-21 0.00383767 -0.0102975
-0.0242836 2.25875e-21 0.00455364 0.0483098
0.0242836 -2.25875e-21 0.00455368 -0.0102976
-0.0241601 2.71051e-20 0.00549388 0.0483
0.0241602 0 0.00549396 -0.0102977
-0.0242635 3.01167e-21 0.00502115 0.0483218
0.0242637 3.01167e-21 0.00502121 -0.0102976
-0.0246819 -2.71051e-20 0.00275432 0.0483258
0.0246819 -2.71051e-20 0.00275433 -0.010297
-0.0246457 2.71051e-20 0.00346491 0.0482728
0.0246458 0 0.00346492 -0.0102969
-0.0243131 0 0.00556792 0.048324
0.0243132 -1.35525e-20 0.00556799 -0.0102975
-0.0249638 1.35525e-20 3.14504e-16 0.0483134
0.0249638 1.35525e-20 3.14469e-16 -0.0102967
-0.0249658 -2.71051e-20 0.000127061 0.0483131
0.0249658 -1.35525e-20 0.000127084 -0.0102967
-0.0246319 2.71051e-20 0.00416571 0.0483075
0.0246319 -2.71051e-20 0.00416574 -0.0102971
-0.0250669 -4.51751e-21 0.00111391 0.0483135
0.025067 -4.51751e-21 0.00111391 -0.0102965
-0.0245277 2.25875e-21 0.00533379 0.0483478
0.0245278 -4.51751e-22 0.00533385 -0.0102972
-0.0246411 2.71051e-20 0.00480622 0.0483412
0.0246412 0 0.00480627 -0.0102971
-0.0251264 0 -5.57175e-18 0.048315
0.0251265 2.71051e-20 -5.54308e-18 -0.0102965
-0.0244892 0 0.00565317 0.0483618
0.0244893 0 0.00565322 -0.0102973
-0.0250457 -3.38813e-21 0.00228488 0.0483185
0.0250457 1.12938e-21 0.00228489 -0.0102965
-0.0249744 1.41172e-21 0.00307726 0.0483181
0.0249744 2.82344e-22 0.00307727 -0.0102966
-0.0245965 1.35525e-20 0.00570514 0.0483718
0.0245966 -2.71051e-20 0.00570519 -0.0102972
-0.0252751 0 0.000134702 0.0483236
-0.0249934 5.64689e-22 0.00376622 0.0483243
0.0252752 0 0.000134716 -0.0102962
0.0249934 8.47033e-22 0.00376624 -0.0102966
-0.0252845 0 -2.40076e-18 0.0483241
0.0252846 0 -2.39523e-18 -0.0102962
-0.0249434 6.77626e-21 0.00449176 0.0483408
0.0249434 -4.51751e-21 0.00449179 -0.0102967
-0.0247822 0 0.00579502 0.0484868
0.0247823 -1.35525e-20 0.00579507 -0.0102971
-0.0249665 -7.52918e-21 0.00518177 0.0483748
0.0249666 1.50584e-21 0.00518182 -0.0102967
-0.0248296 3.38813e-21 0.00581795 0.0484744
0.0248297 -3.38813e-21 0.00581801 -0.010297
-0.0249104 -1.35525e-20 0.00560274 0.0484315
0.0249105 -8.13152e-21 0.00560279 -0.0102968
-0.0254015 -2.71051e-20 0.00285469 0.0483201
0.0254015 0 0.0028547 -0.0102959
-0.0252645 0 0.00414474 0.0483531
0.0252645 -2.71051e-20 0.00414475 -0.0102963
-0.0254031 2.71051e-20 0.00331055 0.0483648
0.0254031 0 0.00331056 -0.0102961
-0.0249624 0 0.00577192 0.0484316
0.0249625 -6.77626e-21 0.00577202 -0.0102968
-0.0249739 1.35525e-20 0.00588778 0.0483924
0.024974 0 0.00588783 -0.0102967
-0.0252501 2.71051e-20 0.00482067 0.048362
0.0252501 -2.71051e-20 0.00482071 -0.0102963
-0.0257173 5.42101e-20 0.000556257 0.0483434
0.0257173 -5.42101e-20 0.000556256 -0.0102956
-0.0250723 6.77626e-21 0.00575396 0.0483975
0.0250724 1.35525e-20 0.00575407 -0.0102966
-0.0256699 0 0.00175088 0.0483399
0.0256699 5.42101e-20 0.00175088 -0.0102956
-0.0256382 -2.82344e-21 0.0024157 0.0483462
0.0256382 -1.97641e-21 0.00241571 -0.0102956
-0.0250837 -1.35525e-20 0.00586274 0.0484026
0.0250838 1.35525e-20 0.00586281 -0.0102966
-0.0256079 1.35525e-20 0.00307876 0.0483541
0.0256079 1.35525e-20 0.00307876 -0.0102957
-0.025098 0 0.00594767 0.0484066
0.025098 0 0.0059477 -0.0102965
-0.0251925 -2.25875e-21 0.00555311 0.0483816
0.0251926 1.12938e-20 0.00555317 -0.0102964
-0.0252316 0 0.00551486 0.0483296
0.0252317 0 0.00551494 -0.0102964
-0.0255924 3.76459e-21 0.0037929 0.0483619
0.0255924 4.51751e-21 0.00379291 -0.0102958
-0.0252102 2.71051e-20 0.00600189 0.0484139
0.0252104 -6.77626e-21 0.00600198 -0.0102964
-0.0252817 8.13152e-21 0.00582896 0.0483857
0.0252819 8.13152e-21 0.00582905 -0.0102963
-0.0255735 -3.38813e-21 0.00447397 0.0483666
0.0255735 2.25875e-21 0.00447399 -0.0102959
-0.0258318 2.71051e-20 0.0028448 0.0483692
0.0258318 5.42101e-20 0.0028448 -0.0102954
-0.0257993 0 0.00329834 0.0483554
0.0257993 0 0.00329835 -0.0102954
-0.0255336 4.51751e-21 0.0051788 0.0483926
0.0255337 -2.25875e-21 0.00517885 -0.010296
-0.025412 -2.71051e-20 0.00609921 0.0483927
0.0254122 1.35525e-20 0.00609928 -0.0102962
-0.0255488 2.25875e-21 0.00563576 0.0484148
0.0255489 6.77626e-21 0.00563582 -0.010296
0.0262229 0 -2.45033e-18 -0.0102949
-0.0262229 0 -2.47168e-18 0.048364
0.0262242 0 0.000110099 -0.0102949
-0.0262242 1.35525e-20 0.000110094 0.048364
-0.025914 -2.71051e-20 0.00409942 0.0483657
0.025914 -2.71051e-20 0.00409944 -0.0102955
-0.0255675 0 0.00617786 0.0484233
0.0255677 0 0.00617797 -0.0102959
-0.025876 2.71051e-20 0.00480446 0.0483859
0.025876 -2.71051e-20 0.00480449 -0.0102955
0.0263176 6.77626e-21 0.00114406 -0.0102948
-0.0263176 -9.03502e-21 0.00114406 0.0483674
-0.0263544 0 1.26628e-19 0.0483704
0.0263544 -1.35525e-20 1.28683e-19 -0.0102948
-0.0263095 7.90564e-21 0.00235736 0.048376
0.0263095 2.25875e-21 0.00235737 -0.0102948
-0.0262443 0 0.00306374 0.0483782
0.0262443 -3.10226e-20 0.00306374 -0.0102949
-0.0262456 -1.05879e-22 0.00305714 0.0483782
0.0262456 6.67038e-21 0.00305717 -0.0102949
0.0262459 2.11758e-22 0.00308325 -0.0102949
-0.0262459 0 0.00308332 0.0483782
-0.0258908 0 0.00543286 0.0484327
0.0258909 0 0.00543291 -0.0102955
-0.0257782 0 0.00595398 0.0484442
0.0257783 -1.35525e-21 0.00595406 -0.0102956
-0.0264724 -1.35525e-20 0.000113036 0.0483732
0.0264724 -1.35525e-20 0.000113038 -0.0102946
-0.0264809 1.35525e-20 1.33507e-19 0.0483735
0.0264809 0 1.34472e-19 -0.0102946
-0.0257322 0 0.00626847 0.0484673
0.0257323 0 0.00626852 -0.0102958
-0.0262544 -7.52918e-22 0.00364382 0.048376
0.0262544 8.47033e-22 0.00364383 -0.0102949
-0.0262049 -2.25875e-21 0.00444578 0.0483848
0.026205 3.38813e-21 0.0044458 -0.010295
-0.0258428 1.35525e-20 0.00632526 0.0484772
0.025843 -1.35525e-20 0.00632535 -0.0102957