# U  POINT_DATA 28110
# x  y  z  U_x  U_y  U_z
0.015557 -1.35525e-20 5.70113e-08 0 0 0
-0.015557 1.35525e-20 5.70113e-08 0 0 0
-0.015557 -6.77626e-21 0.000135948 0 0 0
0.015557 0 0.000135964 0 0 0
-0.015557 6.77626e-21 0.000527058 0 0 0
0.015557 6.77626e-21 0.000527125 0 0 0
-0.015557 1.35525e-20 0.000659558 0 0 0
0.015557 -1.35525e-20 0.000659639 0 0 0
-0.0155569 0 0.000798557 0 0 0
0.015557 0 0.000798637 0 0 0
-0.0155569 6.77626e-21 0.00121614 0 0 0
0.0155569 0 0.00121623 0 0 0
-0.0155569 -6.77626e-21 0.00135476 0 0 0
0.0155569 0 0.00135485 0 0 0
-0.0156159 0 6.65977e-05 0.000832793 -0.000702741 -1.91385e-05
0.0156159 -6.77626e-21 6.66114e-05 -3.34969e-06 2.31417e-06 -4.34505e-08
0.015617 -6.77626e-21 5.8671e-08 0 0 0
-0.015617 0 5.86705e-08 0 0 0
-0.0156133 0 0.000593966 0.000797455 -0.000672922 -1.83264e-05
0.0156133 -6.77626e-21 0.00059404 -3.2075e-06 2.21594e-06 -4.16061e-08
0.0156101 0 0.000721026 -2.52408e-05 2.14242e-05 7.35277e-09
-0.0156101 6.77626e-21 0.000720945 0.00150749 -0.00133416 1.17492e-05
-0.0155569 -6.77626e-21 0.00150199 0 0 0
0.0155569 0 0.00150206 0 0 0
-0.0156099 -6.77626e-21 0.00127797 0.0015006 -0.00132807 1.16955e-05
0.0156099 6.77626e-21 0.00127806 -2.51255e-05 2.13264e-05 7.31919e-09
0.0156067 -6.77626e-21 0.00140498 -2.52096e-05 2.11146e-05 3.96267e-07
-0.0156067 0 0.00140489 0.00134372 -0.00119546 2.52626e-05
-0.0156758 -6.77626e-21 6.25738e-08 0 0 0
0.0156758 6.77626e-21 6.25741e-08 0 0 0
-0.0155569 1.35525e-20 0.00193255 0 0 0
0.0155569 0 0.00193257 0 0 0
-0.0156643 -2.71051e-20 0.000653593 0.00210249 -0.00174886 1.0894e-05
0.0156643 1.35525e-20 0.000653701 -2.4302e-05 2.12937e-05 -7.73018e-08
0.015557 -6.77626e-21 0.002087 0 0 0
-0.015557 6.77626e-21 0.002087 0 0 0
0.0156581 2.03288e-20 0.00132521 -4.4805e-05 3.98874e-05 4.44362e-07
-0.0156581 0 0.00132509 0.00270133 -0.00233784 6.37404e-06
0.0156109 0 0.00197556 -2.73417e-05 2.29004e-05 4.29781e-07
-0.0156109 0 0.00197554 0.00145735 -0.00129655 2.73988e-05
-0.01562 0 0.00210848 0 0 0
0.01562 -6.77626e-21 0.00210848 0 0 0
0.0156426 0 0.00205604 -2.70737e-05 2.53266e-05 1.27386e-06
-0.0156426 6.77626e-21 0.00205603 0.00140103 -0.00126055 1.85314e-05
0.0156707 0 0.00197912 -4.66278e-05 4.13696e-05 9.61696e-07
-0.0156707 -6.77626e-21 0.00197907 0.00265225 -0.00225832 -3.09212e-05
-0.0156949 0 0.00213398 0 0 0
0.0156949 0 0.00213398 0 0 0
0.015885 6.77626e-21 7.41484e-08 0 0 0
-0.015885 6.77626e-21 7.41473e-08 0 0 0
-0.01589 -4.51751e-21 0.00034758 0.00463128 -0.0039309 -4.52544e-06
0.01589 -3.76459e-22 0.000347688 -3.09113e-05 2.57594e-05 -2.44814e-07
-0.0158834 2.71051e-21 0.000956113 0.00785063 -0.00664647 4.22848e-05
0.0158834 -4.51751e-22 0.000956328 -0.00013106 0.000109032 1.51651e-07
0.0158471 7.52918e-22 0.00154379 -0.000134457 0.0001139 1.69699e-07
-0.0158471 7.52918e-22 0.00154362 0.00723881 -0.0061738 -0.000107634
-0.0158414 1.69407e-21 0.00196386 0.00500963 -0.00416519 -3.72235e-05
0.0158414 -1.12938e-21 0.00196392 -9.42475e-05 7.63931e-05 -5.09058e-07
-0.015839 0 0.00218308 0 0 0
0.015839 -1.35525e-20 0.00218308 0 0 0
-0.0159079 -4.06576e-20 0.00220656 0 0 0
0.0159079 0 0.00220656 0 0 0
-0.0160357 0 0.00166133 0.0104882 -0.00884927 -0.000130159
0.0160357 1.12938e-21 0.00166159 -0.000193797 0.000167811 5.22997e-07
-0.0161335 0 1.64555e-05 0.000187739 -0.000161948 1.02616e-07
0.0161337 4.23516e-22 1.6266e-05 -7.38914e-07 5.93706e-07 -2.97449e-08
-0.0161343 -4.23516e-22 5.30999e-08 0 0 0
0.0161345 0 5.30909e-08 0 0 0
-0.0159895 -4.06576e-20 0.00223438 0 0 0
0.0159896 0 0.00223438 0 0 0
-0.0161453 0 5.24551e-08 1.68411e-05 -1.53705e-05 -5.68496e-07
0.0161479 0 3.0392e-06 -4.76132e-08 4.35346e-08 7.30688e-10
-0.0161363 -2.25875e-21 0.000658258 0.0100991 -0.00840688 -1.85579e-05
0.0161363 0 0.00065863 -0.000126154 0.000108381 1.3346e-06
-0.016108 0 0.00123662 0.0124693 -0.0106776 -4.27312e-05
0.0161079 -2.25875e-21 0.00123704 -0.000215946 0.000190858 1.5756e-06
-0.0162278 -2.63521e-21 0.00195621 0.00989212 -0.00875416 0.000128832
0.0162278 7.52918e-22 0.00195641 -0.00019033 0.00016091 -1.30276e-07
0.0161979 6.77626e-21 0.00230534 0 0 0
-0.0161979 0 0.00230537 0 0 0
-0.0162561 6.77626e-21 0.00232518 0 0 0
0.0162561 6.77626e-21 0.00232518 0 0 0
-0.016267 0 0.00230119 0.000864337 -0.00081284 5.32105e-05
0.016267 0 0.00230117 -2.15174e-05 2.24447e-05 8.15135e-07
-0.0162975 1.35525e-20 0.00227122 0.00188812 -0.00161282 1.52704e-05
0.0162975 -6.77626e-21 0.00227118 -3.80467e-05 3.43322e-05 5.95436e-07
-0.0162994 1.35525e-20 0.00233991 0 0 0
0.0162994 6.77626e-21 0.00233992 0 0 0
0.0164713 -4.51751e-21 0.000318776 -3.06134e-05 2.74866e-05 4.18956e-07
-0.0164713 9.03502e-21 0.00031848 0.00733755 -0.00635904 -5.74299e-05
0.0164838 -4.51751e-21 0.000934132 -0.000268879 0.000240755 -1.16447e-06
-0.0164839 4.51751e-21 0.000933459 0.0164527 -0.0143634 -0.000146091
-0.0165151 2.71051e-20 8.91788e-08 0 0 0
0.0165151 0 8.91806e-08 0 0 0
0.0164768 -4.51751e-21 0.00151147 -0.000329949 0.0002935 1.82257e-06
-0.0164769 9.03502e-21 0.00151089 0.0171611 -0.0150946 3.76972e-06
0.0166394 0 9.23357e-08 0 0 0
-0.0166394 0 9.23334e-08 0 0 0
-0.0165053 0 0.00241002 0 0 0
0.0165054 1.35525e-20 0.00241002 0 0 0
0.0167038 2.71051e-20 0.000635416 -0.000174401 0.00015741 -6.84675e-07
-0.0167039 0 0.000634646 0.0142177 -0.0122795 -9.19208e-05
0.0165943 5.64689e-22 0.00217414 -0.000222719 0.000178692 -5.14842e-07
-0.0165943 -1.41172e-21 0.00217395 0.00956468 -0.0081049 0.000278388
0.0167298 0 0.00122679 -0.000364405 0.000325958 2.3104e-06
-0.0167299 0 0.00122589 0.0205859 -0.0176923 -6.95296e-05
0.0166885 0 0.00181391 -0.00032512 0.000293254 4.64487e-06
-0.0166886 -2.71051e-20 0.00181341 0.0163592 -0.0142593 0.000135704
-0.0166608 -1.35525e-20 0.00246303 0 0 0
0.016661 0 0.00246306 0 0 0
0.0168423 -1.35525e-20 7.0937e-08 0 0 0
-0.0168423 1.35525e-20 7.09338e-08 0 0 0
0.0169749 -2.25875e-21 0.000303039 -2.57253e-05 2.30056e-05 -2.16566e-07
-0.016975 2.25875e-21 0.000302648 0.00887911 -0.00764905 -2.96967e-05
-0.0168731 0 0.0022093 0.0114561 -0.00996688 0.000318512
0.0168731 1.12938e-21 0.00220951 -0.000255889 0.000227078 3.60732e-06
0.016996 0 0.000918683 -0.000376429 0.00032471 3.8912e-06
-0.0169961 -6.77626e-21 0.000917792 0.0225128 -0.0190984 -9.13908e-05
0.0168625 -2.03288e-20 0.00253161 0 0 0
-0.0168625 0 0.00253162 0 0 0
0.0169886 -4.51751e-21 0.00152442 -0.00048288 0.000421087 2.51668e-06
-0.0169887 -4.51751e-21 0.00152371 0.0249259 -0.0211443 -3.82702e-05
0.0170875 0 2.4605e-08 0 0 0
-0.0170875 0 2.46021e-08 0 0 0
0.0169822 4.51751e-21 0.00199465 -0.000373145 0.000334168 5.38857e-06
-0.0169822 0 0.00199427 0.0174885 -0.0150712 0.00025035
-0.0169516 -9.03502e-21 0.00241979 0.00536525 -0.00470451 0.00015355
0.0169517 9.03502e-21 0.00241989 -0.000115024 0.000105799 3.65646e-06
-0.0169616 -1.35525e-20 0.00256534 0 0 0
0.0169617 -2.03288e-20 0.00256538 0 0 0
0.0172725 2.71051e-20 0.000609814 -0.000218608 0.000192891 5.9884e-07
-0.0172727 0 0.000608963 0.017901 -0.0150353 1.22714e-05
0.017301 2.71051e-20 3.86873e-09 0 0 0
-0.0173011 2.71051e-20 3.86453e-09 0 0 0
0.0172756 0 0.0012186 -0.000477694 0.000423536 2.76444e-06
-0.0172758 5.42101e-20 0.00121766 0.0266829 -0.0224629 -6.79074e-05
0.0172503 0 0.00183262 -0.000464898 0.000419556 5.23528e-06
-0.0172504 2.71051e-20 0.00183214 0.0236322 -0.019992 -5.19822e-05
-0.0171625 0 0.00263367 0 0 0
0.0171625 0 0.00263369 0 0 0
-0.0172627 -3.95282e-21 0.00228337 0.0145312 -0.0125307 0.000109927
0.0172628 -5.64689e-22 0.00228356 -0.000317984 0.000290427 4.55839e-06
0.0175152 -1.35525e-20 3.90438e-09 0 0 0
-0.0175152 0 3.90115e-09 0 0 0
0.0176166 -6.77626e-21 0.000304265 -3.22328e-05 2.8535e-05 1.32321e-07
-0.0176168 -4.51751e-21 0.000303958 0.0109746 -0.00917749 2.75417e-05
0.0176138 -1.12938e-21 0.000914505 -0.000479633 0.000426214 6.58622e-07
-0.0176139 0 0.000913847 0.0280156 -0.0234926 -8.84574e-05
0.0175986 1.12938e-21 0.00154662 -0.000644197 0.000580196 5.85356e-06
-0.0175987 1.12938e-21 0.0015461 0.0325506 -0.0273594 5.09635e-05
0.0174824 0 0.00274279 0 0 0
-0.0174824 -1.01644e-20 0.0027428 0 0 0
-0.0174954 -1.69407e-21 0.00274721 0 0 0
0.0174955 3.72694e-20 0.00274726 0 0 0
0.0177275 -1.35525e-20 5.30347e-09 0 0 0
-0.0177276 4.06576e-20 5.30237e-09 0 0 0
-0.0176266 -9.03502e-21 0.00211798 0.024218 -0.0205884 3.47626e-05
0.0176266 2.25875e-21 0.00211823 -0.000512035 0.000464381 6.66806e-06
-0.0175733 4.51751e-21 0.00255362 0.0107304 -0.00913321 -0.000225079
0.0175734 -4.51751e-21 0.0025537 -0.000225656 0.000203278 7.20555e-07
0.0179395 0 5.36713e-09 0 0 0
-0.0179395 0 5.36695e-09 0 0 0
0.0179446 -2.71051e-20 0.000602236 -0.000263321 0.000236476 3.23226e-07
-0.0179448 -2.71051e-20 0.000601852 0.0214799 -0.0179494 1.27501e-05
0.0179404 2.71051e-20 0.00122938 -0.000616352 0.000557115 4.24764e-06
-0.0179405 0 0.00122893 0.0337259 -0.0282701 6.60167e-06
-0.0179 -2.71051e-20 0.00190852 0.0305011 -0.0257182 -1.07292e-05
0.0179 -2.71051e-20 0.00190875 -0.000615931 0.000560356 1.01758e-05
-0.0177928 0 0.00284873 0 0 0
0.0177928 2.71051e-20 0.00284875 0 0 0
-0.0179476 2.71051e-20 0.0024258 0.0196577 -0.0167109 -3.19743e-05
0.0179477 2.71051e-20 0.00242589 -0.000421678 0.000384632 9.42562e-06
0.0181451 0 4.40341e-09 0 0 0
-0.0181451 0 4.40324e-09 0 0 0
-0.0180159 4.06576e-20 0.00292502 0 0 0
0.018016 0 0.00292506 0 0 0
0.0182715 -2.25875e-21 0.000300999 -5.13958e-05 4.6309e-05 1.70199e-07
-0.0182716 9.03502e-21 0.000300875 0.012322 -0.0102323 -5.00946e-06
0.0182775 -9.03502e-21 0.000913342 -0.000542721 0.000491901 1.40982e-06
-0.0182775 -9.03502e-21 0.00091307 0.0330127 -0.0274914 -1.23479e-05
-0.0182702 -2.25875e-21 0.00156202 0.0391338 -0.0327527 5.23287e-05
0.0182702 2.25875e-21 0.00156224 -0.00076244 0.000697162 9.60441e-06
-0.0182366 6.77626e-21 0.00214879 0.0322311 -0.0271914 3.934e-06
0.0182366 4.51751e-21 0.00214891 -0.000664785 0.000606718 1.66527e-05
0.0181444 -6.77626e-21 0.00296949 0 0 0
-0.0181446 -6.77626e-21 0.00296953 0 0 0
-0.0181872 9.03502e-22 0.00270867 0.01324 -0.0114363 -1.14546e-05
0.0181872 6.77626e-22 0.00270873 -0.000288047 0.000268948 7.90055e-06
0.0183921 1.35525e-20 2.43155e-09 0 0 0
-0.0183922 1.35525e-20 2.43148e-09 0 0 0
-0.0185886 0 1.46532e-09 0 0 0
0.0185886 0 1.46539e-09 0 0 0
-0.0183446 -1.35525e-20 0.00303802 0 0 0
0.0183446 0 0.00303804 0 0 0
0.0185996 -2.71051e-20 0.000595038 -0.000298403 0.000271319 5.09736e-07
-0.0185997 0 0.000594918 0.0245738 -0.0204174 1.63774e-06
-0.0186737 5.80823e-21 0.00129278 0.0422418 -0.0352602 -4.02953e-05
0.0186737 1.16165e-20 0.00129291 -0.000776568 0.000713201 8.27071e-06
-0.0187703 -1.35525e-20 1.23409e-09 0 0 0
0.0187703 1.35525e-20 1.23413e-09 0 0 0
0.0185175 2.03288e-20 0.00309812 0 0 0
-0.0185175 2.03288e-20 0.00309812 0 0 0
-0.0187148 -1.35525e-20 0.00187601 0.0416169 -0.034834 -8.44796e-05
0.0187148 9.03502e-21 0.00187608 -0.000821842 0.000757704 1.55295e-05
-0.0186674 0 0.00253515 0.0254028 -0.0214409 -6.26523e-06
0.0186674 3.01167e-21 0.00253519 -0.000537557 0.000494162 1.53593e-05
0.018823 4.51751e-21 0.000903657 -0.000581927 0.0005321 1.58209e-06
-0.018823 -4.51751e-21 0.00090356 0.0364261 -0.0303477 -3.15796e-05
0.0188705 -4.51751e-21 0.0002483 -4.25925e-05 3.86389e-05 6.92714e-08
-0.0188706 -2.25875e-21 0.000248266 0.0113931 -0.00943122 1.14292e-05
-0.0186437 0 0.002939 0.0107904 -0.00921861 7.05986e-05
0.0186438 0 0.00293906 -0.000257675 0.000231576 8.63662e-06
-0.0189391 0 0.00154412 0.0470635 -0.039306 -7.9927e-05
0.0189391 0 0.00154419 -0.00090083 0.000831628 1.26105e-05
0.0187701 -9.74088e-21 0.00318665 -7.62519e-07 7.73675e-07 3.6993e-08
-0.0187699 1.43996e-20 0.00318654 2.78233e-05 -2.46019e-05 6.60849e-07
0.0188367 -1.35525e-20 0.00285269 -0.000369173 0.000349203 1.39342e-05
-0.0188367 -1.35525e-20 0.00285269 0.0161837 -0.0138408 0.000125254
0.0190684 0 6.42265e-10 0 0 0
-0.0190684 1.35525e-20 6.42229e-10 0 0 0
-0.018947 0 0.00220299 0.0416236 -0.0348145 -0.000183687
0.018947 2.71051e-20 0.00220303 -0.00083857 0.000776524 1.99692e-05
-0.0189611 6.77626e-21 0.00294132 0.0143059 -0.0123498 0.000194424
0.0189611 0 0.00294137 -0.000336313 0.000328947 1.50414e-05
-0.0192376 0 4.16948e-10 0 0 0
0.0192376 -2.71051e-20 4.16969e-10 0 0 0
0.0192505 6.77626e-21 0.000578858 -0.00031679 0.000291332 5.53629e-07
-0.0192506 2.25875e-21 0.000578833 0.0267562 -0.0222665 -3.85708e-06
-0.0192654 -9.03502e-21 0.00120337 0.0449913 -0.0375917 -0.000114734
0.0192654 0 0.0012034 -0.00078703 0.000727696 7.16378e-06
-0.0192728 6.77626e-21 0.00186871 0.0475669 -0.0397863 -0.000232245
0.0192728 4.51751e-21 0.00186874 -0.0009229 0.000858922 1.76389e-05
-0.0190865 2.71051e-20 0.00329541 0 0 0
0.0190867 2.71051e-20 0.00329547 0 0 0
-0.0193938 0 3.58644e-10 0 0 0
0.0193938 -2.71051e-20 3.58662e-10 0 0 0
0.0193936 -1.35525e-20 0.000130553 -3.53538e-06 3.31362e-06 1.77732e-07
-0.0193936 -4.06576e-20 0.000130545 0.00648985 -0.0053685 4.1104e-05
-0.0191339 0 0.00323263 0.00426136 -0.00358376 2.50542e-05
0.019134 0 0.00323272 -9.26009e-05 8.65295e-05 3.49434e-06
-0.0192591 4.51751e-21 0.00254519 0.033411 -0.0281025 -0.00011316
0.0192591 0 0.00254522 -0.000693406 0.000648695 2.08271e-05
-0.0192048 0 0.003336 0 0 0
0.0192049 1.35525e-20 0.00333604 0 0 0
-0.0193217 2.93638e-21 0.00298746 0.0188119 -0.0160247 5.16011e-05
0.0193218 -1.58113e-21 0.0029875 -0.000417305 0.000392209 1.5922e-05
0.0195688 0 0.000280898 -7.38263e-06 6.85092e-06 2.558e-07
-0.0195688 -2.71051e-20 0.00028089 0.0136777 -0.011311 7.51619e-05
0.0195891 -2.71051e-20 0.000871761 -0.000649736 0.000601111 1.06266e-06
-0.0195891 2.71051e-20 0.000871755 0.0420587 -0.0351354 -6.60052e-05
-0.019374 1.35525e-20 0.0032822 0.00655311 -0.00558096 -1.35608e-05
0.019374 -1.35525e-20 0.00328227 -0.000140757 0.000133967 6.19078e-06
-0.0196057 0 0.00151348 0.0525222 -0.0440174 -0.000276823
0.0196057 2.71051e-20 0.0015135 -0.000980576 0.000915148 1.42679e-05
-0.0193742 -2.71051e-20 0.00339404 0 0 0
0.0193743 0 0.00339406 0 0 0
-0.0196063 -5.42101e-20 0.0021914 0.0496653 -0.0415218 -0.000382754
0.0196063 0 0.00219141 -0.000980891 0.000921827 2.37052e-05
0.0197445 0 1.1881e-10 0 0 0
-0.0197445 0 1.1881e-10 0 0 0
0.0197496 -1.35525e-20 0.000118775 -3.21641e-06 3.01466e-06 1.61697e-07
-0.0197497 0 0.000118767 0.00590432 -0.00488415 3.73955e-05
-0.0196349 -5.42101e-20 0.00277709 0.0320208 -0.0270784 -7.18534e-05
0.019635 -2.71051e-20 0.00277712 -0.000690221 0.000651435 2.54688e-05
-0.0195953 0 0.00324376 0.0128884 -0.0110969 1.88546e-05
0.0195954 0 0.0032438 -0.000281087 0.000268016 1.21958e-05
-0.0198869 1.35525e-20 6.23641e-11 0 0 0
0.0198869 1.35525e-20 6.23597e-11 0 0 0
0.0199025 2.25875e-21 0.000551642 -0.000313249 0.000288651 4.05265e-07
-0.0199025 9.03502e-21 0.00055164 0.027778 -0.0231791 2.81712e-05
-0.0196372 -2.71051e-20 0.00348423 0 0 0
0.0196374 0 0.0034843 0 0 0
-0.0199263 5.64689e-21 0.00116493 0.0485058 -0.0406864 -0.000226438
0.0199263 0 0.00116493 -0.000817897 0.000760473 7.92838e-06
-0.0197065 1.35525e-20 0.0033997 0.00634939 -0.00540747 -1.31392e-05
0.0197066 1.35525e-20 0.00339978 -0.000136425 0.000129843 6.00021e-06
-0.0200175 -1.35525e-20 0.000104927 0.00540574 -0.00448331 0.000156393
0.0200175 -1.35525e-20 0.000104918 -2.88456e-06 2.73674e-06 -1.93455e-08
-0.020018 0 5.47768e-11 0 0 0
0.0200181 0 5.47745e-11 0 0 0
-0.0199354 -2.25875e-21 0.00184109 0.0538767 -0.0452248 -0.00043233
0.0199355 -2.25875e-21 0.0018411 -0.00102242 0.000961856 2.15281e-05
-0.0199397 -2.25875e-21 0.00250609 0.0443376 -0.0372026 -0.000389733
0.0199397 -1.12938e-21 0.0025061 -0.000893419 0.000845942 2.83275e-05
-0.0198048 -1.35525e-20 0.00354162 0 0 0
0.0198049 2.71051e-20 0.00354168 0 0 0
-0.0199176 1.12938e-21 0.00307583 0.0247273 -0.0208937 -0.000213435
0.0199177 2.25875e-21 0.00307587 -0.000525286 0.000500254 2.04059e-05
-0.0202108 2.71051e-20 0.000262551 0.013276 -0.0110038 0.000229287
0.0202108 0 0.000262544 -7.15124e-06 6.70006e-06 -1.48566e-07
-0.0202372 -2.71051e-20 0.000828952 0.0434572 -0.0364241 -0.000108038
0.0202372 0 0.00082895 -0.000619352 0.000569588 -1.1397e-07
-0.0199793 1.35525e-20 0.00344741 0.00866647 -0.00738253 -0.000133106
0.0199793 -1.35525e-20 0.00344747 -0.000189864 0.000185931 8.71243e-06
-0.0199876 -6.77626e-21 0.00360417 0 0 0
0.0199877 1.35525e-20 0.00360422 0 0 0
-0.0202612 2.71051e-20 0.00146953 0.0564958 -0.0476101 -0.000460096
0.0202612 0 0.00146953 -0.00103243 0.000968032 1.60867e-05
-0.0202614 2.71051e-20 0.00216708 0.0571366 -0.0480256 -0.000609087
0.0202614 -2.71051e-20 0.0021671 -0.00109952 0.00104675 3.18074e-05
-0.020424 0 1.48382e-11 0 0 0
0.0204241 0 1.48336e-11 0 0 0
-0.0204263 1.35525e-20 8.83618e-05 0.00455232 -0.00377553 0.000131703
0.0204264 -1.35525e-20 8.83583e-05 -2.42928e-06 2.30479e-06 -1.62921e-08
-0.0201258 -2.71051e-20 0.00365147 0 0 0
0.020126 2.03288e-20 0.00365154 0 0 0
-0.0202574 0 0.00283409 0.0405568 -0.0338768 -0.000529775
0.0202575 -2.71051e-20 0.00283411 -0.000835342 0.000795453 3.29875e-05
-0.02023 -1.35525e-20 0.00346726 0.0122326 -0.0104281 -0.000197157
0.0202301 -8.13152e-21 0.00346732 -0.000267547 0.000260525 1.11726e-05
-0.0205366 0 8.07587e-12 0 0 0
0.0205367 -1.35525e-20 8.0725e-12 0 0 0
-0.0205431 1.12938e-21 0.000507235 0.0271296 -0.0226961 1.19261e-05
0.0205431 0 0.000507233 -0.000276863 0.000265389 -4.56738e-06
-0.0205806 0 0.00109806 0.0499522 -0.0421173 -0.000279356
0.0205806 -1.12938e-21 0.00109806 -0.000804402 0.000758157 2.40913e-06
-0.0206332 0 7.2332e-05 0.0041609 -0.00343385 0.000181009
0.0206332 0 7.23425e-05 -1.55094e-06 1.30133e-06 -4.6045e-07
-0.0206362 0 7.47893e-12 0 0 0
0.0206362 1.35525e-20 7.47568e-12 0 0 0
-0.0203258 -1.35525e-20 0.00371988 0 0 0
0.020326 2.71051e-20 0.00371994 0 0 0
-0.0205919 -1.12938e-21 0.00179229 0.0590521 -0.0497995 -0.000642047
0.0205919 -4.51751e-21 0.00179229 -0.00109785 0.00103835 2.5006e-05
-0.0205776 1.12938e-21 0.00251302 0.0521333 -0.0435848 -0.000847509
0.0205777 0 0.00251303 -0.00102715 0.000981102 3.88992e-05
-0.0204396 1.35525e-20 0.00376155 0 0 0
0.0204398 0 0.00376163 0 0 0
-0.0204726 -1.35525e-20 0.00364922 0.00726919 -0.00589809 -0.00016258
0.0204728 4.06576e-20 0.00364928 -0.000171107 0.000153261 8.3041e-06
-0.0205732 -3.76459e-22 0.00324396 0.02743 -0.0228068 -0.000538416
0.0205733 -2.25875e-21 0.003244 -0.000584415 0.000563161 2.93258e-05
-0.0208433 -5.42101e-20 0.000231572 0.0125292 -0.0103509 8.729e-05
0.0208434 0 0.000231569 -5.82391e-06 5.10335e-06 -7.67609e-07
-0.0208763 2.71051e-20 0.000747796 0.0410308 -0.0345162 -0.000129406
0.0208763 0 0.000747794 -0.000515175 0.000516039 -1.7219e-05
-0.0209307 -2.71051e-20 0.00137566 0.0589887 -0.0500675 -0.000410637
0.0209307 0 0.00137566 -0.00105257 0.000986879 1.05136e-05
-0.0206256 0 0.00382199 0 0 0
0.0206258 6.77626e-21 0.00382207 0 0 0
-0.0209018 -2.71051e-20 0.00213753 0.0636534 -0.0535754 -0.00107358
0.0209018 2.71051e-20 0.00213753 -0.00120451 0.00114985 4.03954e-05
-0.0207137 0 0.00385276 0 0 0
0.0207138 0 0.00385283 0 0 0
-0.0208885 0 0.00285883 0.0486787 -0.0401343 -0.00120386
0.0208886 2.71051e-20 0.00285885 -0.000991367 0.000954229 5.08581e-05
-0.0207601 -1.35525e-20 0.00376298 0.00545143 -0.00468372 9.75684e-06
0.0207602 0 0.00376308 -0.00013636 0.00014634 1.14605e-05
0.0211429 3.01167e-21 0.0004345 -0.000192932 0.000176389 -7.60676e-08
-0.0211429 3.01167e-21 0.000434502 0.0243012 -0.0205468 -0.000346264
-0.020841 -2.25875e-21 0.00362679 0.0145113 -0.0122381 -0.000102074
0.0208411 2.25875e-21 0.00362684 -0.000348802 0.000362692 2.76479e-05
-0.0208387 -6.77626e-21 0.00389825 0 0 0
0.0208388 1.35525e-20 0.0038983 0 0 0
-0.0212597 0 5.25669e-13 0 0 0
0.0212601 -4.65868e-21 5.198e-13 0 0 0
-0.0212767 2.5411e-21 1.41099e-05 0.00078194 -0.000662387 -1.51699e-05
-0.0212768 0 1.74179e-06 4.82099e-05 -3.9709e-05 -5.52847e-06
0.0212769 -4.65868e-21 1.38726e-05 -6.37703e-06 5.56803e-06 5.36625e-08
0.0212813 -4.23516e-22 1.45874e-06 -2.79894e-08 2.23661e-08 8.59094e-09
0.0212895 0 2.69474e-13 0 0 0
-0.0212896 0 2.7104e-13 0 0 0
-0.0212723 7.52918e-22 0.000878984 0.0427556 -0.0365237 -0.000399541
0.0212724 -1.50584e-21 0.000878975 -0.000615433 0.00056264 9.68652e-06
-0.0212427 -4.51751e-22 0.00171816 0.0626523 -0.0530577 -0.000942277
0.0212427 3.38813e-22 0.00171814 -0.00113962 0.00107514 3.33954e-05
-0.0212146 1.12938e-21 0.00249693 0.0597344 -0.0498014 -0.00150952
0.0212146 -3.38813e-21 0.00249694 -0.00115847 0.00111393 5.23325e-05
-0.0210353 0 0.00398139 0 0 0
0.0210355 0 0.00398146 0 0 0
-0.021178 0 0.00323686 0.0368368 -0.0301873 -0.00116439
0.0211781 0 0.00323687 -0.000767096 0.00074908 4.66351e-05
-0.0210737 0 0.00393726 0.0035576 -0.00288432 -5.5061e-05
0.0210738 0 0.00393731 -7.33725e-05 7.22704e-05 5.67036e-06
-0.0211186 1.35525e-20 0.00402021 0 0 0
0.0211188 0 0.0040203 0 0 0
-0.0212476 8.87368e-22 0.00368161 0.0208792 -0.0170222 -0.000677154
0.0212478 -4.03349e-22 0.00368166 -0.000453431 0.00044678 3.25838e-05
-0.0215747 -2.71051e-20 0.00130736 0.0603096 -0.0514655 -0.000536012
0.0215747 0 0.00130737 -0.00106622 0.000986932 3.07394e-05
-0.0212486 0 0.00397488 0.00600114 -0.00486403 -0.000208105
0.0212488 0 0.00397493 -0.00012411 0.000123517 1.08043e-05
-0.0212527 1.35525e-20 0.00408538 0 0 0
0.021253 -6.77626e-21 0.00408549 0 0 0
-0.0216407 -7.52918e-22 0.00033173 0.0208802 -0.0183582 -0.000709715
0.0216408 0 0.000331723 -2.44377e-05 3.09758e-05 -1.20121e-05
-0.0215441 -2.71051e-20 0.00209926 0.0704662 -0.0594591 -0.0018118
0.0215442 2.71051e-20 0.00209926 -0.00130573 0.00124612 5.3775e-05
-0.0215225 0 0.00284518 0.0569919 -0.0467971 -0.00195966
0.0215225 0 0.0028452 -0.00114323 0.00111567 6.41517e-05
-0.0217961 0 7.94919e-14 0 0 0
0.0217961 1.35525e-20 7.91737e-14 0 0 0
-0.0215506 0 0.00347094 0.0354616 -0.0286422 -0.00147502
0.0215507 0 0.00347097 -0.000750224 0.000740797 5.27278e-05
-0.0214959 0 0.00395189 0.0143201 -0.0117088 -0.000521511
0.0214961 1.35525e-20 0.00395193 -0.000299909 0.000297397 2.49553e-05
-0.0214983 6.77626e-21 0.00420475 0 0 0
0.0214984 6.77626e-21 0.00420479 0 0 0
-0.0218606 0 0.00170493 0.0669654 -0.0567588 -0.00139781
0.0218606 6.11746e-22 0.0017049 -0.0012194 0.00114508 5.20575e-05
-0.0219212 -2.03288e-21 0.000827127 0.0419005 -0.0365122 -0.000782063
0.0219212 -2.25875e-22 0.00082711 -0.000567874 0.000487863 2.84043e-05
-0.0219609 1.35525e-20 4.02034e-14 0 0 0
0.021961 -1.35525e-20 4.01314e-14 0 0 0
-0.0218494 -1.12938e-21 0.00247003 0.0666785 -0.0557512 -0.00213202
0.0218494 0 0.00247004 -0.00128222 0.00124102 6.8161e-05
-0.0216145 0 0.00413981 0.00671386 -0.00544171 -0.000232821
0.0216145 1.35525e-20 0.00413983 -0.000138841 0.000138178 1.20867e-05
-0.0216502 1.35525e-20 0.00427857 0 0 0
0.0216503 0 0.00427863 0 0 0
-0.0218421 1.12938e-21 0.00317495 0.0501062 -0.0408372 -0.00209013
0.0218422 -2.25875e-21 0.00317496 -0.00101092 0.00100006 6.63952e-05
-0.0217324 0 0.00431835 0 0 0
0.0217325 0 0.00431843 0 0 0
-0.0217583 0 0.00423555 0.0054831 -0.00428112 -0.000352379
0.0217584 1.35525e-20 0.0042356 -0.000115901 0.000106401 8.78316e-06
-0.0221733 0 2.81576e-14 0 0 0
0.0221735 -6.77626e-21 2.80965e-14 0 0 0
0.021866 0 0.00385231 -0.000524898 0.0005269 4.01792e-05
-0.021866 -7.05861e-23 0.00385234 0.0255562 -0.0204974 -0.00129124
-0.0222021 -2.71051e-20 0.00129532 0.0628127 -0.0532802 -0.00111015
0.0222022 0 0.00129532 -0.00110547 0.00100676 5.56928e-05
0.0222508 -7.05861e-23 0.00033038 -8.14423e-06 2.56832e-05 -3.05113e-05
-0.0222515 3.5293e-23 0.000329552 0.0205382 -0.0194976 -0.000850113
-0.0221694 2.71051e-20 0.00208071 0.0753345 -0.0638513 -0.00214894
0.0221694 -2.71051e-20 0.00208072 -0.00140447 0.00133842 6.89488e-05
-0.0218631 -1.35525e-20 0.00438174 0 0 0
0.0218633 1.35525e-20 0.00438183 0 0 0
0.0223211 0 1.21342e-14 0 0 0
-0.0223212 6.77626e-21 1.21355e-14 0 0 0
-0.0221597 -2.71051e-20 0.00282094 0.0643106 -0.0532588 -0.00260491
0.0221598 -2.71051e-20 0.00282094 -0.00127992 0.00126703 8.54177e-05
-0.0221457 0 0.00350913 0.0459478 -0.0365907 -0.0024285
0.0221457 -5.42101e-20 0.00350915 -0.000911126 0.000917726 6.61849e-05
-0.0220148 -6.77626e-21 0.00445531 0 0 0
0.0220149 6.77626e-21 0.00445537 0 0 0
-0.0225415 0 1.22276e-15 0 0 0
0.0225416 0 1.23378e-15 0 0 0
-0.0221394 1.12938e-21 0.00425961 0.0124343 -0.010209 -0.00048981
0.0221395 1.12938e-21 0.00425967 -0.000279605 0.000309181 2.84668e-05
-0.0224964 1.77877e-20 0.00168456 0.0697828 -0.0592789 -0.00167948
0.0224964 -4.23516e-22 0.0016846 -0.00129691 0.00121282 6.79325e-05
-0.0225021 0 0.00168479 0.0698726 -0.0593538 -0.00168728
0.0225021 0 0.00168483 -0.00129873 0.00121492 6.7742e-05
0.0225129 0 0.00168799 -0.00130032 0.00121676 6.76128e-05
-0.022513 0 0.00168798 0.0699003 -0.0593856 -0.00168698
-0.022576 2.71051e-21 0.000874276 0.0440604 -0.0383891 -0.00107743
0.0225761 4.51751e-21 0.000874269 -0.000607481 0.000522177 4.03324e-05
-0.0225135 -7.26028e-22 0.00242345 0.0706292 -0.059256 -0.00242916
0.0225136 6.45358e-22 0.00242345 -0.00137395 0.00134007 8.40475e-05
-0.0224593 -2.25875e-21 0.00318123 0.0587983 -0.0478947 -0.00277383
0.0224593 0 0.00318124 -0.0011551 0.00116268 8.73012e-05
-0.0223019 -3.38813e-21 0.00459436 0 0 0
0.022302 -3.38813e-21 0.00459437 0 0 0
-0.0224349 -9.03502e-22 0.00390505 0.0344668 -0.0271966 -0.00210842
0.022435 9.48677e-21 0.00390508 -0.000667105 0.000690731 5.92944e-05
-0.0228059 -1.27055e-20 8.70912e-16 0 0 0
0.0228061 4.23516e-22 8.77264e-16 0 0 0
-0.022811 2.96462e-21 2.46648e-05 0.00153634 -0.00141762 -5.89985e-05
0.0228111 0 2.39222e-05 6.80316e-08 1.76599e-06 -2.30375e-06
-0.0223412 3.38813e-21 0.00461337 0 0 0
0.0223413 3.38813e-21 0.00461342 0 0 0
0.0228141 4.23516e-22 8.58194e-16 0 0 0
-0.0228142 2.5411e-20 8.51405e-16 0 0 0
-0.0228118 -1.12938e-21 0.000334117 0.0209412 -0.0190945 -0.000744319
0.0228118 -1.12938e-21 0.000334137 -5.78549e-05 7.00544e-05 -2.15049e-05
-0.022347 0 0.00460685 0.0005739 -0.000453088 -3.89074e-05
0.0223471 0 0.00460689 -1.02511e-05 1.05061e-05 1.07297e-06
-0.0223545 0 0.00461977 0 0 0
0.0223546 0 0.00461984 0 0 0
-0.0223623 1.01644e-20 0.00458505 0.00206007 -0.00160805 -0.000144532
0.0223624 1.69407e-21 0.00458505 -3.84284e-05 4.09895e-05 3.90736e-06
-0.0223809 0 0.0046121 0.00141173 -0.00108893 -0.000129187
0.022381 0 0.00461216 -2.15826e-05 2.30545e-05 2.08593e-06
-0.0223957 0 0.00463972 0 0 0
0.0223958 0 0.00463983 0 0 0
-0.0225314 0 0.00433167 0.0198331 -0.0153868 -0.00133824
0.0225315 0 0.00433171 -0.000386536 0.000419259 4.25286e-05
-0.0227767 -2.71051e-20 0.00282452 0.0701011 -0.0582285 -0.00291066
0.0227767 0 0.00282454 -0.00137813 0.0013866 0.000101114
-0.0229169 2.71051e-20 0.00145351 0.0672324 -0.0574581 -0.00160273
0.022917 0 0.00145354 -0.00129432 0.00119924 7.37853e-05
-0.0229127 2.71051e-20 0.001952 0.0757119 -0.0645677 -0.00203597
0.0229127 0 0.001952 -0.00149156 0.00141542 8.60001e-05
-0.0227583 -2.71051e-20 0.00352775 0.055809 -0.0444017 -0.00316384
0.0227583 -2.71051e-20 0.00352777 -0.00107026 0.00109812 9.72807e-05
-0.0226788 -1.35525e-20 0.00436549 0.0223583 -0.0172154 -0.00165645
0.0226789 -1.35525e-20 0.00436553 -0.000411654 0.000447618 4.43632e-05
-0.0231146 0 6.24631e-16 0 0 0
0.0231146 0 6.26477e-16 0 0 0
-0.0231263 -5.64689e-22 0.000857356 0.0415226 -0.036085 -0.00105768
0.0231264 1.12938e-21 0.000857382 -0.000548401 0.000502878 1.61853e-05
-0.0231204 0 0.00168686 0.0717269 -0.0613742 -0.00176488
0.0231204 0 0.00168687 -0.00140822 0.00133351 6.85106e-05
-0.0226912 0 0.00478277 0 0 0
0.0226912 1.35525e-20 0.00478283 0 0 0
-0.0231332 -9.88205e-22 0.00244156 0.0745861 -0.0627661 -0.00266842
0.0231332 -8.47033e-22 0.00244157 -0.00148255 0.00146926 9.21653e-05
-0.0227888 0 0.00466799 0.011174 -0.00861901 -0.00102253
0.0227889 -1.35525e-20 0.00466803 -0.000170527 0.000182158 1.64813e-05
-0.0230834 1.12938e-21 0.00317456 0.0664659 -0.0542931 -0.00327848
0.0230835 1.12938e-21 0.00317458 -0.00128734 0.00131623 0.000104054
-0.023319 0 3.10971e-16 0 0 0
0.0233191 6.77626e-21 3.12101e-16 0 0 0
-0.0230283 1.35525e-20 0.00391292 0.0466087 -0.0365694 -0.00301646
0.0230284 0 0.00391294 -0.000855786 0.000893617 8.50243e-05
-0.02333 -2.71051e-20 0.00142276 0.0681216 -0.0587218 -0.00153222
0.02333 0 0.00142278 -0.00132021 0.00124946 4.65646e-05
-0.0233168 0 0.00194192 0.0763661 -0.0653958 -0.00197369
0.0233168 0 0.00194194 -0.00156839 0.00150907 7.68354e-05
-0.0228965 1.35525e-20 0.0048822 0 0 0
0.0228966 0 0.00488226 0 0 0
-0.0234102 0 0.000267243 0.0149526 -0.0134023 -0.000311475
0.0234102 2.25875e-21 0.000267244 -9.48279e-06 1.72564e-05 -3.17934e-05
-0.0229986 3.01167e-21 0.0043906 0.0297534 -0.0227125 -0.00227724
0.0229987 -2.25875e-21 0.00439064 -0.000516365 0.000545203 5.59608e-05
0.0235162 1.35525e-20 1.75957e-16 0 0 0
-0.0235162 6.77626e-21 1.74953e-16 0 0 0
-0.0234234 0 0.00278585 0.0760167 -0.0634565 -0.00327352
0.0234234 2.71051e-20 0.00278586 -0.00150087 0.00152867 0.000103812
-0.0230651 0 0.00496382 0 0 0
0.0230652 -2.71051e-20 0.00496388 0 0 0
-0.0233787 0 0.00352562 0.0645083 -0.0516271 -0.00376331
0.0233787 0 0.00352564 -0.0012138 0.00126409 0.000113717
-0.0237161 1.35525e-20 -1.12818e-16 0 0 0
0.0237161 1.35525e-20 -1.126e-16 0 0 0
-0.0232668 -1.807e-21 0.00471662 0.0212749 -0.015512 -0.00204631
0.0232669 -1.35525e-21 0.00471667 -0.000342694 0.000366948 4.453e-05
-0.0233857 0 0.00417634 0.0476151 -0.0365485 -0.00346878
0.0233857 0 0.00417637 -0.000818054 0.000862968 9.46247e-05
-0.0232203 6.77626e-21 0.00503892 0 0 0
0.0232204 -1.35525e-20 0.00503899 0 0 0
-0.0237642 1.97641e-21 0.000871715 0.0416407 -0.0363368 -0.000867062
0.0237642 2.82344e-22 0.000871732 -0.0005423 0.000519021 1.03772e-05
-0.0237897 0 9.69712e-05 0.00543334 -0.00458525 -6.9158e-06
0.0237897 -1.35525e-20 9.70283e-05 -7.30854e-06 3.40929e-06 1.26632e-05
-0.0237941 1.35525e-20 4.97247e-16 0 0 0
0.0237942 -1.35525e-20 5.01214e-16 0 0 0
-0.0237454 -4.23516e-22 0.00168598 0.0721072 -0.0622325 -0.0017253
0.0237454 -9.88205e-22 0.00168599 -0.00149804 0.00143489 4.74232e-05
-0.0238504 1.35525e-20 -3.63004e-16 0 0 0
0.0238505 0 -3.63597e-16 0 0 0
-0.0237771 9.03502e-22 0.00232532 0.0761332 -0.0644792 -0.00269707
0.0237772 4.06576e-21 0.00232532 -0.00156196 0.00155781 8.49639e-05