# Moment      
# CofR        : (0.000000e+00 0.000000e+00 0.000000e+00)
#
# Time        	(total_x total_y total_z)	(pressure_x pressure_y pressure_z)	(viscous_x viscous_y viscous_z)
1168          	(1.608776e+02 -3.393108e-01 8.100821e+00)	(1.608770e+02 -3.395051e-01 8.101359e+00)	(5.756684e-04 1.942791e-04 -5.381896e-04)
1169          	(1.608776e+02 -3.393108e-01 8.100822e+00)	(1.608770e+02 -3.395051e-01 8.101360e+00)	(5.756456e-04 1.942768e-04 -5.381757e-04)
1170          	(1.608776e+02 -3.393109e-01 8.100822e+00)	(1.608770e+02 -3.395052e-01 8.101360e+00)	(5.756221e-04 1.942745e-04 -5.381618e-04)
1171          	(1.608776e+02 -3.393110e-01 8.100822e+00)	(1.608770e+02 -3.395052e-01 8.101361e+00)	(5.755974e-04 1.942723e-04 -5.381481e-04)
1172          	(1.608776e+02 -3.393110e-01 8.100823e+00)	(1.608770e+02 -3.395053e-01 8.101361e+00)	(5.755717e-04 1.942699e-04 -5.381335e-04)
1173          	(1.608776e+02 -3.393111e-01 8.100823e+00)	(1.608770e+02 -3.395054e-01 8.101361e+00)	(5.755451e-04 1.942675e-04 -5.381178e-04)
1174          	(1.608776e+02 -3.393112e-01 8.100824e+00)	(1.608770e+02 -3.395054e-01 8.101362e+00)	(5.755173e-04 1.942650e-04 -5.381028e-04)
1175          	(1.608776e+02 -3.393113e-01 8.100824e+00)	(1.608770e+02 -3.395055e-01 8.101362e+00)	(5.754923e-04 1.942627e-04 -5.380874e-04)
1176          	(1.608776e+02 -3.393114e-01 8.100824e+00)	(1.608770e+02 -3.395056e-01 8.101362e+00)	(5.754619e-04 1.942601e-04 -5.380730e-04)
1177          	(1.608776e+02 -3.393114e-01 8.100824e+00)	(1.608770e+02 -3.395057e-01 8.101362e+00)	(5.754308e-04 1.942576e-04 -5.380578e-04)
1178          	(1.608776e+02 -3.393115e-01 8.100824e+00)	(1.608770e+02 -3.395058e-01 8.101363e+00)	(5.753989e-04 1.942550e-04 -5.380436e-04)
1179          	(1.608776e+02 -3.393116e-01 8.100825e+00)	(1.608770e+02 -3.395059e-01 8.101363e+00)	(5.753705e-04 1.942527e-04 -5.380294e-04)
1180          	(1.608776e+02 -3.393117e-01 8.100825e+00)	(1.608770e+02 -3.395060e-01 8.101363e+00)	(5.753409e-04 1.942505e-04 -5.380165e-04)
1181          	(1.608776e+02 -3.393118e-01 8.100825e+00)	(1.608770e+02 -3.395061e-01 8.101363e+00)	(5.753066e-04 1.942480e-04 -5.380034e-04)
1182          	(1.608776e+02 -3.393119e-01 8.100825e+00)	(1.608770e+02 -3.395062e-01 8.101363e+00)	(5.752762e-04 1.942458e-04 -5.379913e-04)
1183          	(1.608776e+02 -3.393120e-01 8.100825e+00)	(1.608770e+02 -3.395062e-01 8.101363e+00)	(5.752410e-04 1.942434e-04 -5.379799e-04)
1184          	(1.608776e+02 -3.393122e-01 8.100826e+00)	(1.608770e+02 -3.395065e-01 8.101364e+00)	(5.752105e-04 1.942406e-04 -5.379673e-04)
1185          	(1.608776e+02 -3.393123e-01 8.100826e+00)	(1.608770e+02 -3.395065e-01 8.101364e+00)	(5.751796e-04 1.942383e-04 -5.379555e-04)
1186          	(1.608776e+02 -3.393123e-01 8.100825e+00)	(1.608770e+02 -3.395066e-01 8.101363e+00)	(5.751479e-04 1.942362e-04 -5.379457e-04)
1187          	(1.608776e+02 -3.393124e-01 8.100825e+00)	(1.608770e+02 -3.395066e-01 8.101363e+00)	(5.751159e-04 1.942344e-04 -5.379366e-04)
1188          	(1.608776e+02 -3.393125e-01 8.100825e+00)	(1.608770e+02 -3.395067e-01 8.101363e+00)	(5.750833e-04 1.942326e-04 -5.379288e-04)
1189          	(1.608776e+02 -3.393125e-01 8.100825e+00)	(1.608770e+02 -3.395067e-01 8.101363e+00)	(5.750463e-04 1.942306e-04 -5.379209e-04)
1190          	(1.608776e+02 -3.393126e-01 8.100824e+00)	(1.608770e+02 -3.395068e-01 8.101362e+00)	(5.750142e-04 1.942290e-04 -5.379135e-04)
1191          	(1.608776e+02 -3.393128e-01 8.100826e+00)	(1.608770e+02 -3.395070e-01 8.101364e+00)	(5.749831e-04 1.942268e-04 -5.379042e-04)
1192          	(1.608776e+02 -3.393128e-01 8.100825e+00)	(1.608770e+02 -3.395071e-01 8.101363e+00)	(5.749512e-04 1.942248e-04 -5.378962e-04)
1193          	(1.608776e+02 -3.393129e-01 8.100825e+00)	(1.608770e+02 -3.395071e-01 8.101363e+00)	(5.749193e-04 1.942233e-04 -5.378886e-04)
1194          	(1.608776e+02 -3.393129e-01 8.100825e+00)	(1.608770e+02 -3.395072e-01 8.101363e+00)	(5.748870e-04 1.942218e-04 -5.378822e-04)
1195          	(1.608776e+02 -3.393130e-01 8.100824e+00)	(1.608770e+02 -3.395072e-01 8.101362e+00)	(5.748547e-04 1.942204e-04 -5.378758e-04)
1196          	(1.608776e+02 -3.393132e-01 8.100826e+00)	(1.608770e+02 -3.395074e-01 8.101363e+00)	(5.748229e-04 1.942184e-04 -5.378677e-04)
1197          	(1.608776e+02 -3.393133e-01 8.100825e+00)	(1.608770e+02 -3.395075e-01 8.101363e+00)	(5.747912e-04 1.942166e-04 -5.378596e-04)
1198          	(1.608776e+02 -3.393134e-01 8.100825e+00)	(1.608770e+02 -3.395076e-01 8.101363e+00)	(5.747594e-04 1.942150e-04 -5.378529e-04)
1199          	(1.608776e+02 -3.393134e-01 8.100825e+00)	(1.608770e+02 -3.395077e-01 8.101363e+00)	(5.747280e-04 1.942135e-04 -5.378459e-04)
1200          	(1.608776e+02 -3.393137e-01 8.100827e+00)	(1.608770e+02 -3.395079e-01 8.101364e+00)	(5.746973e-04 1.942113e-04 -5.378375e-04)
1201          	(1.608776e+02 -3.393138e-01 8.100827e+00)	(1.608770e+02 -3.395080e-01 8.101365e+00)	(5.746669e-04 1.942094e-04 -5.378294e-04)
1202          	(1.608776e+02 -3.393139e-01 8.100827e+00)	(1.608770e+02 -3.395081e-01 8.101365e+00)	(5.746366e-04 1.942076e-04 -5.378225e-04)
1203          	(1.608776e+02 -3.393141e-01 8.100828e+00)	(1.608770e+02 -3.395083e-01 8.101366e+00)	(5.746071e-04 1.942054e-04 -5.378141e-04)
1204          	(1.608776e+02 -3.393142e-01 8.100828e+00)	(1.608770e+02 -3.395084e-01 8.101366e+00)	(5.745775e-04 1.942034e-04 -5.378073e-04)
1205          	(1.608776e+02 -3.393143e-01 8.100828e+00)	(1.608770e+02 -3.395085e-01 8.101366e+00)	(5.745486e-04 1.942016e-04 -5.378006e-04)
1206          	(1.608776e+02 -3.393145e-01 8.100829e+00)	(1.608770e+02 -3.395087e-01 8.101367e+00)	(5.745200e-04 1.941992e-04 -5.377934e-04)
