# Moment      
# CofR        : (0.000000e+00 0.000000e+00 0.000000e+00)
#
# Time        	(total_x total_y total_z)	(pressure_x pressure_y pressure_z)	(viscous_x viscous_y viscous_z)
4501          	(-1.353180e-02 7.748241e-02 -7.003922e-03)	(-1.358775e-02 7.751295e-02 -7.053666e-03)	(5.595580e-05 -3.053711e-05 4.974389e-05)
4502          	(-1.352807e-02 7.746514e-02 -6.918395e-03)	(-1.358362e-02 7.749576e-02 -6.967949e-03)	(5.554982e-05 -3.062456e-05 4.955380e-05)
4503          	(-1.352476e-02 7.753468e-02 -6.824240e-03)	(-1.357999e-02 7.756536e-02 -6.873483e-03)	(5.522537e-05 -3.067855e-05 4.924297e-05)
4504          	(-1.353030e-02 7.760739e-02 -6.769756e-03)	(-1.358527e-02 7.763809e-02 -6.818540e-03)	(5.496833e-05 -3.070639e-05 4.878418e-05)
4505          	(-1.354599e-02 7.766816e-02 -6.745368e-03)	(-1.360074e-02 7.769888e-02 -6.793573e-03)	(5.475419e-05 -3.071881e-05 4.820470e-05)
4506          	(-1.357120e-02 7.771128e-02 -6.772594e-03)	(-1.362576e-02 7.774201e-02 -6.820132e-03)	(5.456104e-05 -3.072877e-05 4.753779e-05)
4507          	(-1.360276e-02 7.774491e-02 -6.813539e-03)	(-1.365713e-02 7.777565e-02 -6.860392e-03)	(5.436602e-05 -3.074694e-05 4.685270e-05)
4508          	(-1.362710e-02 7.755663e-02 -6.834399e-03)	(-1.368124e-02 7.758746e-02 -6.880640e-03)	(5.413395e-05 -3.082856e-05 4.624106e-05)
4509          	(-1.364572e-02 7.738788e-02 -6.869183e-03)	(-1.369958e-02 7.741883e-02 -6.914917e-03)	(5.385799e-05 -3.094332e-05 4.573440e-05)
4510          	(-1.366141e-02 7.744463e-02 -6.945726e-03)	(-1.371500e-02 7.747566e-02 -6.991068e-03)	(5.359012e-05 -3.102966e-05 4.534134e-05)
4511          	(-1.366251e-02 7.743534e-02 -7.007290e-03)	(-1.371585e-02 7.746645e-02 -7.052385e-03)	(5.334470e-05 -3.111277e-05 4.509484e-05)
4512          	(-1.366136e-02 7.741919e-02 -7.048955e-03)	(-1.371447e-02 7.745038e-02 -7.093958e-03)	(5.310779e-05 -3.119603e-05 4.500323e-05)
4513          	(-1.365796e-02 7.740198e-02 -7.076611e-03)	(-1.371084e-02 7.743327e-02 -7.121674e-03)	(5.287975e-05 -3.128552e-05 4.506268e-05)
4514          	(-1.365398e-02 7.738414e-02 -7.093966e-03)	(-1.370664e-02 7.741553e-02 -7.139222e-03)	(5.265894e-05 -3.138638e-05 4.525615e-05)
4515          	(-1.365172e-02 7.736840e-02 -7.115956e-03)	(-1.370417e-02 7.739990e-02 -7.161519e-03)	(5.245019e-05 -3.150236e-05 4.556287e-05)
4516          	(-1.365877e-02 7.731176e-02 -7.185002e-03)	(-1.371103e-02 7.734341e-02 -7.230963e-03)	(5.225542e-05 -3.164869e-05 4.596125e-05)
4517          	(-1.366290e-02 7.729744e-02 -7.244008e-03)	(-1.371497e-02 7.732925e-02 -7.290415e-03)	(5.206620e-05 -3.180543e-05 4.640729e-05)
4518          	(-1.366598e-02 7.714191e-02 -7.283777e-03)	(-1.371785e-02 7.717392e-02 -7.330650e-03)	(5.186731e-05 -3.200447e-05 4.687346e-05)
4519          	(-1.366729e-02 7.698309e-02 -7.359173e-03)	(-1.371894e-02 7.701532e-02 -7.406472e-03)	(5.164931e-05 -3.222244e-05 4.729963e-05)
4520          	(-1.366262e-02 7.681838e-02 -7.477294e-03)	(-1.371404e-02 7.685083e-02 -7.524982e-03)	(5.142257e-05 -3.244763e-05 4.768810e-05)
4521          	(-1.365832e-02 7.671098e-02 -7.644585e-03)	(-1.370952e-02 7.674363e-02 -7.692616e-03)	(5.120249e-05 -3.265524e-05 4.803108e-05)
4522          	(-1.369577e-02 7.721507e-02 -7.922016e-03)	(-1.374681e-02 7.724780e-02 -7.970316e-03)	(5.103886e-05 -3.273072e-05 4.829982e-05)
4523          	(-1.371274e-02 7.719510e-02 -8.008619e-03)	(-1.376361e-02 7.722795e-02 -8.057137e-03)	(5.087385e-05 -3.285440e-05 4.851803e-05)
4524          	(-1.373505e-02 7.723819e-02 -8.012771e-03)	(-1.378577e-02 7.727118e-02 -8.061437e-03)	(5.072142e-05 -3.298899e-05 4.866615e-05)
4525          	(-1.375149e-02 7.728152e-02 -7.974058e-03)	(-1.380210e-02 7.731466e-02 -8.022766e-03)	(5.061081e-05 -3.313965e-05 4.870773e-05)
4526          	(-1.376155e-02 7.732194e-02 -7.904973e-03)	(-1.381209e-02 7.735525e-02 -7.953658e-03)	(5.054500e-05 -3.331255e-05 4.868449e-05)
4527          	(-1.376306e-02 7.734436e-02 -7.807510e-03)	(-1.381359e-02 7.737786e-02 -7.856085e-03)	(5.053672e-05 -3.350137e-05 4.857545e-05)
4528          	(-1.375992e-02 7.734938e-02 -7.685755e-03)	(-1.381051e-02 7.738307e-02 -7.734112e-03)	(5.059079e-05 -3.369761e-05 4.835660e-05)
4529          	(-1.375620e-02 7.734947e-02 -7.578268e-03)	(-1.380690e-02 7.738336e-02 -7.626275e-03)	(5.070102e-05 -3.389137e-05 4.800731e-05)
4530          	(-1.375431e-02 7.734635e-02 -7.500566e-03)	(-1.380516e-02 7.738043e-02 -7.548099e-03)	(5.085301e-05 -3.407699e-05 4.753239e-05)
4531          	(-1.375636e-02 7.733689e-02 -7.462325e-03)	(-1.380738e-02 7.737115e-02 -7.509277e-03)	(5.102339e-05 -3.425554e-05 4.695221e-05)
4532          	(-1.376860e-02 7.776475e-02 -7.465998e-03)	(-1.381983e-02 7.779908e-02 -7.512280e-03)	(5.123691e-05 -3.433136e-05 4.628182e-05)
4533          	(-1.379146e-02 7.773196e-02 -7.451262e-03)	(-1.384289e-02 7.776642e-02 -7.496909e-03)	(5.142332e-05 -3.446763e-05 4.564690e-05)
4534          	(-1.381989e-02 7.769225e-02 -7.458032e-03)	(-1.387140e-02 7.772690e-02 -7.503142e-03)	(5.150762e-05 -3.464721e-05 4.510946e-05)
4535          	(-1.384447e-02 7.767669e-02 -7.485486e-03)	(-1.389601e-02 7.771155e-02 -7.530208e-03)	(5.154261e-05 -3.485825e-05 4.472203e-05)
4536          	(-1.385776e-02 7.765324e-02 -7.495854e-03)	(-1.390931e-02 7.768833e-02 -7.540360e-03)	(5.155214e-05 -3.509214e-05 4.450590e-05)
4537          	(-1.386027e-02 7.763263e-02 -7.495256e-03)	(-1.391183e-02 7.766797e-02 -7.539723e-03)	(5.155960e-05 -3.534026e-05 4.446704e-05)
4538          	(-1.385396e-02 7.761116e-02 -7.486741e-03)	(-1.390555e-02 7.764676e-02 -7.531348e-03)	(5.158495e-05 -3.559856e-05 4.460723e-05)
4539          	(-1.384150e-02 7.759247e-02 -7.475317e-03)	(-1.389313e-02 7.762833e-02 -7.520230e-03)	(5.163380e-05 -3.586476e-05 4.491313e-05)
4540          	(-1.382446e-02 7.756799e-02 -7.452939e-03)	(-1.387617e-02 7.760413e-02 -7.498312e-03)	(5.171121e-05 -3.613973e-05 4.537353e-05)
4541          	(-1.380075e-02 7.752711e-02 -7.410111e-03)	(-1.385258e-02 7.756353e-02 -7.456073e-03)	(5.183708e-05 -3.642067e-05 4.596202e-05)
4542          	(-1.376985e-02 7.721010e-02 -7.347382e-03)	(-1.382184e-02 7.724687e-02 -7.394043e-03)	(5.199829e-05 -3.676969e-05 4.666118e-05)
4543          	(-1.376477e-02 7.737003e-02 -7.398076e-03)	(-1.381697e-02 7.740708e-02 -7.445408e-03)	(5.219493e-05 -3.704841e-05 4.733245e-05)
4544          	(-1.374950e-02 7.715026e-02 -7.441319e-03)	(-1.380189e-02 7.718764e-02 -7.489325e-03)	(5.238315e-05 -3.737974e-05 4.800618e-05)
4545          	(-1.376036e-02 7.730500e-02 -7.572547e-03)	(-1.381292e-02 7.734264e-02 -7.621129e-03)	(5.255416e-05 -3.764541e-05 4.858230e-05)
4546          	(-1.376215e-02 7.717326e-02 -7.655637e-03)	(-1.381486e-02 7.721120e-02 -7.704742e-03)	(5.270820e-05 -3.794483e-05 4.910503e-05)
4547          	(-1.376813e-02 7.727533e-02 -7.746767e-03)	(-1.382100e-02 7.731353e-02 -7.796306e-03)	(5.287039e-05 -3.819956e-05 4.953840e-05)
4548          	(-1.377100e-02 7.734996e-02 -7.792178e-03)	(-1.382406e-02 7.738840e-02 -7.842039e-03)	(5.305515e-05 -3.843935e-05 4.986045e-05)
4549          	(-1.377084e-02 7.734731e-02 -7.791842e-03)	(-1.382409e-02 7.738600e-02 -7.841896e-03)	(5.324525e-05 -3.868120e-05 5.005395e-05)
4550          	(-1.376428e-02 7.734757e-02 -7.758769e-03)	(-1.381774e-02 7.738649e-02 -7.808874e-03)	(5.345805e-05 -3.891751e-05 5.010494e-05)
4551          	(-1.375064e-02 7.734490e-02 -7.690467e-03)	(-1.380434e-02 7.738405e-02 -7.740527e-03)	(5.369878e-05 -3.915533e-05 5.006058e-05)
4552          	(-1.373224e-02 7.734098e-02 -7.607356e-03)	(-1.378622e-02 7.738037e-02 -7.657298e-03)	(5.397892e-05 -3.939275e-05 4.994181e-05)
4553          	(-1.371101e-02 7.733637e-02 -7.517758e-03)	(-1.376531e-02 7.737599e-02 -7.567493e-03)	(5.430535e-05 -3.962159e-05 4.973484e-05)
4554          	(-1.368870e-02 7.733145e-02 -7.427638e-03)	(-1.374338e-02 7.737129e-02 -7.477061e-03)	(5.468280e-05 -3.983285e-05 4.942270e-05)
4555          	(-1.366769e-02 7.732609e-02 -7.341285e-03)	(-1.372279e-02 7.736611e-02 -7.390281e-03)	(5.510322e-05 -4.001940e-05 4.899569e-05)
4556          	(-1.364694e-02 7.732140e-02 -7.260565e-03)	(-1.370250e-02 7.736158e-02 -7.309022e-03)	(5.555413e-05 -4.017672e-05 4.845711e-05)
4557          	(-1.362919e-02 7.731481e-02 -7.190470e-03)	(-1.368520e-02 7.735511e-02 -7.238303e-03)	(5.601573e-05 -4.030601e-05 4.783240e-05)
4558          	(-1.361706e-02 7.730722e-02 -7.146066e-03)	(-1.367351e-02 7.734764e-02 -7.193247e-03)	(5.645068e-05 -4.041582e-05 4.718124e-05)
4559          	(-1.358150e-02 7.713728e-02 -7.068650e-03)	(-1.363833e-02 7.717783e-02 -7.115233e-03)	(5.683302e-05 -4.054503e-05 4.658343e-05)
4560          	(-1.354307e-02 7.695613e-02 -6.985641e-03)	(-1.360023e-02 7.699681e-02 -7.031714e-03)	(5.716183e-05 -4.067495e-05 4.607293e-05)
4561          	(-1.352364e-02 7.694570e-02 -6.976562e-03)	(-1.358110e-02 7.698647e-02 -7.022228e-03)	(5.745990e-05 -4.076367e-05 4.566599e-05)
4562          	(-1.349829e-02 7.693539e-02 -6.967941e-03)	(-1.355604e-02 7.697621e-02 -7.013339e-03)	(5.775691e-05 -4.081889e-05 4.539838e-05)
4563          	(-1.346606e-02 7.691169e-02 -6.920802e-03)	(-1.352414e-02 7.695254e-02 -6.966102e-03)	(5.807752e-05 -4.084616e-05 4.529979e-05)
4564          	(-1.342570e-02 7.688835e-02 -6.868030e-03)	(-1.348415e-02 7.692919e-02 -6.913396e-03)	(5.844614e-05 -4.084655e-05 4.536532e-05)
4565          	(-1.337753e-02 7.686808e-02 -6.815875e-03)	(-1.343641e-02 7.690890e-02 -6.861447e-03)	(5.887823e-05 -4.082038e-05 4.557193e-05)
4566          	(-1.332498e-02 7.685459e-02 -6.781616e-03)	(-1.338437e-02 7.689536e-02 -6.827499e-03)	(5.938286e-05 -4.076779e-05 4.588303e-05)
4567          	(-1.327246e-02 7.684883e-02 -6.776528e-03)	(-1.333242e-02 7.688952e-02 -6.822776e-03)	(5.996568e-05 -4.068617e-05 4.624799e-05)
4568          	(-1.322254e-02 7.685107e-02 -6.805419e-03)	(-1.328315e-02 7.689164e-02 -6.852033e-03)	(6.060532e-05 -4.057431e-05 4.661461e-05)
4569          	(-1.317380e-02 7.718201e-02 -6.856113e-03)	(-1.323515e-02 7.722236e-02 -6.903053e-03)	(6.135459e-05 -4.035012e-05 4.693946e-05)
4570          	(-1.314557e-02 7.720738e-02 -6.952654e-03)	(-1.320767e-02 7.724751e-02 -6.999804e-03)	(6.210377e-05 -4.013555e-05 4.715002e-05)
4571          	(-1.311997e-02 7.723948e-02 -7.064472e-03)	(-1.318279e-02 7.727939e-02 -7.111736e-03)	(6.281676e-05 -3.991122e-05 4.726409e-05)
4572          	(-1.309198e-02 7.727552e-02 -7.176655e-03)	(-1.315552e-02 7.731519e-02 -7.223952e-03)	(6.354008e-05 -3.967138e-05 4.729629e-05)
4573          	(-1.307288e-02 7.759934e-02 -7.339149e-03)	(-1.313719e-02 7.763868e-02 -7.386363e-03)	(6.430998e-05 -3.934585e-05 4.721381e-05)
4574          	(-1.304080e-02 7.763334e-02 -7.389151e-03)	(-1.310588e-02 7.767237e-02 -7.436206e-03)	(6.508433e-05 -3.902817e-05 4.705486e-05)
4575          	(-1.300195e-02 7.766191e-02 -7.400229e-03)	(-1.306782e-02 7.770061e-02 -7.447049e-03)	(6.586312e-05 -3.869308e-05 4.682003e-05)
4576          	(-1.295575e-02 7.768484e-02 -7.377257e-03)	(-1.302241e-02 7.772318e-02 -7.423815e-03)	(6.666500e-05 -3.833978e-05 4.655824e-05)
4577          	(-1.290338e-02 7.770286e-02 -7.330384e-03)	(-1.297087e-02 7.774082e-02 -7.376704e-03)	(6.749603e-05 -3.796621e-05 4.632002e-05)
4578          	(-1.284734e-02 7.771641e-02 -7.267721e-03)	(-1.291570e-02 7.775397e-02 -7.313823e-03)	(6.836691e-05 -3.756224e-05 4.610175e-05)
4579          	(-1.279075e-02 7.772518e-02 -7.192750e-03)	(-1.286003e-02 7.776230e-02 -7.238640e-03)	(6.927801e-05 -3.712104e-05 4.589024e-05)
4580          	(-1.273770e-02 7.772851e-02 -7.109210e-03)	(-1.280793e-02 7.776514e-02 -7.154874e-03)	(7.022143e-05 -3.663869e-05 4.566459e-05)
4581          	(-1.269227e-02 7.772423e-02 -7.019031e-03)	(-1.276345e-02 7.776034e-02 -7.064442e-03)	(7.117417e-05 -3.611743e-05 4.541076e-05)
4582          	(-1.265796e-02 7.771404e-02 -6.935167e-03)	(-1.273006e-02 7.774960e-02 -6.980300e-03)	(7.210125e-05 -3.556492e-05 4.513303e-05)
4583          	(-1.263317e-02 7.769413e-02 -6.850629e-03)	(-1.270614e-02 7.772912e-02 -6.895483e-03)	(7.296880e-05 -3.499240e-05 4.485417e-05)
4584          	(-1.260703e-02 7.754974e-02 -6.751406e-03)	(-1.268076e-02 7.758418e-02 -6.796035e-03)	(7.373140e-05 -3.443750e-05 4.462985e-05)
4585          	(-1.258921e-02 7.738951e-02 -6.675352e-03)	(-1.266356e-02 7.742342e-02 -6.719863e-03)	(7.435115e-05 -3.390526e-05 4.451121e-05)
4586          	(-1.257781e-02 7.723981e-02 -6.625964e-03)	(-1.265264e-02 7.727320e-02 -6.670504e-03)	(7.482494e-05 -3.339524e-05 4.453918e-05)
4587          	(-1.258299e-02 7.722667e-02 -6.637409e-03)	(-1.265815e-02 7.725956e-02 -6.682129e-03)	(7.516579e-05 -3.288435e-05 4.472000e-05)
4588          	(-1.258885e-02 7.721901e-02 -6.649151e-03)	(-1.266424e-02 7.725140e-02 -6.694220e-03)	(7.538929e-05 -3.238638e-05 4.506873e-05)
4589          	(-1.259558e-02 7.721243e-02 -6.646072e-03)	(-1.267108e-02 7.724434e-02 -6.691653e-03)	(7.550370e-05 -3.191054e-05 4.558033e-05)
4590          	(-1.260310e-02 7.720761e-02 -6.624611e-03)	(-1.267862e-02 7.723908e-02 -6.670851e-03)	(7.551994e-05 -3.146639e-05 4.623975e-05)
4591          	(-1.261293e-02 7.719874e-02 -6.590566e-03)	(-1.268838e-02 7.722981e-02 -6.637589e-03)	(7.544401e-05 -3.106426e-05 4.702261e-05)
4592          	(-1.262576e-02 7.719397e-02 -6.561018e-03)	(-1.270105e-02 7.722468e-02 -6.608905e-03)	(7.529396e-05 -3.070886e-05 4.788716e-05)
4593          	(-1.264345e-02 7.719549e-02 -6.549249e-03)	(-1.271852e-02 7.722589e-02 -6.598008e-03)	(7.507364e-05 -3.039864e-05 4.875940e-05)
4594          	(-1.266812e-02 7.721105e-02 -6.567529e-03)	(-1.274288e-02 7.724118e-02 -6.617108e-03)	(7.476201e-05 -3.013183e-05 4.957849e-05)
4595          	(-1.271623e-02 7.741655e-02 -6.653424e-03)	(-1.279058e-02 7.744642e-02 -6.703696e-03)	(7.435354e-05 -2.987206e-05 5.027175e-05)
4596          	(-1.276958e-02 7.743939e-02 -6.743812e-03)	(-1.284340e-02 7.746907e-02 -6.794649e-03)	(7.382417e-05 -2.968116e-05 5.083697e-05)
4597          	(-1.283857e-02 7.765382e-02 -6.874281e-03)	(-1.291176e-02 7.768333e-02 -6.925546e-03)	(7.318740e-05 -2.950815e-05 5.126507e-05)
4598          	(-1.290555e-02 7.767657e-02 -6.963206e-03)	(-1.297800e-02 7.770598e-02 -7.014787e-03)	(7.244485e-05 -2.941152e-05 5.158065e-05)
4599          	(-1.298267e-02 7.784304e-02 -7.071237e-03)	(-1.305427e-02 7.787238e-02 -7.123002e-03)	(7.160941e-05 -2.934200e-05 5.176506e-05)
4600          	(-1.304502e-02 7.786377e-02 -7.109274e-03)	(-1.311572e-02 7.789311e-02 -7.161114e-03)	(7.070346e-05 -2.933094e-05 5.183989e-05)
4601          	(-1.309665e-02 7.787726e-02 -7.099527e-03)	(-1.316641e-02 7.790662e-02 -7.151343e-03)	(6.976024e-05 -2.935530e-05 5.181604e-05)
4602          	(-1.313977e-02 7.788451e-02 -7.053765e-03)	(-1.320858e-02 7.791391e-02 -7.105496e-03)	(6.880771e-05 -2.940748e-05 5.173116e-05)
4603          	(-1.317367e-02 7.788305e-02 -6.970468e-03)	(-1.324153e-02 7.791253e-02 -7.022092e-03)	(6.786288e-05 -2.948093e-05 5.162448e-05)
4604          	(-1.320295e-02 7.787760e-02 -6.870227e-03)	(-1.326989e-02 7.790716e-02 -6.921711e-03)	(6.694658e-05 -2.956264e-05 5.148432e-05)
4605          	(-1.322961e-02 7.786924e-02 -6.760326e-03)	(-1.329569e-02 7.789888e-02 -6.811620e-03)	(6.607384e-05 -2.964206e-05 5.129478e-05)
4606          	(-1.325596e-02 7.785894e-02 -6.650649e-03)	(-1.332121e-02 7.788865e-02 -6.701679e-03)	(6.525748e-05 -2.970852e-05 5.102970e-05)
4607          	(-1.328475e-02 7.784764e-02 -6.554685e-03)	(-1.334925e-02 7.787739e-02 -6.605351e-03)	(6.449823e-05 -2.975434e-05 5.066580e-05)
4608          	(-1.331632e-02 7.783628e-02 -6.475930e-03)	(-1.338011e-02 7.786605e-02 -6.526136e-03)	(6.379007e-05 -2.977760e-05 5.020587e-05)
4609          	(-1.335175e-02 7.782321e-02 -6.420781e-03)	(-1.341486e-02 7.785299e-02 -6.470451e-03)	(6.311511e-05 -2.978262e-05 4.967020e-05)
4610          	(-1.339005e-02 7.780797e-02 -6.389347e-03)	(-1.345250e-02 7.783775e-02 -6.438462e-03)	(6.245122e-05 -2.977907e-05 4.911437e-05)
4611          	(-1.342221e-02 7.764978e-02 -6.369683e-03)	(-1.348398e-02 7.767959e-02 -6.418301e-03)	(6.176701e-05 -2.980667e-05 4.861763e-05)
4612          	(-1.344521e-02 7.747734e-02 -6.362098e-03)	(-1.350627e-02 7.750719e-02 -6.410316e-03)	(6.105968e-05 -2.985565e-05 4.821799e-05)
4613          	(-1.345758e-02 7.731450e-02 -6.365681e-03)	(-1.351793e-02 7.734442e-02 -6.413615e-03)	(6.035493e-05 -2.991541e-05 4.793432e-05)
4614          	(-1.346514e-02 7.729572e-02 -6.376689e-03)	(-1.352482e-02 7.732567e-02 -6.424450e-03)	(5.968435e-05 -2.995082e-05 4.776062e-05)
4615          	(-1.346554e-02 7.727700e-02 -6.378718e-03)	(-1.352460e-02 7.730698e-02 -6.426420e-03)	(5.905809e-05 -2.997569e-05 4.770149e-05)
4616          	(-1.346051e-02 7.726329e-02 -6.378644e-03)	(-1.351898e-02 7.729329e-02 -6.426397e-03)	(5.847251e-05 -2.999768e-05 4.775280e-05)
4617          	(-1.345514e-02 7.725062e-02 -6.378427e-03)	(-1.351307e-02 7.728065e-02 -6.426333e-03)	(5.792335e-05 -3.002668e-05 4.790622e-05)
4618          	(-1.345093e-02 7.723010e-02 -6.374674e-03)	(-1.350835e-02 7.726018e-02 -6.422820e-03)	(5.741366e-05 -3.007065e-05 4.814546e-05)
4619          	(-1.344988e-02 7.721491e-02 -6.400669e-03)	(-1.350682e-02 7.724504e-02 -6.449091e-03)	(5.694710e-05 -3.012949e-05 4.842173e-05)
4620          	(-1.345363e-02 7.720641e-02 -6.468870e-03)	(-1.351013e-02 7.723662e-02 -6.517556e-03)	(5.650018e-05 -3.020337e-05 4.868533e-05)
4621          	(-1.346290e-02 7.720507e-02 -6.581595e-03)	(-1.351895e-02 7.723536e-02 -6.630485e-03)	(5.605076e-05 -3.029033e-05 4.888940e-05)
4622          	(-1.347713e-02 7.721040e-02 -6.730119e-03)	(-1.353272e-02 7.724079e-02 -6.779137e-03)	(5.559072e-05 -3.038886e-05 4.901862e-05)
4623          	(-1.349690e-02 7.722619e-02 -6.899471e-03)	(-1.355202e-02 7.725669e-02 -6.948567e-03)	(5.511965e-05 -3.049902e-05 4.909525e-05)
4624          	(-1.351415e-02 7.735053e-02 -7.058215e-03)	(-1.356882e-02 7.738112e-02 -7.107322e-03)	(5.466837e-05 -3.059471e-05 4.910705e-05)
4625          	(-1.353585e-02 7.747017e-02 -7.194260e-03)	(-1.359009e-02 7.750085e-02 -7.243308e-03)	(5.423906e-05 -3.068761e-05 4.904824e-05)
4626          	(-1.356097e-02 7.758991e-02 -7.293598e-03)	(-1.361479e-02 7.762069e-02 -7.342515e-03)	(5.382320e-05 -3.078185e-05 4.891621e-05)
4627          	(-1.358397e-02 7.770980e-02 -7.356794e-03)	(-1.363741e-02 7.774068e-02 -7.405507e-03)	(5.344049e-05 -3.087924e-05 4.871265e-05)
4628          	(-1.360567e-02 7.780889e-02 -7.375354e-03)	(-1.365877e-02 7.783987e-02 -7.423809e-03)	(5.310302e-05 -3.098649e-05 4.845517e-05)
4629          	(-1.360463e-02 7.781768e-02 -7.314187e-03)	(-1.365745e-02 7.784879e-02 -7.362384e-03)	(5.282060e-05 -3.111923e-05 4.819706e-05)
4630          	(-1.360004e-02 7.782530e-02 -7.238032e-03)	(-1.365264e-02 7.785656e-02 -7.285944e-03)	(5.260992e-05 -3.125971e-05 4.791276e-05)
4631          	(-1.359433e-02 7.783103e-02 -7.154410e-03)	(-1.364680e-02 7.786243e-02 -7.201996e-03)	(5.246781e-05 -3.139726e-05 4.758619e-05)
4632          	(-1.359033e-02 7.783478e-02 -7.073393e-03)	(-1.364272e-02 7.786630e-02 -7.120586e-03)	(5.239214e-05 -3.152117e-05 4.719275e-05)
4633          	(-1.359105e-02 7.783632e-02 -7.004623e-03)	(-1.364342e-02 7.786794e-02 -7.051346e-03)	(5.236885e-05 -3.162568e-05 4.672235e-05)
4634          	(-1.359870e-02 7.783461e-02 -6.952757e-03)	(-1.365108e-02 7.786632e-02 -6.998951e-03)	(5.238028e-05 -3.171121e-05 4.619414e-05)
4635          	(-1.361397e-02 7.782952e-02 -6.921940e-03)	(-1.366638e-02 7.786131e-02 -6.967585e-03)	(5.240373e-05 -3.178364e-05 4.564590e-05)
4636          	(-1.363603e-02 7.782035e-02 -6.912238e-03)	(-1.368844e-02 7.785221e-02 -6.957385e-03)	(5.241433e-05 -3.185504e-05 4.514669e-05)
4637          	(-1.365020e-02 7.749418e-02 -6.859856e-03)	(-1.370256e-02 7.752618e-02 -6.904649e-03)	(5.236317e-05 -3.200227e-05 4.479241e-05)
4638          	(-1.366693e-02 7.747460e-02 -6.894614e-03)	(-1.371921e-02 7.750672e-02 -6.939167e-03)	(5.228034e-05 -3.212314e-05 4.455305e-05)
4639          	(-1.368172e-02 7.741935e-02 -6.948221e-03)	(-1.373392e-02 7.745160e-02 -6.992690e-03)	(5.219903e-05 -3.224809e-05 4.446911e-05)
4640          	(-1.369021e-02 7.735753e-02 -6.995202e-03)	(-1.374232e-02 7.738991e-02 -7.039750e-03)	(5.210652e-05 -3.237956e-05 4.454794e-05)
4641          	(-1.368761e-02 7.733973e-02 -7.023563e-03)	(-1.373963e-02 7.737224e-02 -7.068348e-03)	(5.202552e-05 -3.250835e-05 4.478506e-05)
4642          	(-1.368091e-02 7.732342e-02 -7.039916e-03)	(-1.373287e-02 7.735606e-02 -7.085070e-03)	(5.195884e-05 -3.264268e-05 4.515416e-05)
4643          	(-1.367238e-02 7.730467e-02 -7.047962e-03)	(-1.372427e-02 7.733746e-02 -7.093590e-03)	(5.189362e-05 -3.279068e-05 4.562814e-05)
4644          	(-1.366407e-02 7.728723e-02 -7.054290e-03)	(-1.371591e-02 7.732018e-02 -7.100474e-03)	(5.183983e-05 -3.295644e-05 4.618350e-05)
4645          	(-1.365778e-02 7.727110e-02 -7.068413e-03)	(-1.370959e-02 7.730424e-02 -7.115194e-03)	(5.180798e-05 -3.314048e-05 4.678130e-05)
4646          	(-1.365457e-02 7.725763e-02 -7.104460e-03)	(-1.370635e-02 7.729097e-02 -7.151827e-03)	(5.178331e-05 -3.334126e-05 4.736634e-05)
4647          	(-1.365524e-02 7.724718e-02 -7.168408e-03)	(-1.370698e-02 7.728073e-02 -7.216295e-03)	(5.174655e-05 -3.355632e-05 4.788665e-05)
4648          	(-1.365929e-02 7.723878e-02 -7.254735e-03)	(-1.371099e-02 7.727256e-02 -7.303048e-03)	(5.169381e-05 -3.378284e-05 4.831337e-05)
4649          	(-1.366370e-02 7.710953e-02 -7.329893e-03)	(-1.371532e-02 7.714358e-02 -7.378560e-03)	(5.161883e-05 -3.404934e-05 4.866676e-05)
4650          	(-1.366469e-02 7.709305e-02 -7.412266e-03)	(-1.371625e-02 7.712735e-02 -7.461203e-03)	(5.155614e-05 -3.430728e-05 4.893655e-05)
4651          	(-1.366086e-02 7.698286e-02 -7.457452e-03)	(-1.371237e-02 7.701744e-02 -7.506577e-03)	(5.150776e-05 -3.458100e-05 4.912489e-05)
4652          	(-1.364996e-02 7.696285e-02 -7.457743e-03)	(-1.370145e-02 7.699768e-02 -7.506955e-03)	(5.149066e-05 -3.483003e-05 4.921137e-05)
4653          	(-1.363584e-02 7.694264e-02 -7.447917e-03)	(-1.368736e-02 7.697769e-02 -7.497091e-03)	(5.152538e-05 -3.505707e-05 4.917356e-05)
4654          	(-1.361959e-02 7.692410e-02 -7.422400e-03)	(-1.367120e-02 7.695937e-02 -7.471443e-03)	(5.160543e-05 -3.526900e-05 4.904243e-05)
4655          	(-1.362003e-02 7.728452e-02 -7.486407e-03)	(-1.367179e-02 7.731992e-02 -7.535201e-03)	(5.176183e-05 -3.539370e-05 4.879466e-05)
4656          	(-1.361564e-02 7.727527e-02 -7.419780e-03)	(-1.366760e-02 7.731083e-02 -7.468278e-03)	(5.196476e-05 -3.555956e-05 4.849732e-05)
4657          	(-1.361521e-02 7.727252e-02 -7.338966e-03)	(-1.366742e-02 7.730826e-02 -7.387100e-03)	(5.220910e-05 -3.574097e-05 4.813390e-05)
4658          	(-1.361852e-02 7.727435e-02 -7.259834e-03)	(-1.367102e-02 7.731029e-02 -7.307530e-03)	(5.249636e-05 -3.593436e-05 4.769632e-05)
4659          	(-1.362222e-02 7.727725e-02 -7.187299e-03)	(-1.367503e-02 7.731339e-02 -7.234485e-03)	(5.281293e-05 -3.613293e-05 4.718629e-05)
4660          	(-1.364453e-02 7.758956e-02 -7.156981e-03)	(-1.369769e-02 7.762583e-02 -7.203572e-03)	(5.316294e-05 -3.627059e-05 4.659027e-05)
4661          	(-1.366319e-02 7.758991e-02 -7.103542e-03)	(-1.371668e-02 7.762636e-02 -7.149548e-03)	(5.348962e-05 -3.645392e-05 4.600666e-05)
4662          	(-1.368364e-02 7.758856e-02 -7.064152e-03)	(-1.373737e-02 7.762523e-02 -7.109630e-03)	(5.373529e-05 -3.666833e-05 4.547778e-05)
4663          	(-1.370183e-02 7.758541e-02 -7.035352e-03)	(-1.375575e-02 7.762232e-02 -7.080411e-03)	(5.391278e-05 -3.691195e-05 4.505844e-05)
4664          	(-1.371940e-02 7.764327e-02 -7.005579e-03)	(-1.377343e-02 7.768043e-02 -7.050350e-03)	(5.403499e-05 -3.716475e-05 4.477118e-05)
4665          	(-1.372963e-02 7.771164e-02 -6.978650e-03)	(-1.378376e-02 7.774907e-02 -7.023280e-03)	(5.412688e-05 -3.742351e-05 4.462968e-05)
4666          	(-1.372951e-02 7.777210e-02 -6.937548e-03)	(-1.378373e-02 7.780979e-02 -6.982189e-03)	(5.422013e-05 -3.768563e-05 4.464161e-05)
4667          	(-1.371126e-02 7.775376e-02 -6.877690e-03)	(-1.376560e-02 7.779172e-02 -6.922499e-03)	(5.433969e-05 -3.796159e-05 4.480926e-05)
4668          	(-1.368996e-02 7.773904e-02 -6.823338e-03)	(-1.374446e-02 7.777728e-02 -6.868453e-03)	(5.449669e-05 -3.824333e-05 4.511528e-05)
4669          	(-1.366661e-02 7.772524e-02 -6.774033e-03)	(-1.372130e-02 7.776377e-02 -6.819577e-03)	(5.469434e-05 -3.852990e-05 4.554469e-05)
4670          	(-1.359904e-02 7.719148e-02 -6.616531e-03)	(-1.365396e-02 7.723040e-02 -6.662644e-03)	(5.492162e-05 -3.891958e-05 4.611357e-05)
4671          	(-1.355610e-02 7.710220e-02 -6.610250e-03)	(-1.361131e-02 7.714145e-02 -6.656932e-03)	(5.520644e-05 -3.925657e-05 4.668219e-05)
4672          	(-1.352540e-02 7.709399e-02 -6.649762e-03)	(-1.358093e-02 7.713354e-02 -6.697018e-03)	(5.553155e-05 -3.954251e-05 4.725665e-05)
4673          	(-1.350380e-02 7.709427e-02 -6.720404e-03)	(-1.355967e-02 7.713405e-02 -6.768200e-03)	(5.586386e-05 -3.978629e-05 4.779605e-05)
4674          	(-1.349543e-02 7.710153e-02 -6.820113e-03)	(-1.355162e-02 7.714152e-02 -6.868388e-03)	(5.619803e-05 -3.999734e-05 4.827521e-05)
4675          	(-1.348850e-02 7.711164e-02 -6.908496e-03)	(-1.354503e-02 7.715182e-02 -6.957181e-03)	(5.653811e-05 -4.018281e-05 4.868414e-05)
4676          	(-1.347989e-02 7.712379e-02 -6.975303e-03)	(-1.353678e-02 7.716413e-02 -7.024299e-03)	(5.688985e-05 -4.034509e-05 4.899520e-05)
4677          	(-1.346833e-02 7.714043e-02 -7.021283e-03)	(-1.352558e-02 7.718091e-02 -7.070474e-03)	(5.725030e-05 -4.048581e-05 4.919147e-05)
4678          	(-1.345049e-02 7.715555e-02 -7.021288e-03)	(-1.350812e-02 7.719615e-02 -7.070546e-03)	(5.763044e-05 -4.060350e-05 4.925801e-05)
4679          	(-1.342507e-02 7.716875e-02 -6.977354e-03)	(-1.348311e-02 7.720945e-02 -7.026549e-03)	(5.804435e-05 -4.069697e-05 4.919467e-05)
4680          	(-1.339180e-02 7.717975e-02 -6.895883e-03)	(-1.345029e-02 7.722053e-02 -6.944946e-03)	(5.849194e-05 -4.077482e-05 4.906323e-05)
4681          	(-1.335303e-02 7.719020e-02 -6.795194e-03)	(-1.341202e-02 7.723103e-02 -6.844055e-03)	(5.898905e-05 -4.083167e-05 4.886091e-05)
4682          	(-1.331072e-02 7.727170e-02 -6.673958e-03)	(-1.337028e-02 7.731254e-02 -6.722515e-03)	(5.955421e-05 -4.084169e-05 4.855750e-05)
4683          	(-1.326888e-02 7.733932e-02 -6.556848e-03)	(-1.332906e-02 7.738012e-02 -6.604966e-03)	(6.018614e-05 -4.080709e-05 4.811833e-05)
4684          	(-1.322998e-02 7.738922e-02 -6.452936e-03)	(-1.329085e-02 7.742994e-02 -6.500469e-03)	(6.086539e-05 -4.072849e-05 4.753303e-05)
4685          	(-1.319923e-02 7.739598e-02 -6.387154e-03)	(-1.326080e-02 7.743659e-02 -6.433973e-03)	(6.156780e-05 -4.061820e-05 4.681907e-05)
4686          	(-1.317162e-02 7.739925e-02 -6.344875e-03)	(-1.323389e-02 7.743972e-02 -6.390888e-03)	(6.227515e-05 -4.047280e-05 4.601281e-05)
4687          	(-1.314559e-02 7.739864e-02 -6.323909e-03)	(-1.320855e-02 7.743894e-02 -6.369089e-03)	(6.295985e-05 -4.029796e-05 4.517932e-05)
4688          	(-1.311396e-02 7.732327e-02 -6.314855e-03)	(-1.317755e-02 7.736338e-02 -6.359251e-03)	(6.359915e-05 -4.011348e-05 4.439613e-05)
4689          	(-1.308400e-02 7.730946e-02 -6.320688e-03)	(-1.314819e-02 7.734936e-02 -6.364398e-03)	(6.419594e-05 -3.989650e-05 4.371010e-05)
4690          	(-1.305111e-02 7.729800e-02 -6.340772e-03)	(-1.311588e-02 7.733765e-02 -6.383932e-03)	(6.477214e-05 -3.964699e-05 4.316012e-05)
4691          	(-1.301203e-02 7.728328e-02 -6.355705e-03)	(-1.307738e-02 7.732264e-02 -6.398478e-03)	(6.535226e-05 -3.936255e-05 4.277326e-05)
4692          	(-1.296652e-02 7.727429e-02 -6.371433e-03)	(-1.303248e-02 7.731333e-02 -6.413993e-03)	(6.596599e-05 -3.904016e-05 4.255966e-05)
4693          	(-1.291479e-02 7.726739e-02 -6.380021e-03)	(-1.298142e-02 7.730607e-02 -6.422543e-03)	(6.662840e-05 -3.868195e-05 4.252159e-05)
4694          	(-1.285961e-02 7.726220e-02 -6.382570e-03)	(-1.292695e-02 7.730049e-02 -6.425229e-03)	(6.734141e-05 -3.829321e-05 4.265923e-05)
4695          	(-1.280395e-02 7.726154e-02 -6.391741e-03)	(-1.287205e-02 7.729942e-02 -6.434705e-03)	(6.810766e-05 -3.787987e-05 4.296345e-05)
4696          	(-1.275124e-02 7.726597e-02 -6.416254e-03)	(-1.282017e-02 7.730342e-02 -6.459653e-03)	(6.892864e-05 -3.744402e-05 4.339869e-05)
4697          	(-1.270404e-02 7.727587e-02 -6.464417e-03)	(-1.277381e-02 7.731286e-02 -6.508334e-03)	(6.977690e-05 -3.698954e-05 4.391680e-05)
4698          	(-1.266411e-02 7.729117e-02 -6.540046e-03)	(-1.273473e-02 7.732768e-02 -6.584499e-03)	(7.061800e-05 -3.651820e-05 4.445332e-05)
4699          	(-1.263273e-02 7.731112e-02 -6.641722e-03)	(-1.270416e-02 7.734715e-02 -6.686687e-03)	(7.143052e-05 -3.603294e-05 4.496473e-05)
4700          	(-1.260996e-02 7.733259e-02 -6.759093e-03)	(-1.268216e-02 7.736813e-02 -6.804549e-03)	(7.219786e-05 -3.554266e-05 4.545599e-05)
4701          	(-1.259380e-02 7.735237e-02 -6.875375e-03)	(-1.266670e-02 7.738742e-02 -6.921300e-03)	(7.290439e-05 -3.505461e-05 4.592552e-05)
4702          	(-1.257901e-02 7.735480e-02 -6.971385e-03)	(-1.265255e-02 7.738937e-02 -7.017744e-03)	(7.354006e-05 -3.457429e-05 4.635908e-05)
4703          	(-1.256585e-02 7.735023e-02 -7.047217e-03)	(-1.263995e-02 7.738433e-02 -7.093965e-03)	(7.410019e-05 -3.410321e-05 4.674728e-05)
4704          	(-1.254969e-02 7.726753e-02 -7.086857e-03)	(-1.262428e-02 7.730118e-02 -7.133954e-03)	(7.458701e-05 -3.365097e-05 4.709728e-05)
4705          	(-1.253432e-02 7.718518e-02 -7.095950e-03)	(-1.260932e-02 7.721839e-02 -7.143403e-03)	(7.499929e-05 -3.321754e-05 4.745305e-05)
4706          	(-1.252736e-02 7.719785e-02 -7.066184e-03)	(-1.260270e-02 7.723064e-02 -7.114022e-03)	(7.534844e-05 -3.279027e-05 4.783797e-05)
4707          	(-1.253151e-02 7.746288e-02 -7.036322e-03)	(-1.260718e-02 7.749521e-02 -7.084512e-03)	(7.566888e-05 -3.232079e-05 4.818963e-05)
4708          	(-1.254872e-02 7.772274e-02 -6.970296e-03)	(-1.262467e-02 7.775458e-02 -7.018763e-03)	(7.595822e-05 -3.184061e-05 4.846678e-05)