# Force       
# CofR        : (0.000000e+00 0.000000e+00 0.000000e+00)
#
# Time        	(total_x total_y total_z)	(pressure_x pressure_y pressure_z)	(viscous_x viscous_y viscous_z)
4601          	(3.630106e-01 2.172778e-01 9.604905e+02)	(3.598905e-01 2.160928e-01 9.604877e+02)	(3.120067e-03 1.184999e-03 2.817618e-03)
4602          	(3.628977e-01 2.171741e-01 9.604903e+02)	(3.597772e-01 2.159919e-01 9.604875e+02)	(3.120495e-03 1.182172e-03 2.815735e-03)
4603          	(3.627803e-01 2.170681e-01 9.604902e+02)	(3.596593e-01 2.158889e-01 9.604874e+02)	(3.120969e-03 1.179175e-03 2.813687e-03)
4604          	(3.626602e-01 2.169611e-01 9.604901e+02)	(3.595387e-01 2.157851e-01 9.604873e+02)	(3.121468e-03 1.176027e-03 2.811495e-03)
4605          	(3.625393e-01 2.168547e-01 9.604900e+02)	(3.594173e-01 2.156819e-01 9.604871e+02)	(3.122001e-03 1.172813e-03 2.809154e-03)
4606          	(3.623667e-01 2.167377e-01 9.604899e+02)	(3.592442e-01 2.155681e-01 9.604870e+02)	(3.122424e-03 1.169586e-03 2.806703e-03)
4607          	(3.622559e-01 2.166380e-01 9.604897e+02)	(3.591330e-01 2.154716e-01 9.604869e+02)	(3.122945e-03 1.166348e-03 2.804127e-03)
4608          	(3.621523e-01 2.165434e-01 9.604896e+02)	(3.590287e-01 2.153803e-01 9.604868e+02)	(3.123562e-03 1.163103e-03 2.801459e-03)
4609          	(3.620568e-01 2.164549e-01 9.604895e+02)	(3.589326e-01 2.152950e-01 9.604867e+02)	(3.124284e-03 1.159906e-03 2.798702e-03)
4610          	(3.618567e-01 2.163363e-01 9.604896e+02)	(3.587319e-01 2.151795e-01 9.604868e+02)	(3.124819e-03 1.156794e-03 2.795925e-03)
4611          	(3.617840e-01 2.162651e-01 9.604894e+02)	(3.586584e-01 2.151114e-01 9.604867e+02)	(3.125519e-03 1.153741e-03 2.793102e-03)
4612          	(3.617196e-01 2.161995e-01 9.604893e+02)	(3.585932e-01 2.150488e-01 9.604865e+02)	(3.126383e-03 1.150736e-03 2.790287e-03)
4613          	(3.616641e-01 2.161399e-01 9.604892e+02)	(3.585367e-01 2.149921e-01 9.604864e+02)	(3.127366e-03 1.147787e-03 2.787482e-03)
4614          	(3.616179e-01 2.160868e-01 9.604891e+02)	(3.584894e-01 2.149419e-01 9.604863e+02)	(3.128440e-03 1.144877e-03 2.784729e-03)
4615          	(3.615819e-01 2.160406e-01 9.604890e+02)	(3.584523e-01 2.148986e-01 9.604862e+02)	(3.129613e-03 1.142035e-03 2.782039e-03)
4616          	(3.615543e-01 2.160009e-01 9.604889e+02)	(3.584235e-01 2.148616e-01 9.604861e+02)	(3.130846e-03 1.139249e-03 2.779449e-03)
4617          	(3.615335e-01 2.159646e-01 9.604888e+02)	(3.584014e-01 2.148281e-01 9.604860e+02)	(3.132126e-03 1.136526e-03 2.776972e-03)
4618          	(3.615148e-01 2.159276e-01 9.604887e+02)	(3.583814e-01 2.147938e-01 9.604859e+02)	(3.133412e-03 1.133831e-03 2.774655e-03)
4619          	(3.614993e-01 2.158953e-01 9.604887e+02)	(3.583646e-01 2.147640e-01 9.604859e+02)	(3.134694e-03 1.131224e-03 2.772506e-03)
4620          	(3.613938e-01 2.158427e-01 9.604891e+02)	(3.582581e-01 2.147140e-01 9.604863e+02)	(3.135677e-03 1.128745e-03 2.770601e-03)
4621          	(3.613738e-01 2.158120e-01 9.604890e+02)	(3.582372e-01 2.146857e-01 9.604863e+02)	(3.136633e-03 1.126374e-03 2.768899e-03)
4622          	(3.613526e-01 2.157824e-01 9.604890e+02)	(3.582151e-01 2.146583e-01 9.604863e+02)	(3.137507e-03 1.124105e-03 2.767440e-03)
4623          	(3.613323e-01 2.157565e-01 9.604890e+02)	(3.581940e-01 2.146344e-01 9.604863e+02)	(3.138264e-03 1.122016e-03 2.766221e-03)
4624          	(3.613121e-01 2.157319e-01 9.604890e+02)	(3.581733e-01 2.146118e-01 9.604863e+02)	(3.138857e-03 1.120110e-03 2.765276e-03)
4625          	(3.612930e-01 2.157090e-01 9.604891e+02)	(3.581537e-01 2.145905e-01 9.604863e+02)	(3.139290e-03 1.118426e-03 2.764599e-03)
4626          	(3.612732e-01 2.156853e-01 9.604891e+02)	(3.581337e-01 2.145683e-01 9.604864e+02)	(3.139533e-03 1.116965e-03 2.764212e-03)
4627          	(3.612547e-01 2.156631e-01 9.604892e+02)	(3.581151e-01 2.145473e-01 9.604864e+02)	(3.139618e-03 1.115773e-03 2.764098e-03)
4628          	(3.612365e-01 2.156417e-01 9.604893e+02)	(3.580970e-01 2.145269e-01 9.604865e+02)	(3.139513e-03 1.114824e-03 2.764271e-03)
4629          	(3.611767e-01 2.156114e-01 9.604897e+02)	(3.580375e-01 2.144972e-01 9.604870e+02)	(3.139110e-03 1.114179e-03 2.764735e-03)
4630          	(3.611482e-01 2.155868e-01 9.604898e+02)	(3.580096e-01 2.144730e-01 9.604871e+02)	(3.138564e-03 1.113818e-03 2.765441e-03)
4631          	(3.611148e-01 2.155595e-01 9.604899e+02)	(3.579769e-01 2.144458e-01 9.604872e+02)	(3.137901e-03 1.113730e-03 2.766377e-03)
4632          	(3.610780e-01 2.155302e-01 9.604900e+02)	(3.579409e-01 2.144163e-01 9.604872e+02)	(3.137090e-03 1.113891e-03 2.767553e-03)
4633          	(3.610399e-01 2.154996e-01 9.604901e+02)	(3.579037e-01 2.143853e-01 9.604874e+02)	(3.136180e-03 1.114310e-03 2.768935e-03)
4634          	(3.610020e-01 2.154687e-01 9.604902e+02)	(3.578669e-01 2.143538e-01 9.604875e+02)	(3.135147e-03 1.114936e-03 2.770529e-03)
4635          	(3.609660e-01 2.154379e-01 9.604903e+02)	(3.578320e-01 2.143222e-01 9.604876e+02)	(3.134029e-03 1.115775e-03 2.772288e-03)
4636          	(3.609330e-01 2.154082e-01 9.604905e+02)	(3.578002e-01 2.142914e-01 9.604877e+02)	(3.132814e-03 1.116773e-03 2.774208e-03)
4637          	(3.609041e-01 2.153800e-01 9.604906e+02)	(3.577726e-01 2.142621e-01 9.604878e+02)	(3.131551e-03 1.117935e-03 2.776222e-03)
4638          	(3.608798e-01 2.153535e-01 9.604907e+02)	(3.577496e-01 2.142343e-01 9.604879e+02)	(3.130206e-03 1.119204e-03 2.778326e-03)
4639          	(3.608609e-01 2.153290e-01 9.604908e+02)	(3.577320e-01 2.142084e-01 9.604880e+02)	(3.128844e-03 1.120596e-03 2.780459e-03)
4640          	(3.608476e-01 2.153067e-01 9.604909e+02)	(3.577202e-01 2.141846e-01 9.604882e+02)	(3.127434e-03 1.122032e-03 2.782620e-03)
4641          	(3.608405e-01 2.152865e-01 9.604911e+02)	(3.577145e-01 2.141630e-01 9.604883e+02)	(3.126039e-03 1.123536e-03 2.784740e-03)
4642          	(3.608396e-01 2.152685e-01 9.604912e+02)	(3.577150e-01 2.141434e-01 9.604884e+02)	(3.124636e-03 1.125049e-03 2.786829e-03)
4643          	(3.608448e-01 2.152524e-01 9.604913e+02)	(3.577215e-01 2.141258e-01 9.604885e+02)	(3.123293e-03 1.126576e-03 2.788822e-03)
4644          	(3.608556e-01 2.152380e-01 9.604914e+02)	(3.577336e-01 2.141100e-01 9.604886e+02)	(3.121984e-03 1.128049e-03 2.790726e-03)
4645          	(3.608719e-01 2.152253e-01 9.604915e+02)	(3.577511e-01 2.140958e-01 9.604887e+02)	(3.120796e-03 1.129516e-03 2.792474e-03)
4646          	(3.608933e-01 2.152141e-01 9.604915e+02)	(3.577736e-01 2.140832e-01 9.604888e+02)	(3.119679e-03 1.130899e-03 2.794092e-03)
4647          	(3.609199e-01 2.152045e-01 9.604916e+02)	(3.578012e-01 2.140723e-01 9.604888e+02)	(3.118712e-03 1.132230e-03 2.795513e-03)
4648          	(3.609516e-01 2.151967e-01 9.604917e+02)	(3.578338e-01 2.140633e-01 9.604889e+02)	(3.117863e-03 1.133437e-03 2.796777e-03)
4649          	(3.609882e-01 2.151907e-01 9.604917e+02)	(3.578710e-01 2.140562e-01 9.604889e+02)	(3.117198e-03 1.134558e-03 2.797827e-03)
4650          	(3.610271e-01 2.151843e-01 9.604918e+02)	(3.579105e-01 2.140488e-01 9.604890e+02)	(3.116684e-03 1.135519e-03 2.798712e-03)
4651          	(3.610705e-01 2.151799e-01 9.604918e+02)	(3.579541e-01 2.140436e-01 9.604890e+02)	(3.116391e-03 1.136356e-03 2.799390e-03)
4652          	(3.611176e-01 2.151776e-01 9.604918e+02)	(3.580014e-01 2.140406e-01 9.604890e+02)	(3.116279e-03 1.136983e-03 2.799910e-03)
4653          	(3.610873e-01 2.151491e-01 9.604922e+02)	(3.579711e-01 2.140117e-01 9.604894e+02)	(3.116235e-03 1.137448e-03 2.800247e-03)
4654          	(3.611364e-01 2.151483e-01 9.604922e+02)	(3.580199e-01 2.140107e-01 9.604894e+02)	(3.116422e-03 1.137672e-03 2.800436e-03)
4655          	(3.611882e-01 2.151488e-01 9.604922e+02)	(3.580713e-01 2.140111e-01 9.604894e+02)	(3.116966e-03 1.137665e-03 2.800419e-03)
4656          	(3.612432e-01 2.151506e-01 9.604922e+02)	(3.581254e-01 2.140133e-01 9.604894e+02)	(3.117762e-03 1.137353e-03 2.800254e-03)
4657          	(3.613009e-01 2.151537e-01 9.604921e+02)	(3.581820e-01 2.140169e-01 9.604893e+02)	(3.118896e-03 1.136777e-03 2.799887e-03)
4658          	(3.613040e-01 2.151386e-01 9.604924e+02)	(3.581838e-01 2.140027e-01 9.604896e+02)	(3.120154e-03 1.135866e-03 2.799392e-03)
4659          	(3.613597e-01 2.151407e-01 9.604923e+02)	(3.582379e-01 2.140060e-01 9.604896e+02)	(3.121747e-03 1.134651e-03 2.798701e-03)
4660          	(3.614127e-01 2.151410e-01 9.604923e+02)	(3.582891e-01 2.140080e-01 9.604895e+02)	(3.123633e-03 1.133062e-03 2.797873e-03)
4661          	(3.614613e-01 2.151387e-01 9.604922e+02)	(3.583355e-01 2.140076e-01 9.604894e+02)	(3.125811e-03 1.131167e-03 2.796859e-03)
4662          	(3.615037e-01 2.151329e-01 9.604921e+02)	(3.583756e-01 2.140040e-01 9.604893e+02)	(3.128172e-03 1.128924e-03 2.795715e-03)
4663          	(3.615385e-01 2.151229e-01 9.604920e+02)	(3.584078e-01 2.139965e-01 9.604892e+02)	(3.130761e-03 1.126428e-03 2.794386e-03)
4664          	(3.615646e-01 2.151085e-01 9.604919e+02)	(3.584312e-01 2.139848e-01 9.604891e+02)	(3.133456e-03 1.123652e-03 2.792935e-03)
4665          	(3.615816e-01 2.150896e-01 9.604917e+02)	(3.584453e-01 2.139689e-01 9.604889e+02)	(3.136280e-03 1.120683e-03 2.791299e-03)
4666          	(3.615911e-01 2.150690e-01 9.604916e+02)	(3.584519e-01 2.139515e-01 9.604888e+02)	(3.139154e-03 1.117486e-03 2.789535e-03)
4667          	(3.615916e-01 2.150441e-01 9.604915e+02)	(3.584495e-01 2.139300e-01 9.604887e+02)	(3.142103e-03 1.114131e-03 2.787582e-03)
4668          	(3.615810e-01 2.150125e-01 9.604913e+02)	(3.584360e-01 2.139019e-01 9.604886e+02)	(3.145050e-03 1.110555e-03 2.785498e-03)
4669          	(3.614939e-01 2.149566e-01 9.604916e+02)	(3.583460e-01 2.138498e-01 9.604888e+02)	(3.147879e-03 1.106874e-03 2.783233e-03)
4670          	(3.614728e-01 2.149243e-01 9.604914e+02)	(3.583221e-01 2.138213e-01 9.604887e+02)	(3.150681e-03 1.103013e-03 2.780844e-03)
4671          	(3.614439e-01 2.148877e-01 9.604913e+02)	(3.582904e-01 2.137887e-01 9.604885e+02)	(3.153533e-03 1.099024e-03 2.778278e-03)
4672          	(3.614133e-01 2.148528e-01 9.604911e+02)	(3.582570e-01 2.137579e-01 9.604884e+02)	(3.156312e-03 1.094890e-03 2.775605e-03)
4673          	(3.613825e-01 2.148205e-01 9.604910e+02)	(3.582234e-01 2.137298e-01 9.604882e+02)	(3.159059e-03 1.090696e-03 2.772781e-03)
4674          	(3.613535e-01 2.147923e-01 9.604908e+02)	(3.581918e-01 2.137059e-01 9.604881e+02)	(3.161695e-03 1.086409e-03 2.769884e-03)
4675          	(3.613278e-01 2.147693e-01 9.604907e+02)	(3.581636e-01 2.136872e-01 9.604879e+02)	(3.164272e-03 1.082114e-03 2.766881e-03)
4676          	(3.613063e-01 2.147518e-01 9.604905e+02)	(3.581396e-01 2.136740e-01 9.604878e+02)	(3.166709e-03 1.077772e-03 2.763871e-03)
4677          	(3.611676e-01 2.147039e-01 9.604908e+02)	(3.579988e-01 2.136304e-01 9.604880e+02)	(3.168760e-03 1.073535e-03 2.760860e-03)
4678          	(3.611564e-01 2.146977e-01 9.604907e+02)	(3.579857e-01 2.136284e-01 9.604879e+02)	(3.170725e-03 1.069309e-03 2.757890e-03)
4679          	(3.611494e-01 2.146950e-01 9.604906e+02)	(3.579767e-01 2.136298e-01 9.604878e+02)	(3.172688e-03 1.065154e-03 2.754954e-03)
4680          	(3.611470e-01 2.146963e-01 9.604905e+02)	(3.579724e-01 2.136352e-01 9.604877e+02)	(3.174519e-03 1.061048e-03 2.752144e-03)
4681          	(3.611496e-01 2.147024e-01 9.604904e+02)	(3.579734e-01 2.136454e-01 9.604876e+02)	(3.176270e-03 1.057088e-03 2.749447e-03)
4682          	(3.611574e-01 2.147137e-01 9.604903e+02)	(3.579795e-01 2.136604e-01 9.604876e+02)	(3.177858e-03 1.053233e-03 2.746966e-03)
4683          	(3.611699e-01 2.147301e-01 9.604903e+02)	(3.579905e-01 2.136805e-01 9.604876e+02)	(3.179333e-03 1.049579e-03 2.744689e-03)
4684          	(3.611862e-01 2.147511e-01 9.604903e+02)	(3.580055e-01 2.137050e-01 9.604876e+02)	(3.180617e-03 1.046086e-03 2.742709e-03)
4685          	(3.612052e-01 2.147763e-01 9.604903e+02)	(3.580235e-01 2.137335e-01 9.604876e+02)	(3.181745e-03 1.042851e-03 2.741016e-03)
4686          	(3.612258e-01 2.148048e-01 9.604904e+02)	(3.580432e-01 2.137650e-01 9.604876e+02)	(3.182653e-03 1.039843e-03 2.739690e-03)
4687          	(3.612457e-01 2.148336e-01 9.604904e+02)	(3.580624e-01 2.137965e-01 9.604877e+02)	(3.183379e-03 1.037108e-03 2.738725e-03)
4688          	(3.612653e-01 2.148646e-01 9.604905e+02)	(3.580814e-01 2.138300e-01 9.604878e+02)	(3.183882e-03 1.034620e-03 2.738179e-03)
4689          	(3.612841e-01 2.148975e-01 9.604906e+02)	(3.580999e-01 2.138651e-01 9.604879e+02)	(3.184201e-03 1.032434e-03 2.738018e-03)
4690          	(3.613011e-01 2.149293e-01 9.604907e+02)	(3.581168e-01 2.138988e-01 9.604880e+02)	(3.184311e-03 1.030497e-03 2.738283e-03)
4691          	(3.613178e-01 2.149632e-01 9.604908e+02)	(3.581335e-01 2.139344e-01 9.604881e+02)	(3.184275e-03 1.028827e-03 2.738926e-03)
4692          	(3.613348e-01 2.149995e-01 9.604910e+02)	(3.581508e-01 2.139721e-01 9.604882e+02)	(3.184060e-03 1.027394e-03 2.739949e-03)
4693          	(3.612686e-01 2.150201e-01 9.604916e+02)	(3.580851e-01 2.139938e-01 9.604889e+02)	(3.183490e-03 1.026260e-03 2.741361e-03)
4694          	(3.612762e-01 2.150515e-01 9.604918e+02)	(3.580934e-01 2.140262e-01 9.604890e+02)	(3.182865e-03 1.025332e-03 2.743060e-03)
4695          	(3.612869e-01 2.150848e-01 9.604919e+02)	(3.581046e-01 2.140602e-01 9.604892e+02)	(3.182254e-03 1.024574e-03 2.744998e-03)
4696          	(3.613045e-01 2.151220e-01 9.604921e+02)	(3.581228e-01 2.140980e-01 9.604893e+02)	(3.181655e-03 1.024003e-03 2.747157e-03)
4697          	(3.613312e-01 2.151658e-01 9.604922e+02)	(3.581501e-01 2.141422e-01 9.604895e+02)	(3.181084e-03 1.023609e-03 2.749485e-03)
4698          	(3.613689e-01 2.152148e-01 9.604924e+02)	(3.581883e-01 2.141914e-01 9.604896e+02)	(3.180566e-03 1.023372e-03 2.751947e-03)
4699          	(3.614156e-01 2.152693e-01 9.604925e+02)	(3.582355e-01 2.142460e-01 9.604898e+02)	(3.180117e-03 1.023284e-03 2.754493e-03)
4700          	(3.614727e-01 2.153273e-01 9.604927e+02)	(3.582929e-01 2.143039e-01 9.604899e+02)	(3.179764e-03 1.023347e-03 2.757083e-03)
4701          	(3.615411e-01 2.153868e-01 9.604928e+02)	(3.583616e-01 2.143633e-01 9.604900e+02)	(3.179515e-03 1.023512e-03 2.759665e-03)
4702          	(3.616157e-01 2.154476e-01 9.604929e+02)	(3.584363e-01 2.144238e-01 9.604902e+02)	(3.179374e-03 1.023784e-03 2.762209e-03)
4703          	(3.616941e-01 2.155087e-01 9.604930e+02)	(3.585147e-01 2.144846e-01 9.604903e+02)	(3.179333e-03 1.024133e-03 2.764676e-03)
4704          	(3.617742e-01 2.155692e-01 9.604931e+02)	(3.585948e-01 2.145446e-01 9.604904e+02)	(3.179381e-03 1.024563e-03 2.767037e-03)
4705          	(3.618543e-01 2.156281e-01 9.604932e+02)	(3.586748e-01 2.146030e-01 9.604905e+02)	(3.179502e-03 1.025052e-03 2.769261e-03)
4706          	(3.619331e-01 2.156848e-01 9.604933e+02)	(3.587534e-01 2.146592e-01 9.604906e+02)	(3.179698e-03 1.025588e-03 2.771331e-03)
4707          	(3.620098e-01 2.157388e-01 9.604934e+02)	(3.588299e-01 2.147126e-01 9.604906e+02)	(3.179949e-03 1.026133e-03 2.773208e-03)
4708          	(3.620842e-01 2.157898e-01 9.604935e+02)	(3.589040e-01 2.147631e-01 9.604907e+02)	(3.180267e-03 1.026695e-03 2.774878e-03)
4709          	(3.621563e-01 2.158377e-01 9.604935e+02)	(3.589756e-01 2.148104e-01 9.604908e+02)	(3.180644e-03 1.027231e-03 2.776311e-03)
4710          	(3.622246e-01 2.158831e-01 9.604936e+02)	(3.590435e-01 2.148554e-01 9.604908e+02)	(3.181087e-03 1.027740e-03 2.777489e-03)
4711          	(3.622927e-01 2.159259e-01 9.604936e+02)	(3.591111e-01 2.148977e-01 9.604908e+02)	(3.181619e-03 1.028191e-03 2.778388e-03)
4712          	(3.623619e-01 2.159665e-01 9.604936e+02)	(3.591796e-01 2.149379e-01 9.604909e+02)	(3.182268e-03 1.028543e-03 2.778987e-03)
4713          	(3.624338e-01 2.160056e-01 9.604936e+02)	(3.592507e-01 2.149768e-01 9.604909e+02)	(3.183052e-03 1.028770e-03 2.779259e-03)
4714          	(3.625095e-01 2.160439e-01 9.604936e+02)	(3.593255e-01 2.150150e-01 9.604908e+02)	(3.184005e-03 1.028838e-03 2.779193e-03)
4715          	(3.625899e-01 2.160817e-01 9.604936e+02)	(3.594048e-01 2.150530e-01 9.604908e+02)	(3.185146e-03 1.028701e-03 2.778774e-03)
4716          	(3.626753e-01 2.161193e-01 9.604935e+02)	(3.594888e-01 2.150910e-01 9.604908e+02)	(3.186507e-03 1.028327e-03 2.777995e-03)
4717          	(3.627652e-01 2.161564e-01 9.604935e+02)	(3.595771e-01 2.151288e-01 9.604907e+02)	(3.188093e-03 1.027675e-03 2.776848e-03)
4718          	(3.628585e-01 2.161925e-01 9.604934e+02)	(3.596685e-01 2.151657e-01 9.604906e+02)	(3.189924e-03 1.026724e-03 2.775346e-03)
4719          	(3.629532e-01 2.162264e-01 9.604933e+02)	(3.597612e-01 2.152010e-01 9.604906e+02)	(3.191995e-03 1.025447e-03 2.773494e-03)
4720          	(3.630471e-01 2.162572e-01 9.604932e+02)	(3.598528e-01 2.152333e-01 9.604905e+02)	(3.194301e-03 1.023853e-03 2.771315e-03)
4721          	(3.631372e-01 2.162833e-01 9.604931e+02)	(3.599404e-01 2.152614e-01 9.604904e+02)	(3.196823e-03 1.021939e-03 2.768834e-03)
4722          	(3.632180e-01 2.163032e-01 9.604930e+02)	(3.600184e-01 2.152835e-01 9.604902e+02)	(3.199519e-03 1.019730e-03 2.766074e-03)
4723          	(3.632903e-01 2.163162e-01 9.604929e+02)	(3.600879e-01 2.152989e-01 9.604901e+02)	(3.202369e-03 1.017282e-03 2.763064e-03)
4724          	(3.633528e-01 2.163222e-01 9.604927e+02)	(3.601475e-01 2.153076e-01 9.604900e+02)	(3.205339e-03 1.014627e-03 2.759832e-03)
4725          	(3.634040e-01 2.163204e-01 9.604926e+02)	(3.601956e-01 2.153086e-01 9.604899e+02)	(3.208410e-03 1.011766e-03 2.756398e-03)
4726          	(3.634429e-01 2.163106e-01 9.604925e+02)	(3.602313e-01 2.153019e-01 9.604897e+02)	(3.211567e-03 1.008718e-03 2.752793e-03)
4727          	(3.634690e-01 2.162928e-01 9.604923e+02)	(3.602542e-01 2.152873e-01 9.604896e+02)	(3.214797e-03 1.005471e-03 2.749027e-03)
4728          	(3.634836e-01 2.162686e-01 9.604922e+02)	(3.602655e-01 2.152665e-01 9.604895e+02)	(3.218082e-03 1.002045e-03 2.745115e-03)
4729          	(3.634878e-01 2.162392e-01 9.604921e+02)	(3.602664e-01 2.152407e-01 9.604893e+02)	(3.221401e-03 9.984359e-04 2.741080e-03)
4730          	(3.634829e-01 2.162057e-01 9.604919e+02)	(3.602582e-01 2.152110e-01 9.604892e+02)	(3.224729e-03 9.946503e-04 2.736963e-03)
4731          	(3.634704e-01 2.161691e-01 9.604918e+02)	(3.602424e-01 2.151784e-01 9.604891e+02)	(3.228025e-03 9.906929e-04 2.732804e-03)
4732          	(3.634510e-01 2.161303e-01 9.604917e+02)	(3.602197e-01 2.151437e-01 9.604889e+02)	(3.231274e-03 9.865923e-04 2.728671e-03)
4733          	(3.634251e-01 2.160895e-01 9.604915e+02)	(3.601906e-01 2.151071e-01 9.604888e+02)	(3.234441e-03 9.823338e-04 2.724628e-03)
4734          	(3.633926e-01 2.160468e-01 9.604914e+02)	(3.601551e-01 2.150689e-01 9.604887e+02)	(3.237515e-03 9.779293e-04 2.720749e-03)
4735          	(3.633530e-01 2.160020e-01 9.604913e+02)	(3.601125e-01 2.150287e-01 9.604886e+02)	(3.240489e-03 9.733850e-04 2.717101e-03)
4736          	(3.633053e-01 2.159547e-01 9.604913e+02)	(3.600619e-01 2.149860e-01 9.604885e+02)	(3.243362e-03 9.687309e-04 2.713741e-03)
4737          	(3.632492e-01 2.159046e-01 9.604912e+02)	(3.600031e-01 2.149406e-01 9.604885e+02)	(3.246128e-03 9.639885e-04 2.710704e-03)
4738          	(3.631849e-01 2.158517e-01 9.604911e+02)	(3.599361e-01 2.148925e-01 9.604884e+02)	(3.248786e-03 9.592080e-04 2.708027e-03)
4739          	(3.631123e-01 2.157963e-01 9.604911e+02)	(3.598610e-01 2.148419e-01 9.604884e+02)	(3.251327e-03 9.544036e-04 2.705736e-03)
4740          	(3.630322e-01 2.157388e-01 9.604911e+02)	(3.597785e-01 2.147891e-01 9.604884e+02)	(3.253729e-03 9.496263e-04 2.703845e-03)
4741          	(3.629455e-01 2.156797e-01 9.604911e+02)	(3.596895e-01 2.147348e-01 9.604884e+02)	(3.255961e-03 9.448797e-04 2.702370e-03)
4742          	(3.628535e-01 2.156201e-01 9.604911e+02)	(3.595955e-01 2.146800e-01 9.604884e+02)	(3.257981e-03 9.401603e-04 2.701312e-03)
4743          	(3.627577e-01 2.155610e-01 9.604912e+02)	(3.594980e-01 2.146255e-01 9.604885e+02)	(3.259761e-03 9.354742e-04 2.700668e-03)
4744          	(3.626600e-01 2.155034e-01 9.604912e+02)	(3.593987e-01 2.145725e-01 9.604885e+02)	(3.261290e-03 9.308624e-04 2.700432e-03)
4745          	(3.625620e-01 2.154484e-01 9.604913e+02)	(3.592995e-01 2.145220e-01 9.604886e+02)	(3.262536e-03 9.263340e-04 2.700608e-03)
4746          	(3.624651e-01 2.153968e-01 9.604914e+02)	(3.592017e-01 2.144748e-01 9.604887e+02)	(3.263484e-03 9.219325e-04 2.701176e-03)
4747          	(3.623700e-01 2.153490e-01 9.604915e+02)	(3.591059e-01 2.144313e-01 9.604888e+02)	(3.264136e-03 9.177016e-04 2.702128e-03)
4748          	(3.622776e-01 2.153054e-01 9.604916e+02)	(3.590131e-01 2.143917e-01 9.604889e+02)	(3.264503e-03 9.136964e-04 2.703453e-03)
4749          	(3.621883e-01 2.152667e-01 9.604917e+02)	(3.589237e-01 2.143568e-01 9.604890e+02)	(3.264595e-03 9.099676e-04 2.705132e-03)
4750          	(3.621045e-01 2.152336e-01 9.604918e+02)	(3.588401e-01 2.143271e-01 9.604891e+02)	(3.264435e-03 9.065512e-04 2.707135e-03)
4751          	(3.620289e-01 2.152067e-01 9.604920e+02)	(3.587649e-01 2.143032e-01 9.604893e+02)	(3.264048e-03 9.034776e-04 2.709433e-03)
4752          	(3.619635e-01 2.151875e-01 9.604921e+02)	(3.587000e-01 2.142867e-01 9.604894e+02)	(3.263460e-03 9.007665e-04 2.711986e-03)
4753          	(3.619109e-01 2.151773e-01 9.604923e+02)	(3.586482e-01 2.142788e-01 9.604895e+02)	(3.262719e-03 8.984323e-04 2.714756e-03)
4754          	(3.618736e-01 2.151771e-01 9.604924e+02)	(3.586118e-01 2.142806e-01 9.604897e+02)	(3.261843e-03 8.964731e-04 2.717704e-03)
4755          	(3.618536e-01 2.151878e-01 9.604925e+02)	(3.585927e-01 2.142929e-01 9.604898e+02)	(3.260886e-03 8.948756e-04 2.720790e-03)
4756          	(3.618520e-01 2.152097e-01 9.604927e+02)	(3.585921e-01 2.143161e-01 9.604899e+02)	(3.259897e-03 8.936243e-04 2.723977e-03)
4757          	(3.618692e-01 2.152429e-01 9.604928e+02)	(3.586103e-01 2.143502e-01 9.604901e+02)	(3.258922e-03 8.926882e-04 2.727235e-03)
4758          	(3.619048e-01 2.152867e-01 9.604929e+02)	(3.586468e-01 2.143947e-01 9.604902e+02)	(3.258001e-03 8.920457e-04 2.730529e-03)
4759          	(3.619571e-01 2.153401e-01 9.604930e+02)	(3.586999e-01 2.144484e-01 9.604903e+02)	(3.257183e-03 8.916817e-04 2.733821e-03)
4760          	(3.620242e-01 2.154018e-01 9.604932e+02)	(3.587677e-01 2.145102e-01 9.604904e+02)	(3.256498e-03 8.915540e-04 2.737093e-03)
4761          	(3.621084e-01 2.154735e-01 9.604933e+02)	(3.588524e-01 2.145818e-01 9.604905e+02)	(3.255976e-03 8.916558e-04 2.740321e-03)
4762          	(3.622295e-01 2.155651e-01 9.604934e+02)	(3.589738e-01 2.146732e-01 9.604906e+02)	(3.255677e-03 8.919802e-04 2.743467e-03)
4763          	(3.623584e-01 2.156599e-01 9.604935e+02)	(3.591029e-01 2.147674e-01 9.604907e+02)	(3.255584e-03 8.924828e-04 2.746532e-03)
4764          	(3.624976e-01 2.157575e-01 9.604935e+02)	(3.592419e-01 2.148644e-01 9.604908e+02)	(3.255685e-03 8.931360e-04 2.749489e-03)
4765          	(3.626408e-01 2.158543e-01 9.604936e+02)	(3.593849e-01 2.149604e-01 9.604909e+02)	(3.255966e-03 8.939032e-04 2.752323e-03)
4766          	(3.628064e-01 2.159501e-01 9.604937e+02)	(3.595500e-01 2.150554e-01 9.604909e+02)	(3.256450e-03 8.947324e-04 2.755002e-03)
4767          	(3.628995e-01 2.160258e-01 9.604938e+02)	(3.596426e-01 2.151301e-01 9.604910e+02)	(3.256896e-03 8.956727e-04 2.757523e-03)
4768          	(3.629914e-01 2.161015e-01 9.604938e+02)	(3.597341e-01 2.152048e-01 9.604911e+02)	(3.257294e-03 8.967488e-04 2.759855e-03)
4769          	(3.630821e-01 2.161771e-01 9.604939e+02)	(3.598245e-01 2.152791e-01 9.604912e+02)	(3.257648e-03 8.979474e-04 2.761969e-03)
4770          	(3.631724e-01 2.162527e-01 9.604940e+02)	(3.599144e-01 2.153535e-01 9.604912e+02)	(3.257952e-03 8.992682e-04 2.763844e-03)
4771          	(3.632635e-01 2.163291e-01 9.604940e+02)	(3.600053e-01 2.154284e-01 9.604912e+02)	(3.258221e-03 9.006896e-04 2.765464e-03)
4772          	(3.634743e-01 2.164448e-01 9.604937e+02)	(3.602155e-01 2.155426e-01 9.604909e+02)	(3.258740e-03 9.021739e-04 2.766774e-03)
4773          	(3.635777e-01 2.165291e-01 9.604937e+02)	(3.603185e-01 2.156255e-01 9.604909e+02)	(3.259205e-03 9.036965e-04 2.767849e-03)
4774          	(3.636861e-01 2.166172e-01 9.604937e+02)	(3.604265e-01 2.157119e-01 9.604909e+02)	(3.259638e-03 9.052692e-04 2.768678e-03)
4775          	(3.637984e-01 2.167083e-01 9.604937e+02)	(3.605383e-01 2.158014e-01 9.604909e+02)	(3.260102e-03 9.068341e-04 2.769264e-03)
4776          	(3.639147e-01 2.168074e-01 9.604937e+02)	(3.606540e-01 2.158990e-01 9.604909e+02)	(3.260630e-03 9.083939e-04 2.769596e-03)
4777          	(3.640337e-01 2.169104e-01 9.604936e+02)	(3.607724e-01 2.160005e-01 9.604909e+02)	(3.261258e-03 9.099059e-04 2.769670e-03)
4778          	(3.642273e-01 2.170367e-01 9.604932e+02)	(3.609651e-01 2.161254e-01 9.604904e+02)	(3.262179e-03 9.113128e-04 2.769447e-03)
4779          	(3.643393e-01 2.171265e-01 9.604932e+02)	(3.610761e-01 2.162139e-01 9.604904e+02)	(3.263217e-03 9.125167e-04 2.768994e-03)
4780          	(3.644511e-01 2.172212e-01 9.604931e+02)	(3.611867e-01 2.163077e-01 9.604904e+02)	(3.264350e-03 9.135495e-04 2.768285e-03)
4781          	(3.645519e-01 2.173048e-01 9.604931e+02)	(3.612863e-01 2.163905e-01 9.604903e+02)	(3.265606e-03 9.143416e-04 2.767334e-03)
4782          	(3.646449e-01 2.173843e-01 9.604930e+02)	(3.613779e-01 2.164694e-01 9.604902e+02)	(3.266972e-03 9.148923e-04 2.766130e-03)
4783          	(3.647321e-01 2.174660e-01 9.604929e+02)	(3.614637e-01 2.165507e-01 9.604901e+02)	(3.268434e-03 9.152270e-04 2.764674e-03)
4784          	(3.648085e-01 2.175407e-01 9.604928e+02)	(3.615385e-01 2.166253e-01 9.604900e+02)	(3.269970e-03 9.153365e-04 2.762976e-03)
4785          	(3.648744e-01 2.176080e-01 9.604926e+02)	(3.616028e-01 2.166928e-01 9.604899e+02)	(3.271589e-03 9.151742e-04 2.761033e-03)
4786          	(3.649315e-01 2.176687e-01 9.604925e+02)	(3.616582e-01 2.167540e-01 9.604897e+02)	(3.273290e-03 9.147476e-04 2.758848e-03)
4787          	(3.650853e-01 2.177521e-01 9.604919e+02)	(3.618100e-01 2.168381e-01 9.604892e+02)	(3.275336e-03 9.139808e-04 2.756343e-03)
4788          	(3.651374e-01 2.178028e-01 9.604918e+02)	(3.618600e-01 2.168899e-01 9.604890e+02)	(3.277405e-03 9.129213e-04 2.753647e-03)
4789          	(3.651892e-01 2.178536e-01 9.604916e+02)	(3.619097e-01 2.169420e-01 9.604889e+02)	(3.279457e-03 9.116113e-04 2.750749e-03)
4790          	(3.652417e-01 2.179102e-01 9.604915e+02)	(3.619602e-01 2.170000e-01 9.604887e+02)	(3.281507e-03 9.101089e-04 2.747659e-03)
4791          	(3.652947e-01 2.179665e-01 9.604913e+02)	(3.620112e-01 2.170580e-01 9.604886e+02)	(3.283546e-03 9.084196e-04 2.744393e-03)
4792          	(3.653492e-01 2.180230e-01 9.604911e+02)	(3.620636e-01 2.171164e-01 9.604884e+02)	(3.285589e-03 9.065703e-04 2.740986e-03)
4793          	(3.654062e-01 2.180803e-01 9.604910e+02)	(3.621186e-01 2.171758e-01 9.604882e+02)	(3.287635e-03 9.045527e-04 2.737478e-03)
4794          	(3.654664e-01 2.181392e-01 9.604908e+02)	(3.621768e-01 2.172368e-01 9.604881e+02)	(3.289678e-03 9.023932e-04 2.733907e-03)
4795          	(3.655309e-01 2.182002e-01 9.604906e+02)	(3.622392e-01 2.173000e-01 9.604879e+02)	(3.291714e-03 9.001273e-04 2.730310e-03)
4796          	(3.655987e-01 2.182635e-01 9.604905e+02)	(3.623049e-01 2.173657e-01 9.604877e+02)	(3.293720e-03 8.977811e-04 2.726727e-03)
4797          	(3.656688e-01 2.183291e-01 9.604903e+02)	(3.623731e-01 2.174337e-01 9.604876e+02)	(3.295665e-03 8.953853e-04 2.723185e-03)
4798          	(3.657399e-01 2.183963e-01 9.604902e+02)	(3.624424e-01 2.175033e-01 9.604875e+02)	(3.297529e-03 8.929947e-04 2.719723e-03)
4799          	(3.658107e-01 2.184648e-01 9.604901e+02)	(3.625115e-01 2.175742e-01 9.604874e+02)	(3.299262e-03 8.906212e-04 2.716366e-03)
4800          	(3.658803e-01 2.185343e-01 9.604900e+02)	(3.625795e-01 2.176460e-01 9.604872e+02)	(3.300834e-03 8.883240e-04 2.713122e-03)
4801          	(3.659477e-01 2.186044e-01 9.604899e+02)	(3.626455e-01 2.177183e-01 9.604872e+02)	(3.302213e-03 8.861233e-04 2.710017e-03)
4802          	(3.660120e-01 2.186747e-01 9.604898e+02)	(3.627086e-01 2.177906e-01 9.604871e+02)	(3.303373e-03 8.840531e-04 2.707069e-03)
4803          	(3.660720e-01 2.187445e-01 9.604897e+02)	(3.627678e-01 2.178623e-01 9.604870e+02)	(3.304271e-03 8.821416e-04 2.704297e-03)
4804          	(3.661268e-01 2.188131e-01 9.604896e+02)	(3.628219e-01 2.179327e-01 9.604869e+02)	(3.304917e-03 8.804109e-04 2.701743e-03)
4805          	(3.661751e-01 2.188799e-01 9.604896e+02)	(3.628698e-01 2.180010e-01 9.604869e+02)	(3.305296e-03 8.788633e-04 2.699452e-03)
4806          	(3.662159e-01 2.189441e-01 9.604896e+02)	(3.629105e-01 2.180666e-01 9.604869e+02)	(3.305398e-03 8.775275e-04 2.697467e-03)
4807          	(3.662484e-01 2.190054e-01 9.604896e+02)	(3.629431e-01 2.181289e-01 9.604869e+02)	(3.305230e-03 8.764169e-04 2.695842e-03)
4808          	(3.662722e-01 2.190635e-01 9.604896e+02)	(3.629674e-01 2.181879e-01 9.604869e+02)	(3.304797e-03 8.755640e-04 2.694627e-03)
4809          	(3.662877e-01 2.191186e-01 9.604896e+02)	(3.629836e-01 2.182436e-01 9.604869e+02)	(3.304104e-03 8.749947e-04 2.693852e-03)
4810          	(3.663879e-01 2.192071e-01 9.604893e+02)	(3.630845e-01 2.183323e-01 9.604866e+02)	(3.303351e-03 8.747551e-04 2.693537e-03)
4811          	(3.663927e-01 2.192570e-01 9.604893e+02)	(3.630903e-01 2.183822e-01 9.604866e+02)	(3.302328e-03 8.748375e-04 2.693701e-03)
4812          	(3.663939e-01 2.193066e-01 9.604895e+02)	(3.630929e-01 2.184314e-01 9.604868e+02)	(3.301002e-03 8.752876e-04 2.694333e-03)
4813          	(3.663933e-01 2.193572e-01 9.604896e+02)	(3.630939e-01 2.184811e-01 9.604869e+02)	(3.299433e-03 8.761200e-04 2.695431e-03)
4814          	(3.663928e-01 2.194096e-01 9.604897e+02)	(3.630952e-01 2.185322e-01 9.604870e+02)	(3.297643e-03 8.773464e-04 2.696966e-03)
4815          	(3.663942e-01 2.194641e-01 9.604899e+02)	(3.630985e-01 2.185852e-01 9.604872e+02)	(3.295666e-03 8.789507e-04 2.698884e-03)
4816          	(3.663993e-01 2.195215e-01 9.604900e+02)	(3.631057e-01 2.186406e-01 9.604873e+02)	(3.293554e-03 8.809200e-04 2.701124e-03)