# U  POINT_DATA 53423
# x  y  z  U_x  U_y  U_z
0.00282707 0 8.07678e-05 6.86532e-12 -2.0274e-12 7.15417e-12
-0.0028271 1.65436e-24 8.07698e-05 -4.72048e-13 -1.84635e-12 3.40223e-13
0.00409137 0 0.000182352 3.31352e-07 -1.0136e-06 3.58407e-07
-0.0040914 0 0.000182424 -2.71219e-08 -5.73616e-08 1.95187e-08
0.00422079 0 0.000298505 -3.75667e-11 -5.18495e-12 -1.09932e-11
-0.00422082 0 0.000298657 1.89398e-12 -5.08917e-12 -6.16953e-13
0.00435745 1.65436e-24 9.59438e-05 -4.40246e-11 -5.33782e-12 2.46384e-11
-0.00435747 0 9.59442e-05 1.92556e-12 -4.71275e-12 1.2187e-12
0.00511668 -2.71051e-20 0.000419618 -5.10053e-06 -5.1043e-06 -1.82076e-06
-0.00511669 0 0.000419884 2.78825e-07 -2.97097e-07 -1.00916e-07
0.00511671 0 0.000520209 0 0 0
0.00515512 5.16574e-21 0.00027328 -7.21852e-06 -5.74709e-06 -5.02081e-07
-0.00515514 -9.54566e-22 0.000273435 4.14875e-07 -3.43189e-07 -1.77244e-08
0.00541289 2.71051e-20 0.000164213 -5.03102e-06 -4.47336e-06 2.23042e-06
-0.0054129 -2.71051e-20 0.000164283 2.71133e-07 -2.56005e-07 1.35488e-07
0.00546995 -8.27181e-25 5.50557e-05 0 0 0
-0.00557242 3.30872e-24 0.000633435 2.23957e-11 -2.69549e-11 -6.00731e-12
0.00557248 -8.27181e-25 0.000632992 -1.11814e-10 -1.31984e-10 -3.27629e-11
0.00570285 -2.06795e-25 0.000546956 -1.19245e-05 -7.16788e-06 -2.47194e-06
0.00576442 1.01383e-20 0.00050633 -1.75552e-05 -1.05525e-05 -3.63918e-06
-0.00576443 8.77142e-21 0.000506634 1.0579e-06 -6.45738e-07 -1.81306e-07
-0.00587999 -3.30872e-24 3.99928e-05 2.61502e-11 -2.95518e-11 4.45288e-12
0.00588 0 3.99879e-05 -5.53549e-11 -6.25557e-11 1.23607e-11
0.0059433 -2.71051e-20 0.000405598 -2.27519e-05 -1.35928e-05 -3.49592e-06
-0.00594329 2.71051e-20 0.000405802 1.38605e-06 -8.55906e-07 -1.54242e-07
0.00608061 2.06795e-25 0.000175925 -1.32756e-05 -6.71043e-06 -1.43895e-06
0.00610263 -4.1359e-25 0.000775376 0 0 0
0.00623594 7.56126e-21 0.000281173 -2.35539e-05 -1.19057e-05 -2.55302e-06
-0.00623602 8.27181e-25 0.000281312 1.63954e-06 -8.50645e-07 -1.02905e-07
-0.00624177 2.71051e-20 0.000698758 1.17705e-06 -5.97123e-07 -2.9169e-07
0.00624183 2.71051e-20 0.00069846 -1.95389e-05 -1.0185e-05 -5.38124e-06
0.00654699 0 2.86068e-05 0 0 0
0.00656876 -1.29586e-20 0.000600299 -3.74625e-05 -1.70086e-05 -7.2726e-06
-0.00656881 0 0.000600531 2.43443e-06 -1.07856e-06 -3.97475e-07
-0.00678385 -2.71051e-20 0.00017986 1.30107e-06 -6.53559e-07 1.32912e-07
0.00678386 2.71051e-20 0.000179814 -1.32489e-05 -5.5026e-06 1.37167e-06
-0.00684208 0 0.000974243 1.90088e-11 -1.46482e-11 -3.57098e-12
0.00684215 -8.27181e-25 0.000973987 -5.13568e-10 -2.13013e-11 -1.03018e-10
0.00703417 2.71051e-20 0.000527605 -5.81485e-05 -2.49345e-05 -1.09502e-05
-0.00703419 0 0.000527733 3.99331e-06 -1.71241e-06 -5.6886e-07
0.00733211 0 1.52148e-05 -9.72677e-11 -3.83481e-12 1.52615e-11
-0.0073321 -4.1359e-25 1.52132e-05 1.87374e-11 -1.23364e-11 7.14602e-13
0.00729808 0 0.000933009 -5.67375e-05 -2.16803e-05 -9.66839e-06
-0.00729807 -2.71051e-20 0.000933178 3.6416e-06 -1.27258e-06 -6.21556e-07
0.00748437 -2.6148e-20 0.000400569 -5.48984e-05 -1.94757e-05 -6.24542e-06
-0.00748443 0 0.000400635 5.09709e-06 -1.66294e-06 -4.68888e-07
0.0077157 1.27758e-21 0.000828322 -0.00010093 -3.35611e-05 -1.80484e-05
-0.00771576 4.1359e-25 0.000828431 7.04177e-06 -2.06464e-06 -1.3138e-06
-0.00793247 -2.06795e-25 1.00667e-05 0 0 0
0.00795014 0 0.00131365 -9.21741e-10 -2.78805e-11 -2.19924e-10
-0.00795012 0 0.00131375 2.59465e-11 -1.39317e-11 -6.4045e-12
0.00808032 -5.42101e-20 0.000233131 -1.00573e-05 -2.58916e-06 2.49424e-06
-0.00808033 2.71051e-20 0.00023315 4.69744e-06 -1.33871e-06 9.71614e-08
0.00830736 -2.71051e-20 0.000723076 -0.000159029 -4.96219e-05 -1.91678e-05
-0.00830738 -2.71051e-20 0.000723126 1.1935e-05 -3.20435e-06 -1.77439e-06
0.00843631 0 0.00121496 -0.000144924 -4.17021e-05 -3.80839e-05
-0.00843632 0 0.00121502 9.61539e-06 -2.27652e-06 -2.66473e-06
-0.00861863 0 4.18863e-06 4.56635e-11 4.24359e-14 -5.26263e-13
0.00861864 4.1359e-25 4.18803e-06 -4.31438e-11 -1.05534e-12 1.03469e-11
-0.00874599 0 0.000438369 9.88967e-06 -2.31459e-06 -1.54262e-06
0.0087679 -1.12021e-21 0.000513069 -0.000112787 -3.30218e-05 -1.25699e-05
-0.00876791 0 0.000513088 1.15916e-05 -2.71291e-06 -1.80809e-06
0.00886256 4.1359e-25 0.00163014 -1.28084e-09 -2.98436e-11 -3.85948e-10
-0.00886257 -2.06795e-25 0.00163017 3.20883e-11 -1.34618e-11 -9.91128e-12
0.00910349 1.3024e-21 0.00112565 -0.000239349 -6.46848e-05 -6.149e-05
-0.00910351 0 0.00112567 1.71651e-05 -3.61468e-06 -5.12057e-06
-0.00922213 5.42101e-20 0.000252696 8.21608e-06 -1.67096e-06 -1.97619e-07
0.00922213 0 0.000252691 -9.49702e-06 -2.13992e-06 2.20492e-06
0.00929253 0 0.00155196 -0.000211119 -5.09815e-05 -6.89525e-05
-0.00929254 0 0.00155198 1.39269e-05 -2.5943e-06 -4.62761e-06
0.00941924 1.03398e-25 0.000502188 -0.000131146 -3.90425e-05 -2.13303e-05
0.00943541 0 0.000791786 -0.000285515 -8.07138e-05 -3.76608e-05
-0.00943542 2.71051e-20 0.0007918 2.22431e-05 -4.75282e-06 -5.79781e-06
-0.00951936 0 0.000500525 1.42968e-05 -3.1248e-06 -3.17163e-06
-0.00969271 0 7.36219e-07 5.38962e-11 1.31432e-13 -3.28231e-12
0.00969272 5.16988e-26 7.3357e-07 -4.75553e-12 -1.51584e-13 6.3803e-13
0.00974044 -5.16988e-26 0.000186044 -5.3353e-05 -1.60112e-05 -1.00088e-05
0.0096 0 0.0019195 -2.09877e-09 -3.99969e-11 -8.63821e-10
-0.0096 -4.1359e-25 0.00191951 9.364e-11 -3.50677e-11 -3.77848e-11
0.00977233 -1.03398e-25 0.00106407 -0.000342083 -8.96937e-05 -0.000104682
-0.00982013 -2.58494e-26 0.000495497 1.53796e-05 -3.28966e-06 -3.71739e-06
0.00982014 -1.03398e-25 0.000495493 -0.000142447 -4.27483e-05 -2.67223e-05
0.00970971 1.59163e-20 0.00157739 -0.000288151 -7.06978e-05 -0.000115054
-0.00970972 2.03218e-20 0.0015774 1.9416e-05 -3.65936e-06 -7.6235e-06
0.00978788 -2.71051e-20 0.00130905 -0.000379352 -9.79427e-05 -0.000142947
-0.00978789 2.71051e-20 0.00130906 2.6835e-05 -5.19493e-06 -1.01762e-05
-0.00986732 -5.16988e-26 0.000587516 1.78913e-05 -3.70513e-06 -4.82289e-06
0.00995481 5.16988e-26 5.37094e-07 0 0 0
0.00990567 2.06795e-25 0.00159031 -0.000339502 -7.93027e-05 -0.000138524
-0.0101279 0 0.000215956 6.12845e-06 -1.56219e-06 -6.46409e-07
0.0101279 -2.71051e-20 0.000215955 -1.21974e-06 -1.50815e-06 -1.12299e-06
0.00996866 -2.71051e-20 0.00183441 -0.000254561 -5.76297e-05 -0.000125532
-0.00996866 0 0.00183442 1.59679e-05 -2.88032e-06 -7.45637e-06
0.00992901 0 0.00206121 0 0 0
0.0100964 0 0.00103424 -0.00039186 -0.000101811 -0.00012561
-0.0100964 -2.06795e-25 0.00103425 3.00852e-05 -5.72218e-06 -1.01899e-05
-0.010348 0 0.000701654 2.56642e-05 -5.26032e-06 -8.38382e-06
0.0103481 0 0.000701651 -0.000277832 -8.81663e-05 -7.24253e-05
0.0102725 -2.06795e-25 0.00161449 -0.000435629 -9.54107e-05 -0.000182458
-0.0102725 0 0.0016145 2.93123e-05 -5.04145e-06 -1.14225e-05
-0.0102092 0 0.00218189 5.06276e-10 -1.71825e-10 -2.19061e-10
0.0102092 8.27181e-25 0.00218189 -2.92791e-09 -1.12134e-09 -1.35303e-09
-0.0104767 -3.10193e-20 0.000408726 1.33868e-05 -2.65918e-06 -3.39156e-06
0.0104767 1.98099e-20 0.000408726 -0.000108181 -3.30347e-05 -2.29981e-05
-0.0105795 -4.1359e-25 7.14037e-08 3.71775e-11 8.93197e-14 -3.04404e-12
0.0105795 1.03398e-25 7.00678e-08 -1.78109e-11 -4.86984e-12 1.01587e-11
-0.0105425 -1.03398e-25 0.000915623 2.94275e-05 -5.18507e-06 -8.82842e-06
0.0106249 -4.1359e-25 6.54281e-08 0 0 0
-0.0106391 2.71051e-20 0.00128547 4.69132e-05 -7.85619e-06 -1.63937e-05
0.0106391 2.71051e-20 0.00128547 -0.00064896 -0.000143 -0.000248936
-0.0105089 1.65436e-24 0.00231987 0 0 0
0.0105904 2.71051e-20 0.00198073 -0.000488392 -9.07573e-05 -0.000218922
-0.0105904 0 0.00198074 2.98666e-05 -4.67607e-06 -1.22954e-05
-0.0108855 0 0.000305328 6.50087e-06 -7.43558e-07 -3.77857e-07
0.0108855 -2.71051e-20 0.000305326 -1.99323e-05 -1.00634e-06 1.23378e-05
0.0107329 0 0.00242304 -8.61202e-09 -2.92868e-09 -3.89412e-09
-0.010733 0 0.00242304 5.21863e-10 3.95792e-12 -2.20061e-10
-0.0109936 -3.32355e-20 0.000795647 2.87623e-05 -4.64186e-06 -7.45149e-06
0.0109936 -2.06795e-25 0.000795651 -0.000344361 -7.78054e-05 -9.31502e-05
0.0110193 -2.06795e-25 0.00073609 -0.000318583 -7.19809e-05 -8.61773e-05
-0.0109914 1.80946e-25 0.00174139 4.31281e-05 -6.81284e-06 -1.52189e-05
0.0110668 0 0.00175472 -0.000679368 -0.000128774 -0.00026628
-0.0110668 -1.963e-21 0.00175471 4.45781e-05 -6.99876e-06 -1.56174e-05
0.0110752 2.71051e-20 0.00225726 -0.000544857 -9.08401e-05 -0.000247872
-0.0110752 0 0.00225726 3.15176e-05 -4.70849e-06 -1.35371e-05
-0.0113362 0 2.8616e-08 2.43903e-10 6.04935e-14 -7.8776e-12
0.0113363 -1.65436e-24 2.25521e-08 -3.98945e-10 -1.03172e-11 2.91669e-10
0.0111507 0 0.00262527 0 0 0
0.0114279 -2.71051e-20 0.00124021 -0.000792111 -0.000162548 -0.000173271
-0.0114279 -2.71051e-20 0.00124021 6.0778e-05 -9.21855e-06 -1.27211e-05
0.0112027 0 0.00265045 -1.07641e-09 -1.12408e-11 -5.10349e-10
-0.0112027 5.16988e-26 0.00265046 2.68453e-11 2.2541e-13 -1.23639e-11
0.0112833 0 0.0024684 -0.000307371 -5.1614e-05 -0.000143003
-0.0115521 5.42101e-20 0.000423669 5.98786e-06 -5.22413e-07 -1.82191e-08
0.0115521 2.71051e-20 0.000423684 -1.07751e-05 -2.24673e-06 8.29858e-06
0.0113753 -1.47745e-20 0.00226059 -0.000658229 -0.000110531 -0.000306239
-0.0113753 1.03398e-25 0.00226059 3.84283e-05 -5.89747e-06 -1.66633e-05
-0.0113121 -5.16988e-26 0.00270701 0 0 0
0.0115233 -2.71051e-20 0.00195354 -0.00092699 -0.000162815 -0.000422289
-0.0115234 -5.42101e-20 0.00195352 5.6155e-05 -8.93015e-06 -2.26508e-05
0.0115118 2.71051e-20 0.0025342 -0.000518529 -8.09677e-05 -0.000255415
-0.0115118 0 0.0025342 2.86431e-05 -4.23018e-06 -1.41574e-05
-0.0118739 -1.19604e-20 0.00082706 3.5177e-05 -5.1728e-06 -5.17767e-06
0.0118739 0 0.000827071 -0.000393291 -8.44957e-05 -7.53619e-05
-0.0117001 5.16988e-26 0.00229988 4.71355e-05 -7.22735e-06 -2.16898e-05
0.0119311 -1.24077e-24 3.84846e-10 0 0 0
0.0118324 0 0.00161956 -0.000942237 -0.000175355 -0.000305649
-0.0118325 7.47063e-21 0.00161954 6.48118e-05 -1.01506e-05 -2.00597e-05
0.0117521 -1.29247e-26 0.0023062 -0.000835341 -0.000133256 -0.000367102
-0.0118109 0 0.00202396 5.59736e-05 -8.67007e-06 -2.18751e-05
0.011637 -4.1359e-25 0.00287482 -4.3327e-09 -4.20951e-11 -2.11094e-09
-0.011637 0 0.00287484 9.64828e-11 -2.78521e-11 -4.89493e-11
0.0117984 5.16988e-26 0.00225679 -0.000862579 -0.000138993 -0.000368705
-0.0120174 0 3.90758e-09 3.0847e-11 4.62224e-14 2.57648e-12
0.0120174 0 2.84979e-09 -2.64948e-11 -6.81758e-12 3.32772e-11
-0.0117955 0 0.00231141 4.96918e-05 -7.61777e-06 -2.31654e-05
0.0117955 0 0.00231145 -0.000855746 -0.000135874 -0.000374114
0.0121954 -5.42101e-20 0.0012226 -0.000785404 -0.000174795 -0.000146487
-0.0121954 2.71051e-20 0.00122257 6.96185e-05 -1.05486e-05 -9.22388e-06
0.0119887 2.71051e-20 0.00268347 -0.00078734 -0.000108679 -0.000381334
-0.0119887 0 0.00268338 4.43558e-05 -5.99439e-06 -2.28817e-05
-0.01228 2.71051e-20 0.000416681 4.53571e-06 -4.45089e-07 8.9538e-07
0.01228 -2.71051e-20 0.000416688 4.01731e-06 1.1023e-07 5.72467e-06
0.0121468 2.71051e-20 0.00201555 -0.00124868 -0.000201349 -0.000455738
-0.0121468 -5.42101e-20 0.00201552 7.33056e-05 -1.19545e-05 -3.44749e-05
0.0120502 0 0.00309818 -5.20035e-09 -5.22184e-11 -2.15504e-09
-0.0120504 2.06795e-25 0.00309797 1.40442e-10 -3.75597e-11 -7.93188e-11
-0.0125714 1.42329e-20 0.000818715 3.78001e-05 -5.76521e-06 -4.50506e-06
0.0125714 0 0.000818728 -0.00042703 -8.88856e-05 -4.27029e-05
-0.0124955 -9.46088e-22 0.00163775 7.75042e-05 -1.2369e-05 -2.65314e-05
0.0124955 2.06795e-25 0.00163779 -0.00115674 -0.000195648 -0.000184157
-0.0124473 1.03398e-25 0.00215345 7.07624e-05 -1.08649e-05 -3.37561e-05
0.012445 -5.16988e-26 0.00217771 -0.00112505 -0.00017466 -0.000223412
-0.0126625 0 4.4216e-09 2.34277e-11 9.83836e-14 5.97697e-12
0.0126625 0 4.16596e-09 1.01919e-10 -1.75379e-11 1.38778e-11
0.012415 -9.87912e-21 0.00249808 -0.00110624 -0.000162206 -0.000246705
-0.0124151 -3.22975e-20 0.00249798 6.62582e-05 -9.86007e-06 -3.85829e-05
0.0123715 0 0.00295966 -0.000706479 -9.98843e-05 -0.000238403
-0.0123716 5.42101e-20 0.00295946 4.53247e-05 -5.62686e-06 -2.77488e-05
0.0124502 0 0.00332267 -4.78096e-09 -6.03218e-11 -1.47841e-09
-0.0124504 0 0.00332235 2.59332e-10 -6.14664e-11 -1.66962e-10
-0.0128562 5.42101e-20 0.0012345 7.49796e-05 -1.18937e-05 -1.06123e-05
0.0128562 0 0.00123453 -0.000953622 -0.000178821 -3.20341e-05
0.0127774 -5.42101e-20 0.00205176 -0.00162376 -0.000226465 -9.84662e-05
-0.0127774 2.71051e-20 0.0020517 9.17677e-05 -1.50158e-05 -5.0805e-05
-0.0129428 5.42101e-20 0.000415117 2.35463e-06 -2.06417e-07 8.80516e-07
0.0129428 0 0.000415119 2.62848e-05 -3.42251e-06 -2.86901e-06
0.0126364 1.04769e-20 0.00298058 -0.000804361 -0.000123389 -0.000149012
-0.0126365 3.99197e-21 0.00298045 5.6909e-05 -7.28806e-06 -3.84209e-05
0.0128012 5.42101e-20 0.00270508 -0.00125096 -0.000187564 -6.99236e-05
-0.0128013 0 0.00270499 8.04927e-05 -1.16317e-05 -5.75311e-05
0.0127482 -5.42101e-20 0.00323312 -0.000488163 -8.75485e-05 -0.00013175
-0.0127483 2.71051e-20 0.003233 4.67329e-05 -4.93355e-06 -3.14819e-05
-0.0131349 6.88442e-21 0.00164976 8.56737e-05 -1.4505e-05 -3.87973e-05
0.0131349 0 0.0016498 -0.00152128 -0.000204073 0.000338579
-0.0132243 -4.47587e-21 0.000837807 3.87694e-05 -6.30722e-06 -7.37292e-06
0.0132243 0 0.000837817 -0.000613445 -9.1739e-05 0.000122274
0.0130975 -2.58494e-26 0.00231777 -0.00154679 -0.000216906 0.000385922
-0.0130948 1.29247e-26 0.00236819 9.54877e-05 -1.4904e-05 -6.47947e-05
0.0130925 1.29247e-26 0.00240727 -0.0015502 -0.000218626 0.000392265
-0.0130926 0 0.00240721 9.60207e-05 -1.49256e-05 -6.62067e-05
-0.013314 8.27181e-25 9.07426e-09 4.02989e-11 -3.92073e-13 2.42362e-11
0.013314 -4.1359e-25 4.77398e-09 -4.37767e-12 -4.07241e-11 -1.76241e-10
0.0128409 0 0.00354987 -4.03678e-09 -8.74773e-11 -1.83624e-10
-0.0128409 0 0.00354987 5.07403e-10 -9.98856e-11 -3.53421e-10
0.0133766 4.1359e-25 3.24539e-16 0 0 0
0.0130304 -2.07829e-21 0.00304123 -0.000855059 -0.000153987 0.000176765
-0.0130305 0 0.00304116 7.84141e-05 -9.59711e-06 -5.68774e-05
-0.0134807 0 2.70291e-16 0 0 0
-0.0133341 1.29247e-26 0.00239165 0.000104349 -1.60072e-05 -7.13314e-05
-0.0134964 0 0.00127054 7.47226e-05 -1.32838e-05 -2.26603e-05
0.0134964 2.71051e-20 0.00127056 -0.00148844 -0.000177284 0.000570557
0.013419 0 0.00204499 -0.00201169 -0.000233495 0.000883755
-0.013419 -2.71051e-20 0.00204495 0.000100896 -1.77432e-05 -7.05539e-05
-0.013603 2.71051e-20 0.000466172 3.81303e-06 5.87955e-08 3.03089e-06
0.013603 0 0.000466188 -3.80951e-05 -9.37403e-06 -5.92999e-05
0.0131985 -2.71051e-20 0.00339288 -0.000412318 -0.000123491 9.0037e-05
-0.0131985 -5.42101e-20 0.00339286 7.96078e-05 -7.11301e-06 -5.64574e-05
0.0136136 1.03398e-25 0.000918186 -0.000998138 -0.000107333 0.000411762
0.0133931 0 0.00277186 -0.00135012 -0.000229918 0.000897617
-0.0133931 2.71051e-20 0.00277181 0.000112254 -1.56448e-05 -8.65844e-05
0.0132222 0 0.00378437 -1.66473e-09 -1.18092e-10 3.3257e-09
-0.0132222 0 0.00378436 7.85465e-10 -1.37309e-10 -4.90014e-10
-0.013767 3.36385e-20 0.00168964 9.29755e-05 -1.67676e-05 -5.7817e-05
0.013767 -5.16988e-26 0.00168966 -0.00220383 -0.000209552 0.00118574
0.0138501 -5.16988e-26 0.00144807 -0.00191727 -0.000179278 0.00101673
0.0137943 1.9387e-26 0.00233029 -0.00195115 -0.000235088 0.00154111
-0.0137766 -5.16988e-26 0.0024655 0.000119748 -1.74038e-05 -7.89934e-05
-0.0137957 1.01406e-20 0.00236191 0.000120266 -1.80742e-05 -8.11253e-05
0.0137957 -1.48245e-20 0.00236194 -0.00193867 -0.000236349 0.00155867
0.0139999 0 2.57605e-08 -1.77401e-08 1.14574e-09 1.78014e-09
-0.0139999 -3.30872e-24 3.31484e-08 5.99435e-11 4.29047e-12 2.107e-10
-0.0136343 0 0.00323883 0.000115882 -1.23993e-05 -6.3079e-05
0.0136343 9.85834e-21 0.00323885 -0.0006082 -0.000185097 0.00116088
-0.0140039 -8.27181e-25 0.000859432 3.84294e-05 -6.92635e-06 -1.81541e-05
-0.0140046 -1.31236e-20 0.000998897 4.46654e-05 -8.0502e-06 -2.11e-05
0.0140046 -1.03398e-25 0.000998906 -0.0013845 -0.000122994 0.000702505
-0.0135635 2.71051e-20 0.00367244 8.38087e-05 -6.71981e-06 -4.5423e-05
0.0135635 2.71051e-20 0.00367244 7.54994e-05 -0.000115684 0.000584753
0.0139053 0 0.00238206 -0.0020048 -0.000239184 0.00186131
0.0135969 8.27181e-25 0.00402325 3.97878e-09 -1.14197e-10 8.26716e-09
-0.0135969 0 0.00402326 2.43353e-10 -4.13824e-11 -1.39456e-10
0.0139972 5.42101e-20 0.00283701 -0.00145988 -0.000253253 0.00227853
-0.0139972 0 0.002837 0.000154288 -1.92088e-05 -8.07275e-05
0.0138476 1.30901e-20 0.00370749 0.000252545 -0.000145066 0.0012231
-0.0138476 1.34907e-20 0.00370749 0.000102404 -9.0005e-06 -4.65065e-05
0.0140499 0 0.00345844 -6.15931e-05 -0.000216713 0.00207862
-0.0140499 -2.71051e-20 0.00345842 0.000154714 -1.4509e-05 -5.04497e-05
0.0139469 -5.42101e-20 0.00396073 0.000716201 -0.000107514 0.00105577
-0.0139469 0 0.00396073 7.21975e-05 -6.13484e-06 -4.39185e-05
-0.0143967 0 0.00177286 0.000108796 -2.06045e-05 -9.21268e-05
0.0143968 -1.0842e-19 0.00177287 -0.00359005 -0.000222363 0.00258629
0.0144759 0 0.0010663 -0.00247998 -0.000143089 0.00123803
-0.0145284 -5.42101e-20 0.000528794 -2.66673e-06 1.30502e-07 1.2604e-05
0.0145284 5.42101e-20 0.000528806 -0.00102654 -0.000103291 0.000216255
-0.0145408 -1.65436e-24 -2.3803e-19 0 0 0
-0.014346 2.58494e-26 0.00246296 0.000169554 -2.11546e-05 -9.31478e-06
0.014346 1.29247e-26 0.00246297 -0.0022707 -0.000250582 0.00307823
0.0143419 0 0.00263425 -0.00191854 -0.000249686 0.00306544
-0.0143417 -5.16988e-26 0.00264519 0.00017201 -2.06031e-05 -3.60782e-06
0.0139664 -8.27181e-25 0.00426616 1.05227e-08 -9.22794e-11 1.19275e-08
-0.0139664 0 0.00426617 5.6794e-10 -1.10952e-10 -2.24831e-10
0.0143299 0 0.00314167 -0.000875253 -0.000247031 0.00302753
-0.01433 -5.16988e-26 0.00314165 0.000178703 -1.91006e-05 1.19398e-05
-0.0143274 0 0.00382825 0.000109417 -1.2005e-05 2.16831e-05
0.0143274 1.15268e-21 0.00382827 0.000886605 -0.000174294 0.00230283
-0.0142839 0 0.00419995 5.61759e-05 -6.19999e-06 -6.83677e-06
0.0142839 0 0.00419996 0.00146176 -0.000100466 0.00140965
0.0146607 0 0.00277722 -0.00224063 -0.00026435 0.00407528
-0.0146607 0 0.00277719 0.000217999 -2.32104e-05 0.000101986
0.0146779 5.16988e-26 0.00311833 -0.00124532 -0.000256014 0.00371398
-0.0143297 0 0.00451528 2.8873e-10 -1.07514e-10 6.62456e-11
0.0143297 0 0.00451528 1.48492e-08 -5.63476e-11 1.42215e-08
0.0146407 -2.71051e-20 0.00345522 0.000147663 -0.000255688 0.00375439
-0.0146407 -2.71051e-20 0.0034552 0.000190467 -1.98396e-05 8.26565e-05
-0.0148726 0 0.00237201 0.00022713 -2.22238e-05 0.000123739
0.0150765 0 0.00107498 -0.0036089 -0.000157305 0.00178821
-0.0150722 0 0.00115156 9.00248e-05 -1.01382e-05 -1.88735e-05
0.0150723 6.01857e-20 0.00115157 -0.00386604 -0.000168514 0.00191562
-0.015135 0 1.97405e-08 -8.03828e-10 -1.04718e-11 1.16135e-10
0.015135 -3.30872e-24 1.42412e-08 -3.50602e-08 1.58167e-09 1.05647e-08
-0.0145571 -3.50658e-20 0.00424069 5.01527e-05 -8.93735e-06 5.00481e-05
0.0145571 -1.75189e-20 0.00424076 0.00184915 -0.000135092 0.00226402
-0.0150768 1.29247e-26 0.00227818 0.000241598 -2.20213e-05 0.000165778
-0.015077 -4.28324e-20 0.00233672 0.000249474 -2.26387e-05 0.000175373
0.015077 -2.94897e-20 0.00233673 -0.00384341 -0.000250317 0.00396878
-0.0149599 0 0.00309939 0.000240701 -2.27982e-05 0.000245739
0.0149599 -2.06103e-20 0.00309942 -0.00154528 -0.000263295 0.00427039
0.0147482 0 0.0040121 0.00206349 -0.000210132 0.00349215
-0.0147482 0 0.00401205 8.75532e-05 -1.49407e-05 0.000137658
0.0146548 0 0.00448335 0.00202255 -9.71238e-05 0.00192367
-0.0146548 2.71051e-20 0.00448322 8.48503e-06 -5.86803e-06 2.1803e-05
0.0150174 2.58494e-26 0.00340189 -0.000206232 -0.000253501 0.00428148
0.0146869 -4.1359e-25 0.00477145 1.59352e-08 -3.77475e-11 1.3818e-08
-0.0146871 0 0.00477118 -2.41571e-10 -1.21395e-10 6.60167e-10
-0.0150653 2.05085e-20 0.00365361 0.000139654 -1.96931e-05 0.000314673
0.0150653 -1.90467e-20 0.00365366 0.000908354 -0.000245349 0.00429072
0.0150012 3.40054e-21 0.00438214 0.00265061 -0.000163534 0.00327805
-0.0150013 2.99423e-20 0.00438202 -1.28682e-05 -1.19027e-05 0.00023128
0.0149708 0 0.00472958 0.00255976 -8.43933e-05 0.00204677
-0.0149709 2.71051e-20 0.00472935 -5.62412e-05 -5.76998e-06 0.000108409
-0.0156996 0 0.000583566 -6.94313e-05 -1.09822e-06 -1.76961e-06
0.0156997 0 0.000583553 -0.00361005 -0.000119463 0.00118868
-0.0156698 0 0.0017718 0.000328497 -1.97945e-05 1.71383e-06
0.0156699 -5.42101e-20 0.00177182 -0.00730478 -0.000233486 0.00375288
0.015803 -8.27181e-25 1.16003e-20 0 0 0
0.0153765 0 0.00369344 0.00107708 -0.000258356 0.00494914
-0.0157761 0 0.00116021 0.000237805 -9.82848e-06 8.49512e-05
0.0153021 0 0.00405686 0.00269967 -0.000254266 0.00499693
-0.0153022 -2.71051e-20 0.00405677 2.01096e-05 -2.03448e-05 0.000484172
0.0150401 4.1359e-25 0.00503221 1.54783e-08 -3.95271e-11 1.28291e-08
-0.0150403 8.27181e-25 0.00503187 -1.02855e-09 -1.34548e-10 1.62026e-09
0.015595 0 0.00305486 -0.00303204 -0.00027346 0.00540919
-0.015595 -5.42101e-20 0.00305484 0.000357816 -2.67493e-05 0.000743946
0.0152089 2.56054e-20 0.00477979 0.00300056 -0.000118697 0.00281172
-0.015209 -2.70496e-20 0.00477964 -0.000100196 -8.47462e-06 0.000243397
0.0153574 0 0.00457641 0.003932 -0.000191044 0.00424148
-0.0153574 0 0.00457631 -0.000114594 -1.4188e-05 0.000438499
0.0156034 0 0.00372244 0.00120006 -0.000267837 0.00542909
-0.0156035 1.61564e-20 0.00372239 9.19565e-05 -2.39651e-05 0.000850064
0.0156066 0 0.00389696 0.00182841 -0.000259169 0.00531691
0.0153108 2.71051e-20 0.00500804 0.00251711 -8.12151e-05 0.00215887
-0.0153109 0 0.00500792 -0.000130251 -5.50951e-06 0.000185216
-0.0156148 7.95955e-22 0.00435037 -0.000103931 -1.98362e-05 0.000797526
0.0156148 1.78182e-20 0.00435044 0.00346106 -0.000236648 0.00502544
-0.01621 -1.24077e-24 2.1204e-21 0 0 0
0.0153893 0 0.00529766 1.90766e-08 -5.48364e-11 1.60306e-08
-0.0153893 0 0.00529766 -8.04425e-10 -4.99029e-11 1.02085e-09
-0.0163001 -4.1359e-25 1.82533e-09 -1.61722e-10 -4.46776e-12 -1.0236e-10
0.0163002 0 1.06291e-08 -6.5393e-08 -4.70467e-09 1.75412e-08
0.0155674 -1.17356e-21 0.00487891 0.00374553 -0.000151276 0.00360354
-0.0155675 1.47567e-20 0.00487883 -0.000234912 -1.17503e-05 0.00052105
0.0162867 0 0.00116648 -0.00702481 -0.000187088 0.00235527
-0.0162867 0 0.00116648 0.00034501 -9.60382e-06 0.00016027
0.015927 5.42101e-20 0.00403479 0.00221369 -0.000277986 0.00586994
-0.015927 0 0.00403475 6.08319e-06 -2.59133e-05 0.0012761
-0.0162589 0 0.0024084 0.000779595 -2.27583e-05 0.000988034
0.0162589 0 0.00240841 -0.00637044 -0.000260219 0.00377395
0.0157244 0 0.00520788 0.00378876 -0.000114226 0.00313066
-0.0157244 -5.42101e-20 0.00520786 -0.000382563 -8.57517e-06 0.000465419
0.015895 2.71051e-20 0.0046836 0.00493777 -0.000230116 0.00511614
-0.015895 2.71051e-20 0.00468355 -0.000327684 -1.97719e-05 0.00105255
-0.0162295 0 0.00355316 0.000300653 -2.70485e-05 0.0017203
0.0162295 -1.03398e-25 0.00355318 -0.000309525 -0.000279702 0.00491273
0.0157077 -1.55096e-25 0.00555272 0 0 0
-0.0157315 0 0.00557179 -6.64313e-10 -2.74756e-11 7.78146e-10
0.0157315 -2.58494e-26 0.00557179 1.61762e-09 -8.84515e-11 1.27879e-09
0.0162044 2.58494e-26 0.00434667 0.00338891 -0.000263549 0.00519763
-0.0162031 0 0.00438676 -0.00023596 -2.48914e-05 0.00166598
0.0162031 3.35939e-20 0.00438679 0.0035759 -0.000262733 0.00521203
0.0159038 0 0.00537304 0.00196151 -7.41208e-05 0.0016778
0.0163057 0 0.00438788 0.00349264 -0.000264875 0.00503861
-0.0168925 0 0.000585155 -9.63354e-05 -2.0658e-07 -0.000102849
0.0168925 1.0842e-19 0.000585155 -0.00718435 -0.000143985 0.00170873
-0.0161356 -2.50481e-20 0.00510572 -0.000583057 -1.58193e-05 0.00116195
0.0161356 -3.30076e-20 0.00510574 0.00459965 -0.00017381 0.00393437
-0.0160571 0 0.00550867 -0.000558135 -8.03009e-06 0.000633404
0.0160571 0 0.00550868 0.00347914 -9.41056e-05 0.00261603
0.0168863 0 0.00178832 -0.010094 -0.000254151 0.00281634
-0.0168864 0 0.00178832 0.00123731 -1.77357e-05 0.000753451
0.0165161 -2.71051e-20 0.00404722 0.00175289 -0.000284566 0.00473728
-0.0165161 2.71051e-20 0.00404721 -2.10263e-07 -2.83985e-05 0.0023015
-0.0160419 0 0.00582863 0 0 0
0.0160689 -1.03398e-25 0.00585097 3.19988e-09 -1.694e-10 2.32399e-09
-0.0160689 0 0.00585097 -8.07593e-11 3.07664e-13 9.03825e-11
-0.016087 -1.29247e-26 0.00583117 -5.45426e-05 -7.99476e-07 7.40201e-05
-0.0164909 2.71051e-20 0.00473883 -0.000624312 -2.56664e-05 0.00206799
0.0164909 5.42101e-20 0.00473885 0.00537751 -0.000259224 0.00511342
0.0161167 2.06795e-25 0.00589164 0 0 0
0.0168903 5.42101e-20 0.00306786 -0.00489742 -0.000280988 0.00315706
-0.0168903 0 0.00306785 0.00119556 -2.70148e-05 0.0024905
0.0162135 2.58494e-26 0.0056926 0.00223896 -6.79303e-05 0.00160317
-0.0163295 9.93589e-21 0.00556552 -0.000786225 -1.15244e-05 0.00106699
0.0163295 -1.29805e-20 0.00556552 0.00403549 -0.000122437 0.00288954
-0.0168563 1.03398e-25 0.00372137 0.000320248 -2.89817e-05 0.0027715
0.0168563 -1.03398e-25 0.00372138 -0.000244964 -0.000284992 0.00377869
-0.0165366 0 0.00534081 -0.00103241 -1.89391e-05 0.00173534
0.0165366 2.71051e-20 0.00534083 0.00562336 -0.000189239 0.00397194
-0.0168247 -5.16988e-26 0.0043934 -0.000322971 -2.87403e-05 0.00276977
0.0168247 2.58494e-26 0.00439341 0.00307137 -0.000275713 0.00416113
-0.0164111 0 0.00582471 -0.000778702 -7.95742e-06 0.000862864
0.0164111 0 0.00582471 0.00308162 -8.71824e-05 0.00213468
0.0168232 -1.29247e-26 0.00468873 0.00412325 -0.000257962 0.00413226
-0.0174874 -8.27181e-25 6.25053e-09 6.06075e-10 -4.64821e-11 -9.40386e-10
0.0174875 0 7.57501e-09 -7.00223e-08 -3.95362e-09 1.14109e-08
-0.016402 0 0.00613447 -1.30479e-09 3.67482e-12 1.38543e-09
0.016402 4.1359e-25 0.00613448 1.65291e-08 -2.96103e-11 1.16129e-08
0.0174955 -8.27181e-25 0.00116717 -0.00940697 -0.000206777 0.0012704
-0.0174955 -3.80222e-20 0.00116716 0.00118894 -1.01287e-05 0.000668473
-0.0168213 6.95555e-22 0.00504736 -0.00101507 -2.52007e-05 0.00252157
0.0168213 0 0.00504737 0.00540068 -0.000236405 0.00409719
-0.0171659 0 0.00404328 0.000109301 -3.07045e-05 0.0033881
0.0171659 0 0.00404329 0.000594093 -0.000287769 0.00322815
-0.016645 0 0.00587799 -0.000765565 -9.64421e-06 0.00109107
0.0175081 -4.1359e-25 0.0023977 -0.00781276 -0.000266046 0.000874942
-0.0175081 4.83595e-20 0.0023977 0.00220965 -2.39932e-05 0.00245378
-0.0167922 0 0.0057226 -0.00122937 -1.54871e-05 0.00175208
0.0167923 -1.09618e-20 0.00572261 0.00424973 -0.000143532 0.00279126
-0.0171366 0 0.00470949 -0.000762842 -3.01135e-05 0.00330384
0.0171366 0 0.00470949 0.00452773 -0.000271207 0.00358309
-0.0167171 0 0.00609699 -0.000985902 -7.52204e-06 0.00100491
0.0167171 0 0.00609699 0.00247729 -7.31799e-05 0.00177035
-0.0167294 2.06795e-25 0.00642335 -2.95134e-09 6.25442e-12 3.05365e-09
0.0167294 0 0.00642336 1.2596e-08 -1.33359e-11 8.78695e-09
-0.0175795 -5.99697e-20 0.00361525 0.000982603 -3.07611e-05 0.00379339
0.0175795 -2.28033e-21 0.00361526 -0.00181346 -0.000280283 0.00121932
-0.0171445 0 0.00535679 -0.0016288 -2.65375e-05 0.00303299
0.0171445 0 0.00535679 0.00604197 -0.000229576 0.00372891
-0.0174722 -2.97621e-20 0.00437117 -0.000221787 -3.14304e-05 0.00377966
0.0174722 8.59068e-21 0.00437118 0.00220466 -0.000279376 0.0024348
-0.0169642 9.04729e-26 0.00617931 -0.00122751 -1.05515e-05 0.00142396
-0.0169816 -6.98688e-21 0.00616128 -0.0013182 -1.13311e-05 0.00152917
0.0169816 -5.85551e-21 0.00616129 0.00294153 -0.000100288 0.00188076
-0.0180913 0 0.000581797 0.000271817 -2.28726e-06 -0.000177924
0.0180913 0 0.000581805 -0.00971692 -0.000171526 0.00104615
-0.0171843 0 0.00595248 -0.00181943 -1.89378e-05 0.00238706
0.0171843 2.71051e-20 0.0059525 0.00448042 -0.000158513 0.00260785
0.0181132 1.0842e-19 0.00177269 -0.0106742 -0.000259739 -0.000487699
-0.0181132 -1.0842e-19 0.00177269 0.00339085 -2.06998e-05 0.00223695
0.0175226 1.61559e-27 0.00495008 0.00468721 -0.000253343 0.00260255
-0.017541 -9.29348e-21 0.00494753 -0.00124298 -3.04e-05 0.00384718
0.017541 1.46521e-20 0.00494753 0.00466853 -0.000253786 0.00256342
0.0175399 0 0.0049576 0.00467545 -0.00025313 0.00256596
-0.0170608 0 0.00641567 -0.00116547 -7.79051e-06 0.00122366
0.0170608 0 0.00641568 0.00192166 -7.11565e-05 0.00129096
0.0170058 -1.55096e-25 0.00667771 0 0 0
-0.0170502 -4.1359e-25 0.00671864 -4.56922e-09 9.0243e-12 4.67193e-09
0.0170503 0 0.00671866 1.50781e-09 -1.25714e-10 1.0928e-09
-0.0174614 1.6715e-20 0.00567132 -0.00205666 -2.582e-05 0.00336164
0.0174614 -1.86736e-21 0.00567133 0.00516589 -0.000206607 0.00274593
0.0170924 5.16988e-26 0.00675857 0 0 0
-0.0181465 0 0.00301103 0.00299218 -3.06895e-05 0.00435647
0.0181465 1.0842e-19 0.00301104 -0.00546952 -0.0002698 -0.00194725
0.0172196 -1.03398e-25 0.00654539 0.00131323 -5.52521e-05 0.000788768
-0.0174304 0 0.00632968 -0.00186626 -1.54125e-05 0.00223883
0.0174304 -1.69598e-20 0.00632969 0.00294802 -0.000124033 0.00177067
-0.0174329 -4.03897e-28 0.00633546 -0.00186516 -1.53601e-05 0.00223434
-0.0177803 0 0.00535045 -0.00209743 -3.17094e-05 0.00437539
0.0177803 2.71051e-20 0.00535046 0.00546728 -0.000244248 0.00229191
-0.0173576 -2.71051e-20 0.00669483 -0.00129001 -7.24854e-06 0.00128174
0.0173576 0 0.00669485 0.00131458 -6.51746e-05 0.00105475
-0.0181205 -5.42101e-20 0.00433828 8.2951e-05 -3.47415e-05 0.00519292
0.0181205 0 0.00433827 0.00121327 -0.000278284 -0.000721536
0.0186779 0 1.41337e-08 -1.51829e-07 -8.77062e-09 5.33736e-09
-0.0186779 8.27181e-25 6.15592e-09 7.18243e-09 -8.22805e-11 8.34012e-10
-0.0173664 0 0.00701818 -5.87015e-09 1.29719e-11 5.91284e-09
0.0173664 0 0.0070182 7.43548e-09 -1.08305e-11 6.0115e-09
0.0187094 0 0.0011524 -0.00980938 -0.000216749 -0.000996305
-0.0187094 -4.1359e-25 0.00115239 0.00298548 -1.46334e-05 0.00147279
-0.0177644 2.71051e-20 0.00598962 -0.00269665 -2.66662e-05 0.0037327
0.0177644 0 0.00598963 0.00473018 -0.000198109 0.00236266
-0.0181046 0 0.0050086 -0.0016067 -3.3982e-05 0.00495565
0.0181046 0 0.0050086 0.00373489 -0.000253348 0.000691725
0.0180986 0 0.00523267 0.00397675 -0.000244616 0.00095908
-0.0176174 -1.05798e-20 0.00676386 -0.00174671 -1.11754e-05 0.00185795
0.0176174 -3.0655e-20 0.00676387 0.00167417 -9.15821e-05 0.00120142
0.0187451 0 0.00236563 -0.00783332 -0.000259455 -0.00342876