# omega  POINT_DATA 50712
# x  y  z  omega
-0.0115468 0 6.39774e-08 1224.58
0.0115468 0 6.39774e-08 1225.22
0.0115468 6.77626e-21 0.00015991 1229.06
-0.0115468 0 0.000159974 1228.41
0.0115468 1.35525e-20 0.000505084 1408.73
-0.0115468 1.35525e-20 0.000505284 1408.19
0.0115468 0 0.000661266 1594.9
-0.0115468 1.35525e-20 0.000661528 1594.46
0.0115468 6.77626e-21 0.000824591 1791.21
-0.0115468 1.35525e-20 0.000824855 1790.75
0.0115468 0 0.00119315 2063.46
-0.0115467 -6.77626e-21 0.00119341 2063.07
0.0116176 0 9.47928e-05 1209.05
-0.0116176 -1.35525e-20 9.48608e-05 1208.39
-0.0116191 0 6.70009e-08 1208.71
0.0116191 -1.35525e-20 6.69999e-08 1209.36
0.0115467 0 0.00135627 2165
-0.0115467 0 0.00135654 2164.68
0.0116144 0 0.0005677 1454.58
-0.0116144 0 0.000567955 1454.07
0.0116106 0 0.000748261 1683.72
-0.0116106 0 0.00074858 1683.26
0.0115467 6.77626e-21 0.00152892 2307.94
-0.0115467 0 0.00152913 2307.58
0.0116105 -1.35525e-20 0.00124687 2052.17
-0.0116105 0 0.00124719 2051.8
0.0116054 0 0.00142604 2204.07
-0.0116054 0 0.00142632 2203.72
0.0115467 0 0.00190897 2028.58
-0.0115467 -6.77626e-21 0.00190903 2028.81
0.0117276 1.35525e-20 6.63331e-08 1117.09
-0.0117276 0 6.63357e-08 1116.17
0.0117103 2.71051e-20 0.000650308 1310.88
-0.0117103 0 0.000650723 1310.98
0.0115467 0 0.002087 1517.59
-0.0115467 0 0.002087 1518.45
0.011609 0 0.00193558 1818.49
-0.011609 0 0.00193568 1818.94
0.0117025 1.35525e-20 0.00130847 1662.71
-0.0117026 6.77626e-21 0.00130891 1662.89
0.0116004 0 0.00211165 1320.16
-0.0116004 -1.35525e-20 0.00211165 1321.24
0.0116425 1.35525e-20 0.00204724 1360.8
-0.0116425 -1.35525e-20 0.0020473 1361.82
-0.0116585 -1.35525e-20 0.00213828 1403.54
0.0116585 1.35525e-20 0.00213829 1402.6
0.0117067 0 0.00192887 1327.64
-0.0117067 0 0.00192906 1328.51
0.0118537 0 0.000958822 1500.45
-0.0118537 4.51751e-21 0.000959338 1500.61
0.0119178 -2.25875e-21 0.000318505 1052.02
-0.0119179 6.77626e-21 0.000318753 1051.33
0.011932 -1.35525e-20 7.04545e-08 1046.1
-0.011932 1.35525e-20 7.04584e-08 1045.1
0.0118325 -2.71051e-21 0.00163048 1790.76
-0.0118325 8.13152e-21 0.00163082 1790.72
0.0118724 -1.35525e-20 0.00142154 1425.73
-0.0118724 0 0.00142207 1426.06
-0.0117616 1.35525e-20 0.0021856 1170.5
0.0117616 -1.35525e-20 0.0021856 1169.27
0.0118132 -8.13152e-20 0.00220929 1297.83
-0.0118132 -2.71051e-20 0.00220929 1298.75
0.0118989 -3.76459e-22 0.00195759 1170.48
-0.0118989 1.12938e-21 0.00195776 1171.67
0.0119718 0 0.00153816 1145.25
-0.0119719 6.77626e-21 0.00153863 1148.16
0.0120983 0 7.96199e-08 972.798
-0.0120983 1.35525e-20 7.96227e-08 971.651
0.0120694 -6.77626e-21 0.000852289 910.815
-0.0120695 6.77626e-21 0.000852887 913.637
0.0122081 0 0.000167029 913.984
-0.0122082 -2.71051e-20 0.000167211 912.531
0.012221 0 7.14643e-08 913.923
-0.012221 -1.35525e-20 7.14638e-08 912.465
0.0121684 -1.05409e-21 0.0012252 674.151
-0.0121684 3.01167e-22 0.00122579 675.215
-0.0120251 0 0.00230653 1803.47
0.0120251 -2.71051e-20 0.00230654 1802.15
0.0122349 5.16287e-21 0.000642094 728.475
-0.0122349 -3.87215e-21 0.00064261 728.727
0.0120593 5.0822e-21 0.00232225 1832.61
-0.0120595 -1.69407e-21 0.00232234 1834.12
0.0122855 2.71051e-20 6.71745e-08 908.196
-0.0122856 0 6.71712e-08 907.107
0.0122109 4.79985e-21 0.00173612 896.698
-0.012211 4.79985e-21 0.00173646 897.739
0.0121468 1.35525e-20 0.00214597 1735.11
-0.0121468 -5.42101e-21 0.00214607 1736.33
0.0122263 6.77626e-21 0.00229069 1915.8
-0.0122264 0 0.00229083 1917.08
0.0124605 1.35525e-20 5.58025e-08 887.61
-0.0124606 -2.71051e-20 5.57974e-08 886.508
0.0125121 2.1684e-20 0.000225072 867.872
-0.0125121 1.0842e-20 0.000225226 866.803
0.012289 0 0.00242767 2000.24
-0.012289 1.35525e-20 0.00242767 2001.27
0.0125901 0 0.000921608 206.225
-0.0125902 0 0.000921969 206.503
-0.0124011 0 0.00241706 2275.02
0.0124011 1.35525e-20 0.00241705 2274.24
-0.0123956 0 0.00247653 2358.54
0.0123957 0 0.00247657 2357.85
0.0124525 1.69407e-21 0.00218684 1576.01
-0.0124526 0 0.00218694 1577.12
0.0125382 -1.35525e-20 0.00209398 942.219
-0.0125382 -2.71051e-20 0.00209412 943.684
0.0126447 -1.89735e-20 0.00162104 306.835
-0.0126448 -1.0842e-20 0.00162131 307.058
-0.012772 1.35525e-20 0.000141313 844.005
0.0127721 0 0.000141176 844.883
-0.0127747 0 1.51157e-08 844.141
0.0127748 2.71051e-20 1.51099e-08 845.023
0.0126132 2.71051e-21 0.00241893 2392.87
-0.0126132 -1.0842e-20 0.00241896 2393.48
0.0125864 1.35525e-20 0.00256393 2567.53
-0.0125864 1.35525e-20 0.00256393 2568.07
-0.0129279 -1.35525e-20 4.53136e-09 844.259
0.0129279 1.35525e-20 4.53058e-09 844.888
0.0129181 -6.77626e-21 0.000605291 520.178
-0.0129182 -2.25875e-21 0.000605505 519.778
0.0129069 2.25875e-21 0.00122264 170.207
-0.012907 4.51751e-21 0.00122289 170.054
-0.0127465 0 0.00263727 1907.38
0.0127465 5.42101e-20 0.0026373 1906.93
0.0128746 4.51751e-21 0.00194104 470.393
-0.0128746 4.51751e-21 0.00194116 471.428
0.0130688 1.35525e-20 3.79635e-09 858.425
-0.0130689 -1.35525e-20 3.79672e-09 857.893
0.0130684 0 0.000129705 858.168
-0.0130685 -1.35525e-20 0.000129767 857.634
0.0129106 -4.51751e-21 0.00229685 1324.81
-0.0129106 0 0.0022969 1325.77
0.0131166 2.71051e-21 0.00164045 249.822
-0.0131166 2.71051e-20 0.0016406 249.659
0.013248 0 0.000302942 872.252
-0.013248 0 0.000303006 871.873
-0.0129825 6.77626e-21 0.00274594 1655.23
0.0129826 1.35525e-20 0.00274602 1654.75
0.0132464 2.71051e-20 0.000911421 154.718
-0.0132464 -2.71051e-20 0.000911568 154.276
-0.0131305 1.35525e-20 0.00262462 1650.59
0.0131306 -4.51751e-21 0.0026246 1650.22
0.0132416 0 0.00211418 296.318
-0.0132416 0 0.00211424 297.842
0.0131188 1.35525e-20 0.00280831 1559.85
-0.0131188 6.77626e-21 0.00280832 1560.11
-0.013437 0 2.0837e-09 887.707
0.0134371 1.35525e-20 2.08334e-09 888.035
-0.0134397 0 0.000120678 887.715
0.0134397 0 0.00012062 888.041
0.0135679 0 1.40568e-09 898.33
-0.0135679 -1.35525e-20 1.40569e-09 898.085
0.0135763 4.51751e-21 0.000596651 530.621
-0.0135763 4.51751e-21 0.000596723 529.862
0.0135724 4.51751e-21 0.00122409 124.413
-0.0135724 0 0.00122418 123.199
-0.0133502 2.71051e-20 0.0029148 1384.74
0.0133503 2.71051e-20 0.00291486 1384.58
0.013478 4.51751e-21 0.00238371 835.305
-0.013478 4.51751e-21 0.00238375 836.001
0.0135677 4.51751e-21 0.0018552 164.706
-0.0135677 2.25875e-21 0.00185526 164.717
0.0136939 0 1.22236e-09 908.352
-0.013694 -1.35525e-20 1.2223e-09 908.149
0.0136952 1.35525e-20 0.000110031 908.117
-0.0136952 1.35525e-20 0.000110068 907.914
-0.0135432 -1.69407e-20 0.00300515 878.79
0.0135435 2.03288e-20 0.00300527 878.312
-0.0139035 0 0.000294203 924.73
0.0139035 0 0.00029418 924.88
0.0135883 1.69407e-20 0.00302624 855.591
-0.0135884 -3.38813e-21 0.00302627 855.896
0.0139156 0 0.000900725 153.195
-0.0139156 0 0.000900773 151.087
-0.01368 -2.25875e-21 0.00276396 946.623
0.0136801 4.51751e-21 0.00276395 946.409
0.0139126 0 0.00154323 78.158
-0.0139126 0 0.00154327 76.232
0.0138988 0 0.00219575 163.871
-0.0138988 0 0.00219579 164.666
-0.0141099 1.35525e-20 3.98814e-10 950.032
0.01411 2.71051e-20 3.98707e-10 950.161
-0.0141138 -1.35525e-20 9.87891e-05 950.096
0.0141139 0 9.87469e-05 950.225
-0.0138007 -1.35525e-20 0.00312566 1144.88
0.0138008 1.35525e-20 0.00312569 1144.85
0.0142228 -1.35525e-20 2.30663e-10 973.869
-0.0142228 0 2.30703e-10 973.768
0.0142415 2.25875e-21 0.000580985 568.007
-0.0142415 0 0.000581003 566.877
0.0142522 -1.12938e-21 0.00120638 115.827
-0.0142522 -5.64689e-21 0.0012064 113.078
0.0143301 0 2.07129e-10 984.393
-0.0143301 0 2.07152e-10 984.309
0.0143313 0 8.886e-05 984.168
-0.0143313 -1.35525e-20 8.88982e-05 984.082
-0.0139712 -6.77626e-21 0.00320466 1157.8
0.0139713 -6.77626e-21 0.00320471 1157.79
0.0142441 -4.51751e-21 0.00187483 103.793
-0.0142441 6.77626e-21 0.00187485 101.857
-0.0140734 -5.42101e-21 0.00302456 1204.87
0.0140735 -2.71051e-21 0.00302455 1204.87
0.0141851 -4.51751e-21 0.0026086 625.521
-0.0141851 9.03502e-22 0.0026086 625.173
0.0140971 6.77626e-21 0.00326317 1325.36
-0.0140971 -6.77626e-21 0.00326321 1325.6
0.0142075 1.35525e-20 0.0031652 1430.44
-0.0142075 0 0.00316528 1430.57
-0.0145609 -2.71051e-20 0.00028173 1009.71
0.0145609 0 0.000281722 1009.78
0.0145815 0 0.000874339 163.107
-0.0145815 0 0.000874351 160.857
0.0142358 0 0.00332756 1667.04
-0.0142358 -1.35525e-20 0.00332756 1667.07
-0.0145905 -2.71051e-20 0.00151944 62.5192
0.0145905 -2.71051e-20 0.00151943 67.2456
-0.0145715 0 0.00221287 99.9738
0.0145715 2.71051e-20 0.00221286 101.969
-0.0143572 -1.35525e-20 0.00338359 1735.04
0.0143573 1.35525e-20 0.00338361 1735.02
0.0144402 -7.52918e-21 0.00302844 1237.99
-0.0144402 0 0.00302844 1237.79
-0.0143824 1.35525e-20 0.00330546 1732.44
0.0143824 1.35525e-20 0.00330544 1732.42
-0.0147853 1.35525e-20 4.21902e-11 1056.14
0.0147853 0 4.21638e-11 1056.2
-0.0147878 0 7.9557e-05 1056.18
0.0147879 0 7.95089e-05 1056.23
-0.0148815 1.35525e-20 2.04877e-11 1092.29
0.0148815 1.35525e-20 2.04793e-11 1092.31
0.0146215 5.42101e-20 0.00280141 342.77
-0.0146215 2.71051e-20 0.00280142 342.056
0.0149014 -1.12938e-21 0.000554696 632.385
-0.0149014 6.77626e-21 0.000554698 630.164
-0.0145855 -2.71051e-20 0.00326148 2022.9
0.0145855 -2.71051e-20 0.00326148 2022.86
0.014922 1.12938e-21 0.00116913 119.435
-0.014922 -1.12938e-21 0.00116914 114.303
0.0149733 0 1.85822e-11 1102.34
-0.0149733 0 1.85877e-11 1102.34
0.0149737 0 7.37337e-05 1102.11
-0.0149737 -1.35525e-20 7.37863e-05 1102.1
0.0146079 0 0.00349938 1677.38
-0.014608 0 0.00349939 1677.39
0.0149198 -4.51751e-21 0.00184898 75.1531
-0.0149198 -1.12938e-21 0.00184898 70.6962
0.0146663 1.35525e-20 0.00343242 1667.3
-0.0146663 -1.35525e-20 0.00343246 1667.31
0.0149195 -3.38813e-21 0.0025206 177.009
-0.0149195 -1.12938e-21 0.00252061 175.099
0.0147322 1.35525e-20 0.00355672 1558.67
-0.0147322 -2.71051e-20 0.00355672 1558.66
0.0148881 -1.12938e-21 0.00309606 952.421
-0.0148881 -2.25875e-21 0.00309607 952.028
-0.0152103 0 0.000264569 1146.98
0.0152103 0 0.000264568 1146.99
-0.0152372 0 0.000832799 173.165
0.0152372 0 0.000832795 179.867
-0.0148482 2.03288e-20 0.00360995 1177.78
0.0148482 -6.77626e-21 0.00360996 1177.7
-0.0148928 1.35525e-20 0.00347705 1284.66
0.0148929 1.35525e-20 0.00347703 1284.61
-0.0152552 2.71051e-20 0.00147319 58.6438
0.0152552 -2.71051e-20 0.00147319 65.5718
-0.0152472 0 0.00216845 61.7569
0.0152472 2.71051e-20 0.00216845 66.0201
-0.0154527 -6.77626e-21 2.80358e-12 1263.91
0.0154528 0 2.79985e-12 1264
-0.015454 6.77626e-21 6.43525e-05 1264.02
0.0154541 -6.77626e-21 6.42876e-05 1264.11
0.0150217 2.71051e-20 0.0036898 1050.58
-0.0150218 1.35525e-20 0.00368982 1050.61
0.0150966 -2.71051e-20 0.00340471 1037.24
-0.0150966 0 0.00340473 1037.27
0.0152385 2.71051e-20 0.00284793 176.431
-0.0152385 0 0.00284795 175.602
0.0155345 -1.35525e-20 1.12383e-12 1327.64
-0.0155345 0 1.12475e-12 1327.62
0.015136 1.35525e-20 0.00358109 1113.6
-0.0151361 1.35525e-20 0.00358111 1113.61
-0.0155483 0 0.000512804 766.232
0.0155483 1.12938e-21 0.000512807 770.744
0.0156089 -6.77626e-21 5.68089e-05 1355.21
-0.015609 -6.77626e-21 5.68715e-05 1355.15
0.0156116 0 1.05225e-12 1352.21
-0.0156117 1.35525e-20 1.05295e-12 1352.17
0.0151553 0 0.00375104 1261.46
-0.0151554 1.35525e-20 0.00375106 1261.43
0.0156 1.58113e-21 0.00110028 142.471
-0.0156001 1.807e-21 0.00110028 134.117
0.0155874 -5.64689e-22 0.0017884 64.1865
-0.0155874 0 0.0017884 57.4379
0.0152737 -1.35525e-20 0.00381165 1266.41
-0.0152737 1.35525e-20 0.00381167 1266.37
0.0153111 1.35525e-20 0.00369351 1276.27
-0.0153111 2.71051e-20 0.00369353 1276.24
0.0155684 -5.64689e-22 0.00250744 101.699
-0.0155684 -1.12938e-21 0.00250745 96.5339
-0.015842 -2.71051e-20 0.000233949 1470.23
0.015842 0 0.000233939 1470.38
0.0155233 -2.25875e-21 0.00325342 688.126
-0.0155233 3.16226e-21 0.00325344 683.109
-0.0158872 2.71051e-20 0.000762439 218.037
0.0158872 0 0.000762443 229.256
0.0154852 0 0.00363865 1417.36
-0.0154853 0 0.00363867 1417.3
0.0154926 -6.77626e-21 0.00391521 1585.84
-0.0154927 0 0.00391523 1585.69
-0.0159268 2.71051e-20 0.00138121 63.1593
0.0159268 0 0.00138121 72.7947
0.0155593 0 0.00385211 1651.92
-0.0155593 1.35525e-20 0.00385213 1651.77
-0.0158994 0 0.00212232 46.9739
0.0158994 5.42101e-20 0.00212231 53.2559
0.0155753 0 0.0039559 1810.3
-0.0155753 -1.35525e-20 0.00395592 1810.13
0.0158856 0 0.00284658 106.53
-0.0158856 0 0.00284659 97.2096
0.0156482 0 0.0040035 1831.98
-0.0156482 2.03288e-20 0.00400354 1831.79
-0.0161504 3.38813e-21 0.000464673 765.044
0.0161504 2.82344e-21 0.000464663 768.299
0.0156709 1.35525e-20 0.00394832 1836.26
-0.015671 1.35525e-20 0.00394834 1836.08
0.0157655 0 0.00368363 1355.85
-0.0157655 -3.01167e-21 0.00368365 1350.49
0.0162446 4.23516e-22 7.62403e-14 1141.46
-0.016245 0 7.5661e-14 1141.33
-0.0162671 3.38813e-21 1.42354e-05 1126.27
0.0162671 3.38813e-21 1.44936e-05 1126.2
-0.0162672 -4.23516e-22 1.74791e-06 1137.97
0.0162714 0 1.43204e-06 1138.04
0.0159384 0 0.00346447 373.279
-0.0159385 0 0.00346449 356.387
-0.0162376 -6.21157e-22 0.00174471 59.9561
0.0162376 -4.51751e-22 0.00174471 67.987
0.0163345 -4.51751e-21 0.000944398 249.225
-0.0163345 -4.51751e-21 0.000944389 243.748
0.015896 5.42101e-20 0.00392571 2209.89
-0.015896 0 0.00392573 2209.63
-0.0162554 -2.42009e-22 0.00244439 67.6084
0.0162554 2.42009e-22 0.00244439 76.4355
0.0159401 0 0.00419454 1859.38
-0.0159401 0 0.00419456 1859.13
0.0162141 1.12938e-21 0.00317059 187.339
-0.0162141 -2.82344e-21 0.0031706 174.187
0.015999 0 0.0041493 1867.48
-0.0159991 0 0.0041493 1867.23
0.0160259 -1.35525e-20 0.00425061 1834.43
-0.016026 1.35525e-20 0.00425065 1834.19
-0.0166367 4.70574e-22 0.00035282 690.04
0.0166368 0 0.000352947 690.189
0.0160815 1.35525e-20 0.00428686 1922.89
-0.0160816 2.71051e-20 0.00428691 1922.72
0.0161049 -1.35525e-20 0.004232 1920.81
-0.0161051 0 0.00423202 1920.63
0.0162263 -1.05879e-22 0.00384235 1186.19
-0.0162266 -1.05879e-22 0.00384242 1175.63
0.0162339 0 0.00382625 1154.6
-0.016234 -9.52912e-22 0.00382671 1144.64
0.0162351 -1.05879e-22 0.00384456 1183.27
-0.0162352 0 0.00384458 1172.71
-0.0167083 6.77626e-21 1.01673e-14 816.808
0.0167084 -1.35525e-20 1.01342e-14 817.038
0.0166691 2.71051e-20 0.00146459 73.3002
-0.0166691 2.71051e-20 0.0014646 64.5886
0.0165265 -2.71051e-20 0.00282079 67.0832
-0.0165265 0 0.0028208 55.068
0.0161983 0 0.00436316 1986.98
-0.0161985 -6.77626e-21 0.00436322 1986.83
-0.0166645 -2.71051e-20 0.00194622 43.8335
0.0166645 2.71051e-20 0.00194622 50.7244
0.0165187 5.42101e-20 0.00350445 176.75
-0.0165187 0 0.00350445 162.799
0.0169423 -1.35525e-20 1.10804e-15 868.008
-0.0169424 0 1.1016e-15 867.682
0.0163498 -1.35525e-20 0.00446209 1856.65
-0.0163499 -1.35525e-20 0.00446209 1856.52
0.0169271 0 0.000866322 319.078
-0.0169272 -1.69407e-21 0.000866349 314.799
-0.0168736 1.35525e-20 0.00168494 55.6002
0.0168736 -1.35525e-20 0.00168494 63.0058
0.0164548 1.12938e-21 0.00428001 1673.03
-0.0164548 0 0.00428001 1670.95
0.0168849 0 0.00243442 54.9797
-0.0168849 -1.69407e-21 0.00243442 45.064
-0.0164961 0 0.00455753 1930.57
0.0164962 -1.35525e-20 0.0045576 1930.67
0.0168359 2.25875e-21 0.00316003 100.081
-0.0168359 0 0.00316003 84.5432
-0.0171339 -6.77626e-21 1.75376e-16 657.2
0.0171341 -6.77626e-21 1.78371e-16 657.49
-0.0170775 -2.71051e-20 0.00142436 69.2232
0.0170775 0 0.00142435 75.9572
-0.0171372 -4.06576e-21 0.000271957 647.617
0.0171373 5.42101e-21 0.000272005 647.919
-0.0170666 -2.71051e-20 0.0019255 43.1613
0.0170666 0 0.0019255 50.0119
0.0167863 2.25875e-21 0.00388663 576.709
-0.0167864 1.12938e-21 0.00388663 554.765
-0.0166205 1.35525e-20 0.00463871 2063.54
0.0166206 0 0.00463876 2063.55
-0.0166523 -1.35525e-20 0.00459983 2028.83
0.0166524 0 0.00459991 2028.86
-0.0166794 -1.35525e-20 0.00467709 1805.76
0.0166794 0 0.00467712 1805.97
-0.0168439 -1.41172e-22 0.004335 1272.16
0.0168452 -4.23516e-22 0.00433529 1287.04
-0.0171764 0 0.00277492 39.4553
0.0171764 2.71051e-20 0.00277493 51.5886
0.0174301 0 3.0333e-16 592.137
-0.0174307 -1.35525e-20 3.00572e-16 591.532
-0.0168042 0 0.0046435 1610.77
0.0168042 -1.35525e-20 0.00464355 1611.06
-0.0167886 6.77626e-21 0.00474834 1536.07
0.0167886 -6.77626e-21 0.00474833 1536.38
0.0174491 0 0.000139018 584.031
-0.0174496 0 0.000138437 583.465
0.0171294 0 0.00350657 102.071
-0.0171294 2.71051e-20 0.00350657 78.2799
-0.0175669 -6.77626e-21 -2.94671e-17 609.223
0.0175669 0 -2.95019e-17 609.985
0.0175583 2.11758e-21 0.000896586 323.547
-0.0175584 2.82344e-22 0.000896625 320.512
0.0175189 1.41172e-22 0.00167529 73.5694
-0.0175189 1.41172e-22 0.00167528 69.662
-0.0176062 0 4.62812e-05 543.165
0.0176065 -6.77626e-21 4.65287e-05 543.587
-0.0176089 0 -8.32244e-18 542.784
0.0176092 0 -8.282e-18 543.207
-0.0171399 0 0.00413685 283.695
0.0171399 0 0.00413685 321.925
-0.0176343 0 -4.65435e-18 531.547
0.0176347 0 -4.56016e-18 531.907
-0.0170445 2.71051e-20 0.00462908 1581.06
0.0170445 -2.71051e-20 0.00462909 1581.31
0.0175376 0 0.00228764 51.6116
-0.0175376 0 0.00228764 43.7857
-0.0170023 1.35525e-20 0.00488772 1353.56
0.0170024 2.71051e-20 0.00488778 1353.74
-0.0176972 6.77626e-21 4.73797e-05 502.162
0.0176979 0 4.76325e-05 502.384
-0.0177006 -6.77626e-21 -1.62135e-17 502.225
0.0177013 0 -1.6163e-17 502.448
-0.0174646 1.58113e-21 0.00310782 49.9149
0.0174646 1.58113e-21 0.00310783 66.1707
-0.0171112 -1.35525e-20 0.00481655 1369.38
0.0171113 -1.35525e-20 0.00481662 1369.56
-0.0171346 0 0.00497401 1442.21
0.0171346 -1.35525e-20 0.00497404 1442.43
0.0174342 1.12938e-21 0.00383428 163.694
-0.0174342 0 0.00383428 134.277
-0.0172171 2.71051e-20 0.00502788 1443.15
0.0172172 0 0.0050279 1443.42
-0.0172554 0 0.00493142 1437.68
0.0172555 -2.71051e-20 0.00493146 1437.93
-0.0174076 2.44698e-21 0.00453333 873.306
0.0174076 1.69407e-21 0.00453333 893.322
0.0177905 -5.42101e-20 0.00276844 48.3509
-0.0177905 -2.71051e-20 0.00276844 37.7845
-0.0177573 0 0.00348298 46.4705
0.0177573 2.71051e-20 0.00348298 67.7955
0.017378 0 0.0051328 1528.43
-0.017378 0 0.00513282 1528.22
-0.0174497 0 0.0051796 1494.86
0.0174497 0 0.0051796 1495.04
0.0177264 0 0.00417355 151.282
-0.0177264 2.71051e-20 0.00417356 117.451
-0.0175028 0 0.00510092 1458.09
0.0175028 0 0.00510089 1458.24
-0.0181612 -5.42101e-20 0.00171797 61.8626
0.0181612 -5.42101e-20 0.00171797 59.3678
-0.0175201 6.77626e-21 0.00522551 1516.14
0.0175201 6.77626e-21 0.00522552 1516.35
-0.0182822 -5.42101e-20 0.00051562 303.156
0.0182823 -5.42101e-20 0.000515625 303.739
-0.0181332 0 0.00240535 43.5425
0.0181321 0 0.00240536 49.9768
0.0181317 0 0.00242421 50.0716
-0.0181316 -1.37643e-21 0.00242444 43.4444
0.0176138 3.01167e-21 0.0049468 1284.96
-0.0176138 -1.05409e-20 0.0049468 1279.25
-0.0180947 1.12938e-21 0.00311468 39.8654
0.0180947 -5.64689e-22 0.00311468 53.3166
-0.0180563 2.25875e-21 0.00382342 65.4597
0.0180563 -1.12938e-21 0.00382342 91.586
0.0177083 -1.35525e-20 0.00534825 1655.99
-0.0177083 0 0.00534827 1655.82
0.0177631 0 0.00528871 1610.5
-0.0177632 -1.35525e-20 0.00528871 1610.33
0.0179883 2.25875e-21 0.00454808 419.852
-0.0179883 -2.25875e-21 0.00454808 387.187
0.0178024 -2.71051e-20 0.00540965 1374.05
-0.0178024 0 0.00540968 1373.81
-0.0184402 2.71051e-20 0.00274762 38.1054
0.0184402 0 0.00274762 45.9857
0.0180052 -1.35525e-21 0.00502463 982.462
-0.0180053 -9.03502e-22 0.00502464 963.907
0.0183918 2.71051e-20 0.00345433 51.6197
-0.0183918 0 0.00345433 37.392
0.0179451 6.77626e-21 0.00550275 1067.76
-0.0179452 2.71051e-20 0.0055028 1067.39
0.0183611 -2.71051e-20 0.0041536 94.1825
-0.0183611 0 0.0041536 59.7411
-0.0188422 0 7.03784e-05 280.111
0.0188422 0 7.03242e-05 280.85
-0.0188477 0 1.08476e-18 280.085
0.0188478 0 1.12113e-18 280.823
0.0188602 -2.25875e-21 0.00112833 169.613
-0.0188602 1.12938e-21 0.00112833 173.556
0.0180592 -2.03288e-20 0.00557718 1054.33
-0.0180592 0 0.00557719 1053.99
0.0181347 4.51751e-21 0.00538307 1137.39
-0.0181347 0 0.00538308 1137.09
0.018942 0 6.18177e-19 274.922
-0.018942 0 6.20519e-19 274.151
-0.0188166 2.25875e-21 0.00228404 52.0819
0.0188166 0 0.00228404 51.6222
0.0183535 0 0.00480354 217.549
-0.0183535 -2.71051e-20 0.00480354 176.454
0.0187311 5.64689e-22 0.00307208 47.5536
-0.0187311 4.23516e-22 0.00307209 39.3047
0.0190249 -1.35525e-20 8.51688e-05 269.473
-0.019025 0 8.52501e-05 268.662
0.0190314 0 5.64137e-19 269.399
-0.0190315 0 5.6593e-19 268.587
0.0182204 1.35525e-20 0.00568235 1237.87
-0.0182205 -2.71051e-20 0.00568237 1237.61
0.0187398 3.17637e-22 0.00374577 63.9424
-0.0187398 1.76465e-22 0.00374577 44.3104
0.0186713 -3.38813e-21 0.00447941 127.046
-0.0186713 -5.64689e-21 0.00447941 91.934
0.0183607 2.71051e-20 0.00577387 1190.37
-0.0183608 -1.35525e-20 0.00577391 1190.11
0.018471 5.42101e-21 0.00561102 1256.53
-0.018471 -8.13152e-21 0.00561103 1256.3
0.0186129 2.71051e-21 0.00519726 693.537
-0.0186129 0 0.00519727 666.996
-0.0191646 -2.71051e-20 0.00284903 43.0635
0.0191646 0 0.00284904 45.427
0.0184854 -1.35525e-20 0.00585516 1306.39
-0.0184854 0 0.00585517 1306.08
-0.0191555 2.71051e-20 0.00330159 37.2212
0.0191555 2.71051e-20 0.00330159 44.4227
-0.0190101 -2.71051e-20 0.00412451 39.4069
0.0190101 -2.71051e-20 0.00412451 60.968
0.0185921 0 0.00576697 1396.14
-0.0185922 -1.35525e-20 0.00576697 1395.87
0.0186006 1.35525e-20 0.0059303 1648.8
-0.0186006 0 0.00593032 1648.57
0.0195234 0 0.000571323 246.434
-0.0195235 5.42101e-20 0.000571337 245.468
0.0194631 0 0.00176849 60.7334
-0.0194631 0 0.0017685 75.958
0.0194127 -9.88205e-22 0.00241319 49.9994
-0.0194127 4.23516e-22 0.0024132 53.3199
0.0189749 -2.71051e-20 0.00481042 129.539
-0.0189749 2.71051e-20 0.00481043 86.7917
-0.0193686 -1.35525e-20 0.00306998 39.7591
0.0193686 0 0.00306998 44.1886
0.0188275 4.51751e-21 0.00563325 1193.79
-0.0188275 0 0.00563325 1175.77
0.0187165 1.35525e-20 0.00600598 1554.62
-0.0187166 6.77626e-21 0.006006 1554.37
0.018758 -2.71051e-20 0.00590202 1577.08
-0.0187581 1.35525e-20 0.00590202 1576.85
-0.0193727 5.64689e-22 0.00376105 36.0867
0.0193727 -9.88205e-22 0.00376105 49.2844
0.0190128 2.71051e-20 0.00540895 367.849
-0.0190128 -5.42101e-20 0.00540896 309.006
0.0195979 -2.71051e-20 0.00284199 44.0673
-0.0195979 -2.71051e-20 0.00284199 41.9911
-0.0193152 1.12938e-21 0.00445137 51.2978
0.0193152 4.51751e-21 0.00445137 78.6179
0.0189326 0 0.00587663 1766.48
-0.0189326 2.71051e-20 0.00587663 1766.17
0.0188663 0 0.00610388 1526.68
-0.0188663 6.77626e-21 0.00610386 1526.36
0.0195613 -5.42101e-20 0.00328798 42.5507
-0.0195614 -2.71051e-20 0.00328799 36.9223
0.0189889 0 0.00604039 1536.89
-0.018989 -1.35525e-20 0.00604037 1536.55
-0.0192967 4.51751e-21 0.00511377 147.212
0.0192967 4.51751e-21 0.00511377 190.336
0.0190006 0 0.00619147 1614.2
-0.0190007 0 0.00619146 1613.8
-0.0200621 0 6.76619e-05 242.517
0.0200622 0 6.75697e-05 243.483
-0.020064 -1.35525e-20 4.17779e-20 242.541
0.0200641 0 4.14469e-20 243.507
0.0196641 -2.71051e-20 0.0040803 47.1525
-0.0196641 -2.71051e-20 0.0040803 32.8879
0.0190835 0 0.00626078 1592.8
-0.0190836 0 0.00626078 1592.39
0.0191312 0 0.00616557 1587.61
-0.0191313 1.35525e-20 0.00616556 1587.19
0.0201001 -1.12938e-21 0.00115693 155.167
-0.0201001 -1.12938e-21 0.00115692 161.872
0.020134 0 -1.74266e-22 243.351
-0.020134 -1.35525e-20 -2.54911e-22 242.382
0.0192828 -3.76459e-22 0.00579514 983.669
-0.0192828 -1.50584e-21 0.00579514 961.607
0.0196202 0 0.00477317 76.8436
-0.0196202 0 0.00477317 46.1335
0.020199 0 6.46581e-05 242.137
-0.0201991 0 6.47341e-05 241.151
0.0202019 0 -1.24442e-21 242.132
-0.020202 1.35525e-20 -1.29908e-21 241.145
-0.0200841 -1.12938e-21 0.00236289 58.7263
0.0200841 -4.51751e-21 0.00236289 52.9029
0.0200029 -1.41172e-22 0.00305699 42.5982
-0.0200052 -1.41172e-22 0.00305579 39.4261
0.0192378 0 0.00638365 1577.45
-0.0192378 6.77626e-21 0.00638366 1577
-0.0195959 -2.71051e-20 0.00544033 128.441
0.0195959 2.71051e-20 0.00544033 166.733
0.019304 6.77626e-21 0.00643682 1519.13
-0.019304 6.77626e-21 0.00643682 1518.68
0.0200275 2.25875e-21 0.00361572 42.9688
-0.0200275 -5.64689e-22 0.00361572 34.4515
-0.0193634 6.77626e-21 0.00636554 1485.58
0.0193634 0 0.00636554 1486.03
-0.0193735 1.35525e-20 0.00649741 1553.5
0.0193735 -6.77626e-21 0.00649743 1553.96
0.01996 -1.807e-21 0.00438812 53.0719
-0.01996 9.03502e-22 0.00438812 35.4161
0.0194904 0 0.00622238 1312.79
-0.0194904 7.52918e-21 0.00622238 1308.76
-0.019924 0 0.00509886 68.0216
0.019924 2.25875e-21 0.00509886 99.5738
-0.0195415 0 0.00664815 1629.56
0.0195416 0 0.00664816 1630.05
0.0202851 0 0.004065 40.3493
-0.0202851 0 0.004065 30.7085
-0.0198605 -2.25875e-21 0.00581201 401.417
0.0198605 2.25875e-21 0.005812 430.696
-0.0196164 2.71051e-20 0.00659814 1601.61
0.0196164 0 0.00659815 1602.1
0.0207232 -1.0842e-19 0.00058077 238.948
-0.0207232 0 0.000580774 237.96
-0.0196178 -2.71051e-20 0.00671647 1470.87
0.0196178 0 0.00671648 1471.37
0.020698 0 0.00176855 68.4668
-0.020698 -1.0842e-19 0.00176856 82.5665
0.020263 2.71051e-20 0.00474092 51.883
-0.020263 0 0.00474092 32.5731
-0.0196919 -1.35525e-20 0.00678278 1672.32
0.0196919 -2.71051e-20 0.00678278 1672.66
-0.0197373 0 0.00670395 1639.12
0.0197373 2.71051e-20 0.00670395 1639.49
0.0206519 5.42101e-20 0.0030578 40.8934
-0.0206519 -1.0842e-19 0.0030578 39.4359
-0.0199196 -1.6134e-22 0.00639127 1041.5
0.0199196 2.42009e-22 0.00639127 1055.4
-0.0202264 -2.71051e-20 0.00542437 63.7417
0.0202264 5.42101e-20 0.00542436 101.116
0.0206219 2.82344e-22 0.00375033 38.9769
-0.0206228 0 0.00375114 31.2686
0.0198641 0 0.00693691 1706.18
-0.0198641 0 0.00693695 1705.66
0.0205958 0 0.00438945 42.227
-0.0205958 0 0.00438945 29.262
-0.0202261 0 0.00606703 185.556
0.0202261 0 0.00606702 220.344
-0.019943 -6.77626e-21 0.00700755 1712.18
0.019943 0 0.00700753 1712.74
-0.0200066 6.77626e-21 0.00693928 1674.48
0.0200066 -6.77626e-21 0.00693924 1675.04
0.0205707 2.25875e-21 0.00506212 62.4642
-0.0205707 1.12938e-21 0.00506213 39.6382
-0.0200223 1.35525e-20 0.00707846 1738.89
0.0200223 6.77626e-21 0.00707846 1739.48
-0.0201294 6.02335e-21 0.0068093 1484.67
0.0201294 -7.52918e-21 0.00680928 1487.96
-0.0212882 0 4.76317e-05 237.741
0.0212882 -6.77626e-21 4.75779e-05 238.524
-0.0212888 0 7.04092e-22 237.742
0.0212889 -6.77626e-21 7.21822e-22 238.525
-0.0209335 -2.71051e-20 0.00403737 27.1196
0.0209335 5.42101e-20 0.00403737 36.2872
-0.0205488 -2.25875e-21 0.00572803 93.2435
0.0205489 0 0.00572803 124.863
0.0213388 0 -2.89833e-23 238.498
-0.0213388 0 -2.82201e-23 237.734
0.0213183 2.25875e-21 0.00116254 155.545
-0.0213183 -2.25875e-21 0.00116254 159.578
0.0213863 -6.77626e-21 4.6423e-05 238.413
-0.0213864 -6.77626e-21 4.64739e-05 237.659
0.0213874 0 -2.69e-23 238.412
-0.0213874 0 -2.61667e-23 237.659
0.0208978 -2.71051e-20 0.00471075 40.5744
-0.0208978 -2.71051e-20 0.00471075 26.7349
0.0212954 5.64689e-22 0.00239197 55.7831
-0.0212954 -5.64689e-22 0.00239197 58.2041
-0.0201947 0 0.00723276 1787.82
0.0201949 -1.35525e-20 0.00723272 1788.55
0.0204968 4.51751e-21 0.00642258 488.695
-0.0204968 0 0.00642259 465.906
-0.0202705 0 0.0071837 1757.67
0.0202706 -2.71051e-20 0.00718367 1758.4
-0.0202683 -2.71051e-20 0.00729859 1608.14
0.0202684 0 0.00729853 1608.89
-0.0208996 -2.71051e-20 0.00536219 36.1826
0.0208996 0 0.00536218 57.4537
-0.0203418 -2.71051e-20 0.00736427 1811.8
0.0203419 0 0.00736419 1812.56
-0.0213396 2.25875e-22 0.00363555 29.6162
0.0213396 5.64689e-22 0.00363554 36.7341
-0.0203851 -1.35525e-20 0.00728768 1778
0.0203852 0 0.00728762 1778.77
0.0212333 0 0.00436374 36.4666
-0.0212333 -3.76459e-22 0.00436374 25.8054
-0.0208556 2.71051e-20 0.00604666 84.3369
0.0208556 2.71051e-20 0.00604666 116.608
0.0205628 7.26028e-22 0.0069869 1148.29
-0.0205628 4.03349e-22 0.00698694 1138.37
0.0205131 0 0.00751736 1849.67
-0.0205131 0 0.0075175 1848.84
0.0212965 -1.12938e-21 0.00494792 43.2568
-0.0212965 5.64689e-22 0.00494793 28.6381
-0.0208609 2.71051e-20 0.00667565 215.273
0.0208609 -5.42101e-20 0.00667563 235.269
-0.0205926 -6.77626e-21 0.00758861 1852.52
0.0219386 5.42101e-20 0.000582606 237.979
-0.0219386 0 0.000582607 237.435
0.0205927 0 0.00758853 1853.38
-0.0211971 -3.38813e-21 0.00569346 48.2248
0.0211971 -2.25875e-21 0.00569346 69.4684
-0.0206536 0 0.00752337 1812.39
0.0206537 6.77626e-21 0.00752324 1813.21
0.0219221 0 0.0017777 73.2957
-0.0219221 -5.42101e-20 0.0017777 77.0492
-0.0206735 1.35525e-20 0.00766101 1890.94
0.0206737 6.77626e-21 0.00766099 1891.86
-0.0207725 7.52918e-21 0.00739839 1606.04
0.0207725 1.50584e-21 0.00739832 1609.24
0.0211741 1.12938e-21 0.00634929 136.413
-0.0211741 -1.12938e-21 0.00634931 112.652
0.0219191 -5.42101e-20 0.00301936 39.6243
-0.0219191 0 0.00301937 32.609
0.0215298 2.71051e-20 0.00535617 40.4901
-0.0215298 -2.71051e-20 0.00535617 27.4307
-0.020847 -1.35525e-20 0.00781618 1959.12
0.0208472 0 0.0078161 1960.07
0.0211304 4.51751e-21 0.00702572 528.805
-0.0211304 0 0.00702576 512.804
0.0218756 5.42101e-20 0.00434045 30.2021
-0.0218756 5.42101e-20 0.00434045 22.0759
-0.020919 -1.35525e-20 0.0077704 1929.41
0.0209191 -1.35525e-20 0.00777033 1930.37
0.0215089 -2.71051e-20 0.00600419 64.3003
-0.0215089 -2.71051e-20 0.0060042 45.7309
-0.0209199 -2.71051e-20 0.00788138 1776.61
0.0209201 -2.71051e-20 0.00788126 1777.55
0.0218609 -3.76459e-22 0.00500984 35.3846
-0.0218609 9.41148e-22 0.00500984 24.9382
-0.020991 0 0.00794492 1990.49
0.0209911 0 0.00794476 1991.39
-0.0210297 -2.71051e-20 0.00787228 1956.37
0.0210298 0 0.00787216 1957.28
-0.0214833 0 0.00666115 100.925
0.0214834 0 0.00666112 124.967
0.0211969 0 0.00757908 1266.13
-0.0211969 0 0.00757916 1255.3
-0.0225192 0 3.0342e-05 237.886
0.0225192 -3.38813e-21 3.03161e-05 238.254
-0.0225194 0 -1.06194e-24 237.886
0.0225195 0 -1.08338e-24 238.254
0.0225512 -6.77626e-21 2.57474e-25 238.26
-0.0225512 6.77626e-21 2.59118e-25 237.904
0.0218404 0 0.00566342 45.4333
-0.0218404 -5.64689e-22 0.00566343 32.3825
0.0225415 1.12938e-21 0.00116563 157.412
-0.0225415 5.64689e-22 0.00116563 153.395
0.0225819 0 2.96477e-05 238.246
-0.0225819 -3.38813e-21 2.96717e-05 237.903
0.0225822 0 2.37912e-25 238.246
-0.0225822 0 2.39264e-25 237.903
0.0211521 0 0.00808877 2040.32
-0.021152 6.77626e-21 0.00808902 2039.48
0.0225347 1.12938e-21 0.00238614 56.9937
-0.0225347 1.12938e-21 0.00238615 47.8054
-0.0214889 -2.71051e-20 0.00728092 236.367
0.0214889 2.71051e-20 0.00728086 248.506