# U  POINT_DATA 30177
# x  y  z  U_x  U_y  U_z
0 -0.0199996 6.27196e-08 0 0 0
0 0.0199996 6.27196e-08 0 0 0
6.77626e-21 0.0199996 0.000164428 0 0 0
-6.77626e-21 -0.0199996 0.000164406 0 0 0
0 0.0199996 0.000494301 0 0 0
0 -0.0199996 0.00049425 0 0 0
6.77626e-21 0.0199996 0.00066126 0 0 0
0 -0.0199996 0.000661186 0 0 0
0 0.0199996 0.000837191 0 0 0
-3.38813e-21 -0.0199996 0.000837103 0 0 0
-6.77626e-21 0.0199996 0.00118069 0 0 0
-6.77626e-21 -0.0199996 0.00118063 0 0 0
0 0.0199996 0.00135639 0 0 0
0 -0.0199996 0.0013563 0 0 0
-3.38813e-21 0.0199996 0.0015402 0 0 0
0 -0.0199996 0.00154013 0 0 0
6.77626e-21 0.0200767 6.65771e-05 -1.37073e-06 2.36908e-06 3.13296e-07
-6.77626e-21 -0.0200767 6.65774e-05 -1.19363e-06 -5.12243e-06 3.01281e-06
0 -0.0200781 6.52655e-08 0 0 0
6.77626e-21 0.0200781 6.52653e-08 0 0 0
6.77626e-21 -0.0200799 0.000590145 -1.24256e-06 -5.33242e-06 3.13632e-06
-6.77626e-21 0.0200799 0.000590186 -1.42695e-06 2.46625e-06 3.26147e-07
6.77626e-21 -0.0200759 0.000728686 0.000171002 -0.000285823 -1.11339e-05
6.77626e-21 0.0200759 0.000728732 -7.04693e-05 0.000125805 3.20057e-07
-6.77626e-21 0.0199996 0.00190617 0 0 0
0 -0.0199996 0.00190616 0 0 0
-6.77626e-21 0.0199996 0.002087 0 0 0
6.77626e-21 -0.0199996 0.002087 0 0 0
-6.77626e-21 -0.0200757 0.00127182 0.00017065 -0.000285236 -1.1111e-05
-6.77626e-21 0.0200757 0.00127186 -7.03286e-05 0.000125554 3.19419e-07
0 -0.0200724 0.00141161 0.000163942 -0.000282949 -1.23571e-05
0 0.0200724 0.00141166 -7.1167e-05 0.000129041 -1.21615e-06
6.77626e-21 0.0201349 6.62416e-08 0 0 0
-6.77626e-21 -0.0201349 6.62417e-08 0 0 0
0 -0.0201347 0.00065501 0.00017011 -0.000280626 2.98222e-06
-2.03288e-20 0.0201347 0.000655012 -5.73659e-05 0.000102718 1.30706e-06
0 -0.0200697 0.0019779 0.000157793 -0.000272338 -1.18937e-05
-6.77626e-21 0.0200697 0.0019779 -6.84927e-05 0.000124192 -1.17045e-06
6.77626e-21 -0.0201289 0.00132677 0.000305161 -0.000515814 -6.91081e-06
0 0.0201289 0.00132677 -0.000113813 0.00020681 6.8596e-07
1.35525e-20 -0.0200872 0.00211021 0 0 0
0 0.0200872 0.00211021 0 0 0
0 0.0201043 0.00206081 -6.87002e-05 0.000112724 -2.49993e-06
0 -0.0201043 0.00206081 0.000153773 -0.000241443 -6.99247e-06
0 0.0201291 0.00199353 -0.000105845 0.000188918 -2.7643e-06
-6.77626e-21 -0.0201292 0.00199355 0.000266167 -0.0004479 -1.51876e-05
0 0.0201574 0.00212882 0 0 0
-6.77626e-21 -0.0201575 0.00212883 0 0 0
6.77626e-21 0.020211 0.00203549 -0.000120518 0.000225175 3.41109e-07
-6.77626e-21 -0.020211 0.0020355 0.000265603 -0.000484776 1.64784e-06
2.03288e-20 -0.0203752 7.14254e-08 0 0 0
0 0.0203752 7.14225e-08 0 0 0
1.12938e-21 0.0203552 0.000964466 -0.000270125 0.000518432 2.61122e-06
-6.77626e-22 -0.0203552 0.000964545 0.00069462 -0.00127315 -1.12609e-05
-1.12938e-21 0.0203848 0.000318457 -1.94708e-05 3.68954e-05 -3.80419e-07
-1.807e-21 -0.0203849 0.00031848 5.68731e-05 -9.04497e-05 -1.54544e-06
7.52918e-22 0.0203485 0.00158856 -0.000289274 0.000541935 4.22384e-06
-7.52918e-22 -0.0203485 0.00158862 0.00070272 -0.0012704 6.05489e-06
0 0.0204541 7.18967e-08 0 0 0
-1.69407e-21 -0.0204543 7.19036e-08 0 0 0
1.01644e-20 0.0203479 0.0020921 -9.77368e-05 0.000182611 2.7663e-07
-1.01644e-20 -0.0203479 0.00209209 0.00021545 -0.000393237 1.33669e-06
1.35525e-20 0.0203454 0.00217864 0 0 0
-3.38813e-20 -0.0203455 0.00217865 0 0 0
0 0.0204014 0.00198907 -0.000229134 0.000428112 6.4853e-07
0 -0.0204014 0.00198909 0.000504945 -0.000921621 3.13276e-06
2.71051e-20 -0.0204481 0.00220585 0 0 0
-2.71051e-20 0.0204481 0.00220585 0 0 0
-6.77626e-21 0.0206171 7.35991e-08 0 0 0
0 -0.0206171 7.36088e-08 0 0 0
-6.77626e-21 0.0206345 0.00124176 -0.000478472 0.00088031 6.92183e-06
4.51751e-21 -0.0206345 0.00124188 0.00128268 -0.00221436 -8.98239e-06
-6.77626e-21 -0.0206728 7.48735e-08 0 0 0
0 0.0206729 7.48661e-08 0 0 0
1.35525e-20 -0.0206741 6.9881e-05 -7.96489e-08 -2.59857e-06 -4.04805e-06
6.77626e-21 0.0206742 7.00029e-05 -2.374e-06 3.41891e-06 2.22229e-07
-1.12938e-21 0.0206668 0.000657308 -0.00026221 0.000489944 2.69942e-06
-1.12938e-21 -0.0206668 0.000657428 0.000766432 -0.00135846 -4.45153e-06
2.03288e-21 -0.0206275 0.00169452 0.00113655 -0.00198647 -8.65875e-06
6.77626e-22 0.0206275 0.00169445 -0.000446388 0.000828555 7.43079e-06
0 -0.0205976 0.00224546 0 0 0
1.35525e-20 0.0205976 0.00224546 0 0 0
6.77626e-21 -0.0208219 8.13377e-08 0 0 0
-6.77626e-21 0.0208221 8.134e-08 0 0 0
0 -0.0208462 0.000330913 0.00017835 -0.000387708 -5.55489e-06
0 0.0208462 0.000330886 -8.08472e-06 1.17579e-05 -4.52676e-07
0 0.0208502 0.000953774 -0.000514415 0.000948607 1.03699e-05
1.35525e-20 -0.0208502 0.00095382 0.00140659 -0.00242004 -1.02008e-05
0 0.0208443 0.00153524 -0.000610353 0.00113247 2.35317e-05
-1.35525e-20 -0.0208443 0.00153527 0.00157067 -0.002677 2.0855e-05
5.64689e-22 -0.0208065 0.00198302 0.000943718 -0.00164594 3.90479e-05
-8.47033e-22 0.0208065 0.00198301 -0.000387047 0.000742757 2.746e-05
0 0.0209013 0.00232596 0 0 0
1.35525e-20 -0.0209014 0.00232597 0 0 0
0 0.0210643 9.15077e-05 -1.21063e-06 1.81251e-06 -6.14438e-07
-1.35525e-20 -0.0210643 9.14935e-05 0.000107406 -0.000229213 2.89847e-06
0 0.021067 7.81657e-08 0 0 0
1.35525e-20 -0.021067 7.81689e-08 0 0 0
0 0.0209628 0.00234226 0 0 0
-6.77626e-21 -0.0209629 0.00234226 0 0 0
0 -0.0210006 0.00235227 0 0 0
-6.77626e-21 0.0210007 0.00235228 0 0 0
0 -0.0211368 7.77048e-08 0 0 0
0 0.0211368 7.77005e-08 0 0 0
0 -0.021129 0.00122301 0.00192265 -0.00322797 -2.88395e-05
1.807e-20 0.021129 0.00122301 -0.000682121 0.00126743 1.57968e-05
-5.80823e-21 -0.0211316 0.00168768 0.00180552 -0.00300771 -5.96067e-05
5.80823e-21 0.0211316 0.00168768 -0.000675363 0.00125273 1.04794e-05
3.38813e-21 -0.0210927 0.00225836 0.000449982 -0.000785792 -1.92233e-05
0 0.0210929 0.00225827 -0.000173548 0.000334649 1.29939e-06
0 -0.0212074 0.000639288 0.00122946 -0.00205505 3.05906e-06
2.25875e-21 0.0212074 0.000639306 -0.000350598 0.000648712 7.01879e-06
0 -0.0212432 6.9494e-08 0 0 0
0 0.0212432 6.94876e-08 0 0 0
6.77626e-21 -0.0212484 0.000106495 0.000255394 -0.000425505 1.75272e-06
-6.77626e-21 0.0212484 0.000106533 -1.48225e-06 2.66555e-06 1.18647e-06
-3.38813e-21 -0.0211906 0.00240261 0 0 0
-3.38813e-21 0.0211908 0.00240268 0 0 0
1.12938e-21 0.0213439 0.00202515 -0.000586576 0.00113798 1.05796e-05
-3.38813e-21 -0.0213439 0.00202511 0.00153821 -0.00266632 -5.60901e-05
6.77626e-21 -0.021371 0.00245038 0 0 0
0 0.021371 0.00245038 0 0 0
-6.77626e-21 -0.0213837 0.00242604 0.000157189 -0.000251441 -6.79721e-06
0 0.0213837 0.00242606 -6.26857e-05 0.000112736 1.88082e-06
-2.25875e-21 -0.0214676 0.00151463 0.00239691 -0.00411819 -5.59536e-05
-2.25875e-21 0.0214676 0.00151468 -0.000859376 0.00166448 2.14128e-05
-9.03502e-21 -0.0215176 0.000962595 0.00212091 -0.0036461 -2.42158e-05
2.25875e-21 0.0215177 0.000962668 -0.000690291 0.00133201 -2.18065e-06
1.35525e-20 -0.0215442 0.000394974 0.000868706 -0.00140828 -2.94204e-07
2.71051e-21 0.0215442 0.000395021 -0.000114452 0.000210173 5.11512e-06
6.77626e-21 0.0214146 0.00239572 -8.93035e-05 0.000181859 4.63937e-06
0 -0.0214146 0.00239566 0.000245755 -0.000417409 -7.6179e-06
0 0.0214165 0.00246241 0 0 0
0 -0.0214166 0.00246244 0 0 0
1.35525e-20 0.0216582 0.000128728 -1.79205e-06 3.22267e-06 1.43445e-06
-1.35525e-20 -0.0216582 0.000128716 0.000308853 -0.000514572 2.1196e-06
1.35525e-20 0.021662 1.14539e-08 0 0 0
1.35525e-20 -0.021662 1.14538e-08 0 0 0
0 -0.0217415 0.00061236 0.00157479 -0.00263022 1.46044e-06
0 0.0217415 0.000612448 -0.000400912 0.000763234 6.7652e-06
0 -0.021737 0.00121888 0.00261872 -0.00443015 -4.72022e-05
0 0.021737 0.00121897 -0.00087115 0.0016802 1.94832e-05
-3.38813e-20 0.0216411 0.00252171 0 0 0
2.03288e-20 -0.0216411 0.00252171 0 0 0
-1.35525e-20 0.02179 2.37922e-09 0 0 0
0 -0.02179 2.37986e-09 0 0 0
-2.71051e-20 -0.02171 0.00187069 0.00220475 -0.00372237 -8.22043e-05
0 0.02171 0.00187073 -0.000790109 0.00154826 2.53415e-05
-1.12938e-21 0.0216778 0.00229011 -0.000415354 0.000897664 1.21179e-05
3.76459e-22 -0.0216778 0.00229006 0.00109759 -0.0020079 -4.83088e-05
1.35525e-20 -0.0219185 2.30167e-09 0 0 0
0 0.0219185 2.30112e-09 0 0 0
1.35525e-20 -0.0219202 0.000137039 0.000487202 -0.000793848 -1.44566e-06
0 0.0219202 0.000137059 -2.15444e-06 3.75272e-06 1.36672e-07
1.35525e-20 -0.0218193 0.00256902 0 0 0
0 0.0218193 0.00256904 0 0 0
-5.42101e-21 -0.0219845 0.000395978 0.00110564 -0.00183076 2.71559e-06
0 0.0219845 0.000396036 -0.00010907 0.000201109 2.57675e-06
0 0.0219638 0.00229023 -0.000536476 0.00111024 2.93616e-05
-1.12938e-21 -0.0219638 0.00229019 0.00149965 -0.00257196 -5.24384e-05
0 -0.022074 0.000916584 0.00264472 -0.00450553 -3.76919e-05
1.12938e-20 0.022074 0.000916678 -0.000808603 0.00157796 9.40404e-06
0 0.0219561 0.00252866 -0.000144599 0.00031577 1.15589e-05
0 -0.0219561 0.00252862 0.000427964 -0.00072075 -2.10568e-05
-1.12938e-20 -0.0220578 0.00154554 0.00316113 -0.00539058 -3.78173e-05
-4.51751e-21 0.0220578 0.00154561 -0.0010883 0.00214824 5.50167e-05
-6.77626e-21 0.0219646 0.00260748 0 0 0
6.77626e-21 -0.0219646 0.00260749 0 0 0
-9.03502e-21 -0.0220661 0.00204937 0.00233522 -0.00397086 -6.66004e-05
-9.03502e-21 0.0220661 0.00204941 -0.000811469 0.00166593 4.56655e-05
0 0.0222375 0.000149296 -2.34679e-06 4.08776e-06 1.48874e-07
0 -0.0222375 0.000149275 0.000530699 -0.000864723 -1.57473e-06
0 0.0222467 3.22447e-09 0 0 0
1.35525e-20 -0.0222467 3.22463e-09 0 0 0
0 -0.0221409 0.00250159 0.00085762 -0.00143143 -3.70306e-05
-5.42101e-21 0.0221409 0.00250164 -0.000299203 0.000621485 2.13332e-05
1.35525e-20 -0.0221239 0.0026495 0 0 0
-1.35525e-20 0.022124 0.00264953 0 0 0
-7.7443e-21 -0.0223263 0.000544462 0.00166512 -0.00281442 -1.36229e-05
-7.7443e-21 0.0223263 0.000544533 -0.000291436 0.00058955 2.9662e-06
-2.71051e-20 -0.0223861 3.1175e-09 0 0 0
1.35525e-20 0.0223861 3.11743e-09 0 0 0
-2.71051e-20 -0.0223888 0.00123042 0.00332404 -0.00566959 -5.13766e-05
-2.71051e-20 0.0223888 0.00123052 -0.00103755 0.00211939 3.62787e-05
0 -0.022362 0.00189325 0.00299305 -0.00505123 -7.97717e-05
-2.71051e-20 0.0223621 0.00189332 -0.00100146 0.00207244 6.43422e-05
0 -0.022297 0.00269531 0 0 0
0 0.0222971 0.00269532 0 0 0
0 0.0223597 0.00232905 -0.000652818 0.00136007 5.08269e-05
-1.41172e-22 -0.0223597 0.00232902 0.00192881 -0.00323902 -6.29255e-05
0 -0.0225373 3.03017e-09 0 0 0
-1.35525e-20 0.0225373 3.03008e-09 0 0 0
0 -0.0225385 0.000146314 0.000631338 -0.00104562 9.36839e-07
-1.35525e-20 0.0225385 0.00014633 -1.9488e-06 4.06458e-06 5.73888e-07
-2.25875e-21 -0.0227012 0.000916189 0.00320634 -0.00543192 -3.32117e-05
-9.03502e-21 0.0227012 0.000916249 -0.000873221 0.00180501 1.25296e-05
0 -0.0226844 0.00155924 0.00387214 -0.00655045 -6.88171e-05
4.51751e-21 0.0226844 0.0015593 -0.0012157 0.00253073 6.9306e-05
-9.03502e-21 -0.0227492 0.000352729 0.00131533 -0.00220216 -4.33915e-06
9.03502e-21 0.0227492 0.000352757 -0.000119701 0.000245254 1.54012e-06
-1.52466e-20 0.0226133 0.00278009 0 0 0
1.56701e-20 -0.0226135 0.00278015 0 0 0
1.69407e-21 -0.0226203 0.00278197 0 0 0
-1.99053e-20 0.0226205 0.00278201 0 0 0
0 -0.0227193 0.00214001 0.00301854 -0.00509757 -0.000102911
9.03502e-21 0.0227194 0.00214006 -0.000970783 0.00208505 8.25925e-05
-9.03502e-21 -0.0226787 0.00257543 0.00133265 -0.00228003 -2.01746e-05
0 0.0226787 0.00257546 -0.000430538 0.000955044 5.66102e-05
2.71051e-20 -0.0228459 3.0686e-09 0 0 0
-1.35525e-20 0.0228459 3.06837e-09 0 0 0
-2.71051e-20 -0.0230054 2.97292e-09 0 0 0
2.71051e-20 0.0230055 2.97266e-09 0 0 0
0 -0.0230123 0.000602124 0.00240671 -0.00407754 -2.70015e-05
0 0.0230123 0.000602154 -0.000476538 0.0010066 1.26226e-06
0 -0.023008 0.00123188 0.00396819 -0.00674057 -8.07835e-05
0 0.023008 0.00123192 -0.00113878 0.0024245 3.93533e-05
2.71051e-20 -0.0229678 0.00191423 0.00373361 -0.00629298 -0.000133543
2.71051e-20 0.0229679 0.00191427 -0.00115079 0.00250262 8.62211e-05
2.71051e-20 -0.0229065 0.00285905 0 0 0
0 0.0229066 0.00285905 0 0 0
2.71051e-20 -0.0230244 0.00241843 0.00250168 -0.00415652 -0.000110658
0 0.0230245 0.00241845 -0.000772287 0.00172307 8.21818e-05
0 -0.0231706 2.61992e-09 0 0 0
0 0.0231707 2.61967e-09 0 0 0
-6.77626e-21 -0.0232775 0.000961994 0.00379689 -0.00643249 -6.50943e-05
-6.77626e-21 0.0232775 0.000961998 -0.000965636 0.0020798 1.06411e-05
-1.35525e-20 -0.0231293 0.00291865 0 0 0
0 0.0231295 0.00291871 0 0 0
0 -0.0233249 0.000300658 0.00133816 -0.00226325 -7.20338e-06
-4.51751e-21 0.023325 0.000300662 -0.000100799 0.000213205 1.53513e-06
4.51751e-21 -0.02332 0.00155442 0.00461331 -0.00778315 -0.000137688
-1.12938e-20 0.0233201 0.00155442 -0.00131789 0.0028836 7.82261e-05
-2.25875e-21 -0.0233274 0.00215907 0.00390939 -0.00650624 -0.000159096
6.77626e-21 0.0233275 0.00215911 -0.00114995 0.0025577 0.000114085
-4.51751e-22 -0.023274 0.00268504 0.00178893 -0.00276456 -6.2822e-05
6.77626e-22 0.023274 0.00268509 -0.000529176 0.00114888 7.3459e-05
0 -0.023471 1.49911e-09 0 0 0
-1.35525e-20 0.023471 1.49901e-09 0 0 0
-6.77626e-21 0.0233567 0.00297983 0 0 0
6.77626e-21 -0.0233572 0.00297997 0 0 0
0 -0.0236362 1.14284e-09 0 0 0
2.71051e-20 0.0236362 1.14275e-09 0 0 0
0 -0.0236942 0.000643715 0.00293457 -0.00499381 -4.05876e-05
9.03502e-21 0.0236943 0.000643673 -0.000565294 0.00124195 2.52149e-08
0 -0.0235249 0.00302491 0 0 0
-1.35525e-20 0.0235249 0.0030249 0 0 0
0 0.0236288 0.00246502 -0.000896425 0.00208798 0.000117786
0 -0.0236288 0.002465 0.00318544 -0.00520276 -0.000172849
0 -0.0237458 0.00121881 0.00469184 -0.007971 -0.000117545
0 0.0237458 0.00121876 -0.00120086 0.0026995 4.71768e-05
-2.12968e-20 0.0237119 0.001791 -0.00135 0.0030884 0.000110984
-1.16165e-20 -0.0237119 0.00179099 0.00495885 -0.00836528 -0.000182387
-1.35525e-20 -0.0238006 1.02424e-09 0 0 0
-1.35525e-20 0.0238007 1.02415e-09 0 0 0
-1.35525e-20 -0.0236226 0.00305129 0 0 0
0 0.0236229 0.00305137 0 0 0
-1.89735e-20 -0.0238637 0.000205253 0.00101431 -0.00174176 -4.29674e-07
-8.13152e-21 0.0238637 0.000205233 -3.24322e-06 5.53001e-06 2.27021e-06
1.35525e-20 0.0238647 0.0021658 -0.00125738 0.00293197 0.000149833
9.03502e-21 -0.0238647 0.00216579 0.00461989 -0.00767547 -0.000227909
-2.71051e-20 -0.0239679 0.000898007 0.00429998 -0.00733735 -7.43126e-05
-2.71051e-20 0.0239679 0.000897928 -0.000996039 0.00224039 -3.18992e-06
-6.35275e-22 -0.0238497 0.00276261 0.00244493 -0.00384002 -0.000133616
0 0.0238551 0.00276337 -0.00063763 0.00153517 0.000109666
0 -0.0239683 0.00153372 0.00547855 -0.00928821 -0.000179339
0 0.0239683 0.00153368 -0.00142824 0.00329998 0.000103138
-5.92923e-21 -0.0238695 0.00276832 0.00246714 -0.00387814 -0.00013647
8.36445e-21 0.0238703 0.00276773 -0.000640059 0.00154531 0.000110586
1.37643e-21 0.0238743 0.0027737 -0.000626758 0.00151296 0.000108312
4.44692e-21 -0.0238747 0.00277615 0.00240012 -0.00377203 -0.000132625
-2.71051e-20 0.024114 6.40622e-10 0 0 0
1.35525e-20 -0.024114 6.40669e-10 0 0 0
0 -0.0241188 0.00014417 0.00074599 -0.00128282 9.0952e-08
0 0.0241188 0.000144162 -2.38894e-06 3.95311e-06 1.80081e-06
0 0.023916 0.00312978 0 0 0
0 -0.0239162 0.00312984 0 0 0
-6.77626e-21 -0.0239639 0.00314272 0 0 0
-2.71051e-20 0.0239641 0.00314276 0 0 0
0 -0.0242749 5.21783e-10 0 0 0
0 0.0242749 5.21731e-10 0 0 0
9.03502e-21 -0.0242836 0.000581065 0.00292585 -0.00503315 -4.20485e-05
2.25875e-21 0.0242836 0.000580992 -0.000492852 0.00112078 2.16102e-06
9.03502e-21 -0.0242888 0.00120263 0.00507911 -0.00867526 -0.000150842
2.25875e-21 0.0242888 0.00120255 -0.00121882 0.00283242 5.69446e-05
4.51751e-21 -0.0242868 0.00186242 0.00552362 -0.00927229 -0.000257869
2.25875e-21 0.0242868 0.00186238 -0.00140853 0.00335206 0.000151762
-4.23516e-22 -0.0241617 0.00319553 0 0 0
-4.23516e-22 0.0241636 0.00319606 0 0 0
-1.60936e-20 0.0241859 0.00320201 0 0 0
2.03288e-20 -0.0241859 0.00320202 0 0 0
-2.96462e-21 0.024188 0.00319341 -1.61111e-05 4.57417e-05 3.50098e-06
2.5411e-21 -0.0241882 0.00319265 7.20149e-05 -0.000119206 -5.55002e-06
0 -0.0244313 0.000134568 0.000713319 -0.00125854 5.91072e-06
-1.35525e-20 0.0244313 0.000134562 -2.42154e-06 4.04527e-06 5.19491e-07
-1.35525e-20 -0.0244331 4.67577e-10 0 0 0
-1.35525e-20 0.0244331 4.67521e-10 0 0 0
2.25875e-21 0.0243347 0.00249909 -0.00103345 0.00256512 0.000165576
-1.58113e-20 -0.0243348 0.00249899 0.00408581 -0.00666436 -0.000270067
0 -0.0242968 0.00292754 0.00208576 -0.00341578 -0.000160276
-4.51751e-21 0.0242969 0.00292753 -0.00050996 0.00138004 0.000101076
-6.77626e-21 -0.0243689 0.00315158 0.000716684 -0.00118633 -5.52331e-05
6.77626e-21 0.0243692 0.00315214 -0.00017379 0.000493413 3.77649e-05
-2.71051e-20 -0.0246008 0.000284734 0.00147683 -0.00259447 7.52816e-06
-2.71051e-20 0.0246009 0.000284687 -4.8082e-06 8.62596e-06 8.06229e-07
0 -0.0243969 0.00325839 0 0 0
0 0.0243971 0.00325844 0 0 0
0 -0.0246107 0.000878663 0.00458108 -0.00788575 -0.000101538
0 0.0246107 0.000878579 -0.00099821 0.00229949 9.61434e-06
-2.71051e-20 0.0246166 0.00151534 -0.00146321 0.00351944 0.000121865
2.71051e-20 -0.0246166 0.0015154 0.0060204 -0.0102941 -0.000252571
0 0.0244714 0.00314468 -0.000224 0.000622023 5.06189e-05
0 -0.0244716 0.0031441 0.000969384 -0.0015465 -9.01278e-05
3.38813e-21 0.0245037 0.00290524 -0.000613241 0.00162833 0.000123912
6.77626e-21 -0.0245038 0.00290534 0.00258652 -0.00413224 -0.000226049
6.77626e-21 0.0244779 0.00323338 -7.48959e-05 0.000241233 2.57142e-05
0 -0.0244781 0.00323321 0.000371225 -0.000577009 -4.00455e-05
6.77626e-21 0.0244842 0.00328166 0 0 0
0 -0.0244845 0.00328173 0 0 0
2.71051e-20 -0.0246092 0.00219461 0.00580793 -0.00957214 -0.000350771
0 0.0246092 0.00219461 -0.00143801 0.00353783 0.000219825
1.35525e-20 -0.0247622 2.53333e-10 0 0 0
2.71051e-20 0.0247622 2.53306e-10 0 0 0
1.35525e-20 -0.0247664 0.000132515 0.00070244 -0.00123934 5.82057e-06
0 0.0247664 0.000132509 -2.3846e-06 3.98357e-06 5.11567e-07
0 0.0246221 0.00297551 -0.000571957 0.00153263 0.000122397
-6.77626e-21 -0.0246221 0.00297544 0.00247317 -0.00389406 -0.000240909
0 -0.0249174 1.98984e-10 0 0 0
1.35525e-20 0.0249175 1.98951e-10 0 0 0
-2.71051e-20 -0.0247046 0.00334037 0 0 0
-1.35525e-20 0.0247048 0.00334043 0 0 0
2.25875e-21 -0.0249272 0.000565998 0.00304713 -0.00528033 -5.79261e-05
-4.51751e-21 0.0249272 0.00056594 -0.000482585 0.0011416 7.49496e-06
6.77626e-21 0.0249353 0.00118348 -0.00123334 0.00296422 7.25977e-05
4.51751e-21 -0.0249353 0.00118355 0.00546979 -0.0093925 -0.000209811
0 -0.0247706 0.00325114 0.000847075 -0.00131664 -9.13776e-05
-1.35525e-20 0.0247708 0.0032513 -0.00017155 0.000552548 5.88986e-05
6.77626e-21 -0.0249331 0.00185459 0.00623572 -0.0104639 -0.000338171
4.51751e-21 0.0249331 0.00185457 -0.00148808 0.00367577 0.000188594
-9.03502e-21 0.0249123 0.00254806 -0.0011346 0.00294708 0.000219111
0 -0.0249123 0.00254799 0.00482904 -0.00783071 -0.000361171
0 -0.02507 0.000129703 0.000717151 -0.00121514 1.23668e-05
0 0.02507 0.000129703 -1.8722e-06 4.70243e-06 -4.63418e-07
2.71051e-20 -0.0250722 1.7145e-10 0 0 0
4.06576e-20 0.0250723 1.7142e-10 0 0 0
-2.71051e-20 -0.024868 0.00338391 0 0 0
0 0.024868 0.00338392 0 0 0
-2.71051e-21 -0.0249657 0.00300265 0.00292186 -0.00457534 -0.000290167
2.25875e-21 0.0249658 0.00300271 -0.00063763 0.00178541 0.000162431
0 -0.0252401 0.000277386 0.00150862 -0.00257518 1.60211e-05
0 0.0252401 0.000277365 -4.01275e-06 9.69623e-06 -9.28744e-07
0 0.0252519 0.000862099 -0.00096654 0.00235119 2.21618e-05
-2.71051e-20 -0.0252519 0.00086215 0.00478927 -0.00834235 -0.000158599
-2.71051e-20 0.025258 0.00150133 -0.0015182 0.00372385 0.000140736
0 -0.0252581 0.00150136 0.00655718 -0.01116 -0.000333147
1.35525e-20 0.0250939 0.00344404 0 0 0
-6.77626e-21 -0.025094 0.00344409 0 0 0
2.71051e-20 -0.0252521 0.00218276 0.00662434 -0.0109473 -0.000420549
0 0.0252521 0.00218278 -0.0015416 0.00394839 0.000273398
0 -0.0253959 6.8222e-11 0 0 0
-1.35525e-20 0.0253959 6.82125e-11 0 0 0
2.71051e-20 -0.0254017 0.000130131 0.000719518 -0.00121916 1.24076e-05
-1.35525e-20 0.0254017 0.000130132 -1.8784e-06 4.71801e-06 -4.64954e-07
2.71051e-20 -0.0252837 0.00277308 0.00485605 -0.00765469 -0.000445655
0 0.0252837 0.00277313 -0.00105964 0.00290034 0.000267924
0 -0.0252272 0.00330837 0.00145502 -0.00211797 -0.000183155
-9.03502e-21 0.0252273 0.0033085 -0.000283081 0.00084894 0.000102424
1.35525e-20 -0.0252594 0.00348814 0 0 0
1.35525e-20 0.0252598 0.00348825 0 0 0
-2.71051e-20 -0.0255539 4.13586e-11 0 0 0
0 0.0255539 4.13515e-11 0 0 0
-2.25875e-21 -0.0255655 0.000552669 0.00313898 -0.00543158 -7.63478e-05
0 0.0255655 0.000552643 -0.000459015 0.00115275 1.19537e-05
2.25875e-21 0.0255758 0.00116696 -0.00123138 0.00308499 8.85527e-05
-9.03502e-21 -0.0255758 0.00116699 0.00580935 -0.00997446 -0.000254513
-1.12938e-21 -0.0255762 0.00184005 0.00690673 -0.011537 -0.000391517
2.25875e-21 0.0255762 0.00184006 -0.0015591 0.00398608 0.000227281
2.25875e-21 -0.0255826 0.00249894 0.00616264 -0.00990793 -0.000462537
-4.51751e-21 0.0255826 0.00249898 -0.00134972 0.00362322 0.000309831
1.35525e-20 -0.0257081 0.000131346 0.000763544 -0.00124822 9.02376e-06
-1.35525e-20 0.0257081 0.000131355 -1.60552e-06 4.93625e-06 -1.21761e-06
-1.35525e-20 -0.0257119 3.5178e-11 0 0 0
-1.35525e-20 0.0257119 3.51714e-11 0 0 0
-2.71051e-20 -0.0254803 0.00354696 0 0 0
-2.71051e-20 0.0254805 0.00354701 0 0 0
-1.88079e-37 -0.0255731 0.00306885 0.00379644 -0.00578875 -0.000373733
-3.38813e-21 0.0255732 0.00306889 -0.000760034 0.00220065 0.00024197
1.35525e-20 -0.0258709 0.000270959 0.00155181 -0.00257782 1.10339e-05
2.71051e-20 0.0258709 0.000270951 -3.46126e-06 9.79651e-06 -1.6696e-06
0 0.0258866 0.000847023 -0.00091998 0.00238243 2.93129e-05
-2.71051e-20 -0.0258866 0.000847041 0.00494233 -0.00862726 -0.000184541
2.71051e-20 -0.0258956 0.00148572 0.00703157 -0.0118994 -0.000350931
2.71051e-20 0.0258956 0.00148572 -0.00153827 0.00393009 0.000167334
3.38813e-21 0.025711 0.00360842 0 0 0
0 -0.0257111 0.00360845 0 0 0
0 -0.0258953 0.00216728 0.00744508 -0.0121938 -0.000467231
-2.71051e-20 0.0258953 0.0021673 -0.00164153 0.00435346 0.000327988
0 0.0260182 1.43804e-11 0 0 0
0 -0.0260182 1.43794e-11 0 0 0
3.38813e-21 -0.0257706 0.00362429 0 0 0
-1.01644e-20 0.0257711 0.00362443 0 0 0
1.35525e-20 0.0260277 0.000129341 -1.58089e-06 4.86054e-06 -1.19893e-06
-2.71051e-20 -0.0260277 0.000129326 0.000751799 -0.00122902 8.88496e-06
9.03502e-21 -0.0258189 0.00342152 0.0020242 -0.00288443 -0.000231019
-4.51751e-21 0.025819 0.00342167 -0.000341474 0.0011251 0.000151758
0 -0.0259036 0.00281595 0.00596389 -0.00924477 -0.000528644
0 0.0259037 0.002816 -0.00121319 0.00343437 0.000376942
-1.35525e-20 -0.0261762 8.33893e-12 0 0 0
0 0.0261762 8.34033e-12 0 0 0
4.51751e-21 -0.0261907 0.000536281 0.00314069 -0.0055313 -9.27872e-05
-4.51751e-21 0.0261907 0.000536273 -0.000424328 0.00113516 9.23307e-06
2.25875e-21 -0.0262092 0.00114375 0.006032 -0.0103981 -0.000269438
-1.12938e-21 0.0262092 0.00114374 -0.00119464 0.00315808 9.49098e-05
0 -0.0260128 0.00368881 0 0 0
0 0.0260131 0.00368888 0 0 0
1.12938e-21 -0.0262149 0.00181929 0.0074853 -0.0125091 -0.000414231
-1.12938e-21 0.026215 0.00181931 -0.00159123 0.00427015 0.000266126
1.35525e-20 -0.0263228 0.000121185 0.000661686 -0.0012629 -1.23738e-05
0 0.0263228 0.000121207 -9.12197e-07 2.68373e-06 2.67285e-06
-2.71051e-20 -0.0263263 7.17909e-12 0 0 0
-1.35525e-20 0.0263263 7.18003e-12 0 0 0
-2.25875e-21 -0.0262139 0.00250557 0.00714475 -0.0114281 -0.000500457
0 0.0262139 0.0025056 -0.00145752 0.00411024 0.000395465
0 -0.0261379 0.00372349 0 0 0
1.35525e-20 0.026138 0.00372353 0 0 0
0 -0.0261645 0.00360603 0.00123454 -0.00188759 -0.000146026
1.35525e-20 0.0261645 0.00360614 -0.000182516 0.000773827 0.000112548
3.76459e-22 -0.0262301 0.00320871 0.00430318 -0.00650647 -0.000382312
-2.63521e-21 0.0262302 0.00320874 -0.000760584 0.00244651 0.000323477
0 0.0264876 0.000258964 -2.51708e-06 6.42981e-06 5.47391e-06
0 -0.0264876 0.000258966 0.00142616 -0.00268135 -2.42522e-05
0 0.0265116 0.000819292 -0.00083622 0.00230648 4.49368e-06
0 -0.0265116 0.000819294 0.00493007 -0.00872416 -0.000185811
0 -0.0265313 0.00145489 0.00732634 -0.0125011 -0.00036779
-2.71051e-20 0.0265313 0.00145489 -0.00150423 0.00406884 0.000186455
1.35525e-20 0.026307 0.00376735 0 0 0
-6.77626e-21 -0.0263071 0.00376735 0 0 0
2.71051e-20 -0.0265288 0.0021494 0.0081406 -0.0134476 -0.000476679
0 0.0265288 0.00214943 -0.00167997 0.00472766 0.000382166
0 0.0266623 2.30403e-12 0 0 0
0 -0.0266624 2.30216e-12 0 0 0
0 0.0266707 0.000106434 -8.01015e-07 2.35663e-06 2.34707e-06
0 -0.0266707 0.000106397 0.000580943 -0.0011088 -1.08639e-05
0 -0.0265278 0.00283341 0.00720339 -0.0111465 -0.000534346
0 0.0265278 0.00283345 -0.00133883 0.00404238 0.000498113
0 -0.0264226 0.00379805 0 0 0
6.77626e-21 0.0264228 0.00379811 0 0 0
-2.25875e-21 -0.0265365 0.00359663 0.00239529 -0.00345578 -0.000272798
4.51751e-21 0.0265366 0.00359666 -0.000315545 0.00131848 0.000226998
1.35525e-20 0.0267959 1.18763e-12 0 0 0
1.35525e-20 -0.0267959 1.18628e-12 0 0 0
6.77626e-21 0.0268045 0.000501528 -0.000377556 0.00107254 -1.46478e-05
-1.12938e-21 -0.0268045 0.000501531 0.00285501 -0.00525645 -0.000149158
-2.25875e-21 0.0268426 0.00108835 -0.00112658 0.00313766 6.57776e-05
-1.12938e-21 -0.0268426 0.00108835 0.00594139 -0.0104276 -0.000297528
-2.71051e-20 -0.0269065 8.39027e-05 0.000292398 -0.000600628 -2.82952e-05
0 0.0269065 8.3938e-05 1.15848e-06 6.04618e-06 7.95824e-06
0 -0.0269105 1.09903e-12 0 0 0
1.35525e-20 0.0269105 1.10016e-12 0 0 0
5.64689e-22 -0.0268569 0.00177537 0.00783059 -0.0131969 -0.000395328
-3.38813e-21 0.0268569 0.00177538 -0.00159898 0.00451346 0.000289512
-2.25875e-21 -0.0268455 0.00249655 0.00800778 -0.01285 -0.000489429
-3.38813e-21 0.0268455 0.00249657 -0.00154796 0.00459876 0.000476494
0 -0.0268309 0.00322459 0.00547948 -0.00825254 -0.000419235
-7.67977e-21 0.0268309 0.00322463 -0.000905337 0.00304577 0.000456255
0 0.0267575 0.00386117 -3.34823e-05 0.000141636 2.44273e-05
-8.47033e-22 -0.0267577 0.00386154 0.000259916 -0.000371583 -3.07874e-05
0 0.0267685 0.00388946 0 0 0
0 -0.0267686 0.00388947 0 0 0
-1.69407e-21 -0.0267817 0.00389295 0 0 0
0 0.0267818 0.00389298 0 0 0
1.69407e-21 -0.0267895 0.00389519 0 0 0
0 0.0267897 0.00389526 0 0 0
8.47033e-22 -0.0267977 0.00388305 0.00017386 -0.000237421 -2.07371e-05
0 0.026798 0.00388297 -2.17228e-05 8.3698e-05 1.58945e-05
-6.77626e-21 -0.0268077 0.00390073 0 0 0
-1.69407e-21 0.0268081 0.00390087 0 0 0
-2.71051e-20 0.0270953 0.000231001 2.99343e-07 1.30648e-05 1.70487e-05
0 -0.0270953 0.000231002 0.000906224 -0.0018611 -5.66327e-05
-2.71051e-20 0.0271307 0.000745292 -0.000734519 0.00211979 -8.42392e-05
0 -0.0271307 0.000745291 0.00444972 -0.00825082 -0.000339516
-5.42101e-20 0.0271875 0.00136731 -0.00145185 0.00412817 0.000165998
2.71051e-20 -0.0271875 0.00136731 0.00718707 -0.0124507 -0.000318038
-2.71051e-20 0.0271699 0.00211433 -0.00175574 0.00512355 0.000419333
0 -0.0271699 0.00211432 0.0086403 -0.0143577 -0.000422315
1.93608e-21 -0.0270374 0.00364693 0.00367443 -0.00519946 -0.000375128
-1.16165e-20 0.0270375 0.00364697 -0.000480224 0.00188794 0.00036973
0 -0.0271534 0.00283785 0.00814651 -0.0126555 -0.000525135
0 0.0271534 0.00283788 -0.00144446 0.00457552 0.000605944
0 0.0273865 0.000433223 -0.000234191 0.000723627 -2.51391e-05
0 -0.0273866 0.000433225 0.00232188 -0.00452525 -0.000153081
-1.35525e-20 -0.0272025 0.00404243 0 0 0
0 0.0272026 0.00404247 0 0 0
0 0.0275132 1.10792e-13 2.01101e-08 1.11779e-07 7.45289e-10
0 -0.0275208 1.06274e-13 5.91856e-06 -1.29014e-05 -6.93481e-07
0 -0.0275278 1.055e-13 0 0 0
0 0.027528 1.05214e-13 0 0 0
-2.63521e-21 -0.0275176 0.00087612 0.00479737 -0.00867577 -0.000259214
-5.64689e-22 0.0275176 0.000876116 -0.000795274 0.0024088 1.67612e-05
-4.23516e-22 -0.0275404 1.84884e-05 9.22039e-05 -0.000193877 -3.57745e-06
0 0.027541 1.89916e-05 -2.93083e-07 2.90443e-06 1.21726e-06
2.71051e-20 -0.0272668 0.00395785 0.00117169 -0.00169806 -0.000114985
1.35525e-20 0.0272669 0.00395792 -0.000128528 0.000646621 0.00016271
7.05861e-23 0.0275074 0.00171411 -0.00158589 0.00470754 0.000264732
-2.11758e-22 -0.0275075 0.00171411 0.00798044 -0.013485 -0.000346331
0 -0.0274756 0.00248008 0.00872483 -0.0139847 -0.000402053
4.51751e-21 0.0274756 0.00248009 -0.00162895 0.00505269 0.000546533
0 -0.0274313 0.00322718 0.00677689 -0.0103026 -0.000378094
0 0.0274313 0.00322722 -0.00106545 0.00373403 0.000601311
1.35525e-20 -0.0273528 0.00409794 0 0 0
0 0.0273528 0.00409795 0 0 0
-9.03502e-22 -0.0274774 0.00369777 0.004358 -0.00643589 -0.000344031
-4.51751e-22 0.0274774 0.00369779 -0.000534777 0.00229359 0.000477164
-2.71051e-20 0.0278217 0.00130228 -0.00140091 0.00424983 3.91596e-05
0 -0.0278217 0.00130226 0.00717916 -0.0124419 -0.000369526
-2.71051e-20 0.0277987 0.0020884 -0.00178576 0.00544478 0.000441638
2.71051e-20 -0.0277987 0.0020884 0.00902502 -0.0148656 -0.000292619
-1.50584e-21 0.0278795 0.000330568 -3.71034e-05 0.000148591 1.4745e-05
-1.50584e-21 -0.0278795 0.000330574 0.00166344 -0.00342592 -6.37898e-05
-1.01644e-20 -0.0275674 0.00417883 0 0 0
-6.77626e-21 0.0275674 0.00417882 0 0 0
2.71051e-20 -0.0277779 0.00283431 0.00913574 -0.0141714 -0.000367224
-2.71051e-20 0.0277779 0.00283433 -0.00154603 0.00511081 0.000715412
-6.77626e-21 -0.0276684 0.00421691 0 0 0
-2.03288e-20 0.0276685 0.00421694 0 0 0
-1.35525e-20 -0.0277109 0.00403361 0.00209359 -0.00306611 -0.000217244
4.51751e-21 0.0277109 0.00403363 -0.000182749 0.00108572 0.000290683
0 -0.0278037 0.00346795 0.00694142 -0.0104751 -0.000345052
2.71051e-20 0.0278037 0.00346796 -0.000917059 0.00365231 0.000713038
-2.71051e-20 0.0280306 3.72656e-14 0 0 0
1.35525e-20 -0.0280306 3.72776e-14 0 0 0
0 0.0281597 0.000826399 -0.00068775 0.00235184 -4.39489e-06
2.25875e-21 -0.0281598 0.000826407 0.00450312 -0.00818532 -0.000202464
1.12938e-22 0.0281239 0.00170646 -0.00160231 0.00499052 0.000261691
5.64689e-22 -0.0281239 0.00170647 0.0082247 -0.0137972 -0.000255397
-2.71051e-20 0.0281926 2.34404e-14 0 0 0
-1.35525e-20 -0.0281927 2.34062e-14 0 0 0
-5.64689e-22 -0.0281037 0.00246055 0.00937241 -0.014929 -0.000178856
-1.12938e-21 0.0281037 0.00246055 -0.00172218 0.00550468 0.000609574
1.35525e-20 -0.0278977 0.00430336 0 0 0
0 0.0278977 0.00430337 0 0 0