# Wall shear stress
# Time        	patch         	min           	max           
104           	cylinder	(-9.475071e-04 -1.734254e-03 -5.464740e-04)	(5.220078e-04 1.740856e-03 7.167692e-04)
500           	cylinder	(-7.671037e-04 -1.248385e-03 -3.159846e-04)	(2.331634e-04 1.280892e-03 4.826679e-04)
1000          	cylinder	(-7.611895e-04 -1.249901e-03 -3.149331e-04)	(2.563891e-04 1.228216e-03 4.802438e-04)
1500          	cylinder	(-7.609338e-04 -1.236978e-03 -3.159073e-04)	(2.476747e-04 1.241741e-03 4.729707e-04)
2000          	cylinder	(-7.640503e-04 -1.241120e-03 -3.156315e-04)	(2.547350e-04 1.241016e-03 4.742079e-04)
2251          	cylinder	(-7.641332e-04 -1.241062e-03 -3.156800e-04)	(2.546854e-04 1.241192e-03 4.742289e-04)
