# Moment      
# CofR        : (0.000000e+00 0.000000e+00 0.000000e+00)
#
# Time        	(total_x total_y total_z)	(pressure_x pressure_y pressure_z)	(viscous_x viscous_y viscous_z)
0.000597015   	(-2.098428e+07 1.513397e+08 -7.362360e+07)	(-2.098428e+07 1.513397e+08 -7.362360e+07)	(-3.825698e+00 1.479324e+00 5.425938e-01)
0.00131343    	(-1.772941e+07 1.529160e+08 -8.307238e+07)	(-1.772940e+07 1.529160e+08 -8.307238e+07)	(-4.922649e+00 5.445218e+00 1.409457e+00)
0.00217313    	(-1.771884e+07 1.529187e+08 -8.311459e+07)	(-1.771884e+07 1.529187e+08 -8.311459e+07)	(-5.892918e+00 8.348738e+00 2.097424e+00)
0.00319548    	(-1.771326e+07 1.529187e+08 -8.313948e+07)	(-1.771326e+07 1.529187e+08 -8.313948e+07)	(-6.667250e+00 1.077487e+01 2.512409e+00)
0.0044223     	(-1.770875e+07 1.529170e+08 -8.316087e+07)	(-1.770874e+07 1.529170e+08 -8.316087e+07)	(-7.393303e+00 1.247903e+01 2.588408e+00)
0.0059047     	(-1.770551e+07 1.529141e+08 -8.317821e+07)	(-1.770550e+07 1.529140e+08 -8.317821e+07)	(-8.209369e+00 1.350670e+01 2.549168e+00)
0.00769919    	(-1.770360e+07 1.529096e+08 -8.319259e+07)	(-1.770359e+07 1.529096e+08 -8.319259e+07)	(-9.150587e+00 1.394676e+01 2.455439e+00)
0.00985258    	(-1.770243e+07 1.529033e+08 -8.320608e+07)	(-1.770242e+07 1.529033e+08 -8.320608e+07)	(-1.025637e+01 1.363782e+01 2.396692e+00)
0.0123649     	(-1.770165e+07 1.528951e+08 -8.322063e+07)	(-1.770164e+07 1.528951e+08 -8.322063e+07)	(-1.149339e+01 1.238884e+01 2.126128e+00)
0.0154354     	(-1.770091e+07 1.528850e+08 -8.323711e+07)	(-1.770090e+07 1.528850e+08 -8.323711e+07)	(-1.294596e+01 1.079722e+01 1.652299e+00)
0.0189447     	(-1.770027e+07 1.528730e+08 -8.325527e+07)	(-1.770025e+07 1.528730e+08 -8.325527e+07)	(-1.441482e+01 9.264907e+00 9.272168e-01)
0.0231557     	(-1.769960e+07 1.528595e+08 -8.327522e+07)	(-1.769958e+07 1.528595e+08 -8.327522e+07)	(-1.542990e+01 7.684439e+00 -1.636188e-01)
0.0287705     	(-1.769887e+07 1.528431e+08 -8.329872e+07)	(-1.769886e+07 1.528431e+08 -8.329872e+07)	(-1.530383e+01 6.485058e+00 -1.340074e+00)
0.0343852     	(-1.769854e+07 1.528283e+08 -8.331852e+07)	(-1.769852e+07 1.528283e+08 -8.331852e+07)	(-1.520866e+01 5.844066e+00 -2.600048e+00)
0.04          	(-1.769830e+07 1.528170e+08 -8.333354e+07)	(-1.769829e+07 1.528170e+08 -8.333353e+07)	(-1.507487e+01 5.546835e+00 -3.614470e+00)
0.0466667     	(-1.769787e+07 1.528070e+08 -8.334729e+07)	(-1.769785e+07 1.528070e+08 -8.334729e+07)	(-1.457338e+01 5.263409e+00 -4.774679e+00)
0.055         	(-1.769741e+07 1.527976e+08 -8.335983e+07)	(-1.769740e+07 1.527976e+08 -8.335982e+07)	(-1.419604e+01 4.550953e+00 -6.607942e+00)
0.0633333     	(-1.769762e+07 1.527914e+08 -8.336666e+07)	(-1.769760e+07 1.527914e+08 -8.336665e+07)	(-1.420294e+01 4.413426e+00 -8.060734e+00)
0.0716667     	(-1.769760e+07 1.527864e+08 -8.337227e+07)	(-1.769758e+07 1.527864e+08 -8.337226e+07)	(-1.442303e+01 4.201070e+00 -8.876336e+00)
0.08          	(-1.769769e+07 1.527829e+08 -8.337544e+07)	(-1.769767e+07 1.527829e+08 -8.337543e+07)	(-1.483450e+01 3.839275e+00 -9.518619e+00)
0.09          	(-1.769737e+07 1.527802e+08 -8.337803e+07)	(-1.769736e+07 1.527802e+08 -8.337802e+07)	(-1.531262e+01 3.015296e+00 -1.064041e+01)
0.1           	(-1.769743e+07 1.527790e+08 -8.337815e+07)	(-1.769742e+07 1.527790e+08 -8.337814e+07)	(-1.621050e+01 2.046440e+00 -1.162142e+01)
0.11          	(-1.769747e+07 1.527785e+08 -8.337703e+07)	(-1.769745e+07 1.527785e+08 -8.337702e+07)	(-1.705144e+01 8.855337e-01 -1.269554e+01)
0.12          	(-1.769745e+07 1.527786e+08 -8.337547e+07)	(-1.769743e+07 1.527786e+08 -8.337546e+07)	(-1.726416e+01 -1.461841e-01 -1.352209e+01)
0.133333      	(-1.769708e+07 1.527793e+08 -8.337366e+07)	(-1.769706e+07 1.527793e+08 -8.337365e+07)	(-1.494181e+01 -4.765138e-01 -1.389346e+01)
0.146667      	(-1.769707e+07 1.527803e+08 -8.337079e+07)	(-1.769705e+07 1.527803e+08 -8.337078e+07)	(-1.394151e+01 -5.591096e-01 -1.365550e+01)
0.16          	(-1.769704e+07 1.527818e+08 -8.336740e+07)	(-1.769703e+07 1.527818e+08 -8.336738e+07)	(-1.325522e+01 -8.198325e-01 -1.314297e+01)
0.173333      	(-1.769687e+07 1.527837e+08 -8.336417e+07)	(-1.769685e+07 1.527837e+08 -8.336416e+07)	(-1.301030e+01 -1.704186e+00 -1.302141e+01)
0.186667      	(-1.769671e+07 1.527852e+08 -8.336116e+07)	(-1.769670e+07 1.527852e+08 -8.336114e+07)	(-1.269929e+01 -2.814112e+00 -1.285411e+01)
0.2           	(-1.769643e+07 1.527863e+08 -8.335905e+07)	(-1.769642e+07 1.527863e+08 -8.335904e+07)	(-1.220882e+01 -4.071056e+00 -1.270657e+01)
0.22          	(-1.769595e+07 1.527875e+08 -8.335663e+07)	(-1.769594e+07 1.527875e+08 -8.335661e+07)	(-9.886366e+00 -5.059605e+00 -1.432714e+01)
0.24          	(-1.769548e+07 1.527878e+08 -8.335506e+07)	(-1.769547e+07 1.527878e+08 -8.335505e+07)	(-8.647642e+00 -6.093919e+00 -1.509357e+01)
0.26          	(-1.769576e+07 1.527888e+08 -8.335154e+07)	(-1.769575e+07 1.527888e+08 -8.335153e+07)	(-7.381207e+00 -7.303938e+00 -1.546483e+01)
0.28          	(-1.769629e+07 1.527895e+08 -8.334765e+07)	(-1.769628e+07 1.527895e+08 -8.334764e+07)	(-7.146337e+00 -8.014432e+00 -1.496223e+01)
0.3           	(-1.769741e+07 1.527907e+08 -8.334165e+07)	(-1.769740e+07 1.527907e+08 -8.334164e+07)	(-7.395018e+00 -8.501894e+00 -1.459092e+01)
0.32          	(-1.769710e+07 1.527909e+08 -8.334035e+07)	(-1.769709e+07 1.527909e+08 -8.334034e+07)	(-7.117694e+00 -8.386449e+00 -1.417906e+01)
0.34          	(-1.769738e+07 1.527916e+08 -8.333684e+07)	(-1.769738e+07 1.527916e+08 -8.333683e+07)	(-6.225850e+00 -6.318555e+00 -1.446817e+01)
0.36          	(-1.769786e+07 1.527915e+08 -8.333397e+07)	(-1.769785e+07 1.527915e+08 -8.333395e+07)	(-4.780153e+00 -3.325556e+00 -1.629886e+01)
0.38          	(-1.769813e+07 1.527913e+08 -8.333176e+07)	(-1.769812e+07 1.527913e+08 -8.333174e+07)	(-4.155198e+00 -2.565046e+00 -1.687796e+01)
0.4           	(-1.769849e+07 1.527910e+08 -8.332936e+07)	(-1.769849e+07 1.527910e+08 -8.332934e+07)	(-3.110673e+00 -1.557505e+00 -1.728835e+01)
0.42          	(-1.769880e+07 1.527905e+08 -8.332731e+07)	(-1.769880e+07 1.527905e+08 -8.332730e+07)	(-2.203288e+00 -7.027225e-01 -1.804536e+01)
0.44          	(-1.769914e+07 1.527898e+08 -8.332561e+07)	(-1.769913e+07 1.527898e+08 -8.332559e+07)	(-1.289175e+00 9.935246e-02 -1.880285e+01)
0.46          	(-1.769950e+07 1.527891e+08 -8.332402e+07)	(-1.769950e+07 1.527891e+08 -8.332400e+07)	(-4.297906e-01 8.551818e-01 -1.951125e+01)
0.48          	(-1.769988e+07 1.527886e+08 -8.332220e+07)	(-1.769988e+07 1.527886e+08 -8.332218e+07)	(2.713770e-01 1.602525e+00 -2.021344e+01)
0.5           	(-1.770019e+07 1.527878e+08 -8.332062e+07)	(-1.770019e+07 1.527878e+08 -8.332060e+07)	(7.803856e-01 2.454405e+00 -2.070474e+01)
0.52          	(-1.770052e+07 1.527869e+08 -8.331928e+07)	(-1.770052e+07 1.527869e+08 -8.331925e+07)	(1.357004e+00 3.401796e+00 -2.099233e+01)
0.54          	(-1.770093e+07 1.527859e+08 -8.331788e+07)	(-1.770093e+07 1.527859e+08 -8.331786e+07)	(1.936740e+00 4.168254e+00 -2.123216e+01)
0.56          	(-1.770163e+07 1.527850e+08 -8.331600e+07)	(-1.770163e+07 1.527849e+08 -8.331598e+07)	(2.754326e+00 4.846212e+00 -2.138882e+01)
0.58          	(-1.770257e+07 1.527839e+08 -8.331372e+07)	(-1.770257e+07 1.527839e+08 -8.331370e+07)	(3.345484e+00 5.391440e+00 -2.152917e+01)
0.6           	(-1.770341e+07 1.527827e+08 -8.331196e+07)	(-1.770342e+07 1.527827e+08 -8.331194e+07)	(3.722540e+00 5.572849e+00 -2.149591e+01)
0.62          	(-1.770362e+07 1.527815e+08 -8.331173e+07)	(-1.770362e+07 1.527815e+08 -8.331171e+07)	(3.888043e+00 5.347542e+00 -2.122938e+01)
0.64          	(-1.770404e+07 1.527803e+08 -8.331087e+07)	(-1.770404e+07 1.527803e+08 -8.331085e+07)	(4.107312e+00 4.771653e+00 -2.075637e+01)
0.66          	(-1.770477e+07 1.527792e+08 -8.330946e+07)	(-1.770478e+07 1.527792e+08 -8.330944e+07)	(4.340789e+00 4.053731e+00 -2.018520e+01)
0.68          	(-1.770543e+07 1.527778e+08 -8.330851e+07)	(-1.770543e+07 1.527778e+08 -8.330849e+07)	(4.940917e+00 3.394932e+00 -1.963901e+01)
0.7           	(-1.770599e+07 1.527767e+08 -8.330778e+07)	(-1.770600e+07 1.527767e+08 -8.330776e+07)	(5.428949e+00 2.178959e+00 -1.917076e+01)
0.72          	(-1.770659e+07 1.527757e+08 -8.330685e+07)	(-1.770660e+07 1.527757e+08 -8.330683e+07)	(5.646408e+00 3.945598e-01 -1.878172e+01)
0.74          	(-1.770719e+07 1.527749e+08 -8.330607e+07)	(-1.770720e+07 1.527749e+08 -8.330605e+07)	(5.828513e+00 -1.358762e+00 -1.821447e+01)
0.76          	(-1.770773e+07 1.527739e+08 -8.330533e+07)	(-1.770773e+07 1.527739e+08 -8.330531e+07)	(6.021345e+00 -2.878804e+00 -1.767294e+01)
0.78          	(-1.770834e+07 1.527735e+08 -8.330393e+07)	(-1.770835e+07 1.527735e+08 -8.330391e+07)	(6.132443e+00 -4.335252e+00 -1.714361e+01)
0.8           	(-1.770896e+07 1.527729e+08 -8.330290e+07)	(-1.770897e+07 1.527729e+08 -8.330288e+07)	(6.051658e+00 -5.827874e+00 -1.648971e+01)
0.82          	(-1.770970e+07 1.527722e+08 -8.330158e+07)	(-1.770970e+07 1.527722e+08 -8.330156e+07)	(5.955133e+00 -7.192801e+00 -1.567291e+01)
0.84          	(-1.771055e+07 1.527718e+08 -8.329985e+07)	(-1.771056e+07 1.527718e+08 -8.329983e+07)	(5.829257e+00 -8.548729e+00 -1.484143e+01)
0.86          	(-1.771132e+07 1.527712e+08 -8.329829e+07)	(-1.771132e+07 1.527712e+08 -8.329827e+07)	(5.533987e+00 -9.804827e+00 -1.398091e+01)
0.88          	(-1.771216e+07 1.527710e+08 -8.329620e+07)	(-1.771217e+07 1.527710e+08 -8.329619e+07)	(5.147079e+00 -1.086148e+01 -1.310467e+01)
0.9           	(-1.771297e+07 1.527707e+08 -8.329413e+07)	(-1.771298e+07 1.527707e+08 -8.329412e+07)	(4.905921e+00 -1.169611e+01 -1.213799e+01)
0.92          	(-1.771374e+07 1.527705e+08 -8.329204e+07)	(-1.771375e+07 1.527705e+08 -8.329203e+07)	(4.640038e+00 -1.174774e+01 -1.137763e+01)
0.94          	(-1.771458e+07 1.527705e+08 -8.328960e+07)	(-1.771459e+07 1.527705e+08 -8.328959e+07)	(4.438746e+00 -1.181606e+01 -1.045508e+01)
0.96          	(-1.771544e+07 1.527705e+08 -8.328703e+07)	(-1.771544e+07 1.527705e+08 -8.328702e+07)	(4.127874e+00 -1.192494e+01 -9.554313e+00)
0.98          	(-1.771627e+07 1.527705e+08 -8.328449e+07)	(-1.771627e+07 1.527705e+08 -8.328448e+07)	(4.002117e+00 -1.174252e+01 -9.024076e+00)
1             	(-1.771707e+07 1.527706e+08 -8.328179e+07)	(-1.771708e+07 1.527706e+08 -8.328178e+07)	(3.958669e+00 -1.132358e+01 -8.799555e+00)
1.02          	(-1.771785e+07 1.527706e+08 -8.327915e+07)	(-1.771786e+07 1.527707e+08 -8.327914e+07)	(3.780029e+00 -1.097098e+01 -8.614791e+00)
1.04          	(-1.771871e+07 1.527707e+08 -8.327623e+07)	(-1.771872e+07 1.527708e+08 -8.327622e+07)	(3.545666e+00 -1.076289e+01 -8.357684e+00)
1.06          	(-1.771966e+07 1.527709e+08 -8.327293e+07)	(-1.771967e+07 1.527710e+08 -8.327292e+07)	(3.330207e+00 -1.068703e+01 -8.104377e+00)
1.08          	(-1.772061e+07 1.527711e+08 -8.326960e+07)	(-1.772061e+07 1.527711e+08 -8.326959e+07)	(3.038518e+00 -1.083658e+01 -7.821181e+00)
1.1           	(-1.772152e+07 1.527713e+08 -8.326637e+07)	(-1.772152e+07 1.527713e+08 -8.326636e+07)	(2.763767e+00 -1.126611e+01 -7.464777e+00)
1.12          	(-1.772234e+07 1.527713e+08 -8.326335e+07)	(-1.772234e+07 1.527714e+08 -8.326334e+07)	(2.498812e+00 -1.192116e+01 -7.086980e+00)
1.14          	(-1.772323e+07 1.527715e+08 -8.326003e+07)	(-1.772323e+07 1.527715e+08 -8.326002e+07)	(2.234215e+00 -1.273349e+01 -6.658962e+00)
1.16          	(-1.772409e+07 1.527715e+08 -8.325693e+07)	(-1.772409e+07 1.527715e+08 -8.325693e+07)	(1.975821e+00 -1.380574e+01 -6.204989e+00)
1.18          	(-1.772493e+07 1.527715e+08 -8.325374e+07)	(-1.772493e+07 1.527716e+08 -8.325373e+07)	(1.723970e+00 -1.507562e+01 -5.786150e+00)
1.2           	(-1.772577e+07 1.527716e+08 -8.325041e+07)	(-1.772577e+07 1.527716e+08 -8.325041e+07)	(1.495580e+00 -1.643973e+01 -5.412927e+00)
1.22          	(-1.772663e+07 1.527718e+08 -8.324702e+07)	(-1.772663e+07 1.527718e+08 -8.324701e+07)	(1.300687e+00 -1.784696e+01 -5.087064e+00)
1.24          	(-1.772747e+07 1.527719e+08 -8.324362e+07)	(-1.772747e+07 1.527719e+08 -8.324361e+07)	(1.089798e+00 -1.928299e+01 -4.790872e+00)
1.26          	(-1.772829e+07 1.527720e+08 -8.324016e+07)	(-1.772829e+07 1.527721e+08 -8.324015e+07)	(9.335887e-01 -2.063300e+01 -4.480882e+00)
1.28          	(-1.772914e+07 1.527722e+08 -8.323660e+07)	(-1.772914e+07 1.527723e+08 -8.323659e+07)	(8.071815e-01 -2.192595e+01 -4.117431e+00)
1.3           	(-1.772999e+07 1.527725e+08 -8.323281e+07)	(-1.772999e+07 1.527725e+08 -8.323281e+07)	(7.115695e-01 -2.318658e+01 -3.697960e+00)
1.32          	(-1.773086e+07 1.527728e+08 -8.322893e+07)	(-1.773086e+07 1.527728e+08 -8.322892e+07)	(6.402760e-01 -2.437907e+01 -3.260164e+00)
1.34          	(-1.773172e+07 1.527731e+08 -8.322518e+07)	(-1.773172e+07 1.527731e+08 -8.322518e+07)	(5.426237e-01 -2.542403e+01 -2.808107e+00)
1.36          	(-1.773259e+07 1.527733e+08 -8.322137e+07)	(-1.773259e+07 1.527734e+08 -8.322137e+07)	(4.248693e-01 -2.623334e+01 -2.328507e+00)
1.38          	(-1.773353e+07 1.527736e+08 -8.321725e+07)	(-1.773353e+07 1.527737e+08 -8.321725e+07)	(2.874078e-01 -2.684489e+01 -1.827076e+00)
1.4           	(-1.773446e+07 1.527739e+08 -8.321309e+07)	(-1.773446e+07 1.527739e+08 -8.321309e+07)	(1.654350e-01 -2.724342e+01 -1.312936e+00)
1.42          	(-1.773532e+07 1.527741e+08 -8.320945e+07)	(-1.773532e+07 1.527741e+08 -8.320945e+07)	(-2.467390e-02 -2.740415e+01 -8.553620e-01)
1.44          	(-1.773627e+07 1.527744e+08 -8.320536e+07)	(-1.773627e+07 1.527744e+08 -8.320536e+07)	(-1.852943e-01 -2.736028e+01 -4.550033e-01)
1.46          	(-1.773721e+07 1.527747e+08 -8.320142e+07)	(-1.773721e+07 1.527747e+08 -8.320142e+07)	(-3.454019e-01 -2.728037e+01 -1.342675e-01)
1.48          	(-1.773820e+07 1.527749e+08 -8.319723e+07)	(-1.773820e+07 1.527750e+08 -8.319723e+07)	(-5.261078e-01 -2.716763e+01 1.389976e-01)
1.5           	(-1.773930e+07 1.527753e+08 -8.319263e+07)	(-1.773930e+07 1.527753e+08 -8.319263e+07)	(-6.974495e-01 -2.703547e+01 3.614120e-01)
1.52          	(-1.774044e+07 1.527756e+08 -8.318809e+07)	(-1.774044e+07 1.527756e+08 -8.318809e+07)	(-8.686917e-01 -2.688296e+01 5.404292e-01)
1.54          	(-1.774162e+07 1.527759e+08 -8.318343e+07)	(-1.774162e+07 1.527759e+08 -8.318343e+07)	(-1.036634e+00 -2.674081e+01 6.657758e-01)
1.56          	(-1.774281e+07 1.527762e+08 -8.317876e+07)	(-1.774280e+07 1.527763e+08 -8.317876e+07)	(-1.226976e+00 -2.660692e+01 7.526953e-01)
1.58          	(-1.774402e+07 1.527766e+08 -8.317398e+07)	(-1.774401e+07 1.527766e+08 -8.317398e+07)	(-1.420747e+00 -2.646706e+01 8.153947e-01)
1.6           	(-1.774525e+07 1.527769e+08 -8.316913e+07)	(-1.774524e+07 1.527769e+08 -8.316913e+07)	(-1.631624e+00 -2.630528e+01 8.843780e-01)
1.62          	(-1.774650e+07 1.527772e+08 -8.316433e+07)	(-1.774649e+07 1.527772e+08 -8.316433e+07)	(-1.869675e+00 -2.614379e+01 9.621625e-01)
1.64          	(-1.774775e+07 1.527775e+08 -8.315947e+07)	(-1.774775e+07 1.527775e+08 -8.315947e+07)	(-2.137526e+00 -2.602832e+01 1.008087e+00)
1.66          	(-1.774898e+07 1.527778e+08 -8.315476e+07)	(-1.774898e+07 1.527778e+08 -8.315476e+07)	(-2.391726e+00 -2.595041e+01 1.049140e+00)
1.68          	(-1.775029e+07 1.527782e+08 -8.314971e+07)	(-1.775029e+07 1.527782e+08 -8.314971e+07)	(-2.650450e+00 -2.591616e+01 1.094146e+00)
1.7           	(-1.775159e+07 1.527785e+08 -8.314470e+07)	(-1.775158e+07 1.527785e+08 -8.314470e+07)	(-2.922977e+00 -2.594732e+01 1.121881e+00)
1.72          	(-1.775290e+07 1.527787e+08 -8.313985e+07)	(-1.775290e+07 1.527787e+08 -8.313985e+07)	(-3.194518e+00 -2.601906e+01 1.179082e+00)
1.74          	(-1.775421e+07 1.527790e+08 -8.313489e+07)	(-1.775421e+07 1.527790e+08 -8.313489e+07)	(-3.460361e+00 -2.614678e+01 1.263003e+00)
1.76          	(-1.775555e+07 1.527793e+08 -8.312977e+07)	(-1.775555e+07 1.527793e+08 -8.312977e+07)	(-3.711681e+00 -2.634449e+01 1.366311e+00)
1.78          	(-1.775685e+07 1.527796e+08 -8.312487e+07)	(-1.775685e+07 1.527796e+08 -8.312487e+07)	(-3.965787e+00 -2.660939e+01 1.475753e+00)
1.8           	(-1.775818e+07 1.527798e+08 -8.311994e+07)	(-1.775818e+07 1.527798e+08 -8.311994e+07)	(-4.201099e+00 -2.696318e+01 1.593988e+00)
1.82          	(-1.775957e+07 1.527800e+08 -8.311482e+07)	(-1.775957e+07 1.527801e+08 -8.311482e+07)	(-4.414693e+00 -2.739760e+01 1.712381e+00)
1.84          	(-1.776095e+07 1.527803e+08 -8.310962e+07)	(-1.776095e+07 1.527803e+08 -8.310963e+07)	(-4.590680e+00 -2.791141e+01 1.837497e+00)
1.86          	(-1.776229e+07 1.527806e+08 -8.310462e+07)	(-1.776228e+07 1.527806e+08 -8.310462e+07)	(-4.741431e+00 -2.849878e+01 1.965721e+00)
1.88          	(-1.776370e+07 1.527808e+08 -8.309949e+07)	(-1.776369e+07 1.527808e+08 -8.309949e+07)	(-4.856579e+00 -2.911710e+01 2.101615e+00)
1.9           	(-1.776506e+07 1.527810e+08 -8.309451e+07)	(-1.776506e+07 1.527810e+08 -8.309451e+07)	(-4.944351e+00 -2.974858e+01 2.230464e+00)
1.92          	(-1.776642e+07 1.527813e+08 -8.308948e+07)	(-1.776642e+07 1.527813e+08 -8.308949e+07)	(-5.017242e+00 -3.037607e+01 2.348862e+00)
1.94          	(-1.776780e+07 1.527815e+08 -8.308442e+07)	(-1.776779e+07 1.527815e+08 -8.308443e+07)	(-5.083822e+00 -3.097653e+01 2.447229e+00)
1.96          	(-1.776921e+07 1.527818e+08 -8.307925e+07)	(-1.776920e+07 1.527818e+08 -8.307925e+07)	(-5.150449e+00 -3.156669e+01 2.510680e+00)
1.98          	(-1.777061e+07 1.527820e+08 -8.307418e+07)	(-1.777060e+07 1.527820e+08 -8.307419e+07)	(-5.194957e+00 -3.217638e+01 2.544547e+00)
2             	(-1.777198e+07 1.527822e+08 -8.306927e+07)	(-1.777197e+07 1.527822e+08 -8.306928e+07)	(-5.222206e+00 -3.279800e+01 2.520953e+00)
2.02          	(-1.777334e+07 1.527825e+08 -8.306435e+07)	(-1.777334e+07 1.527825e+08 -8.306435e+07)	(-5.251532e+00 -3.340717e+01 2.444403e+00)
2.04          	(-1.777470e+07 1.527827e+08 -8.305952e+07)	(-1.777470e+07 1.527828e+08 -8.305952e+07)	(-5.249114e+00 -3.401529e+01 2.322943e+00)
2.06          	(-1.777617e+07 1.527830e+08 -8.305423e+07)	(-1.777616e+07 1.527831e+08 -8.305424e+07)	(-5.257858e+00 -3.460979e+01 2.187551e+00)
2.08          	(-1.777764e+07 1.527833e+08 -8.304896e+07)	(-1.777764e+07 1.527834e+08 -8.304896e+07)	(-5.252383e+00 -3.519740e+01 2.022085e+00)
2.1           	(-1.777917e+07 1.527837e+08 -8.304352e+07)	(-1.777917e+07 1.527837e+08 -8.304352e+07)	(-5.259819e+00 -3.576808e+01 1.839298e+00)
2.12          	(-1.778066e+07 1.527840e+08 -8.303844e+07)	(-1.778065e+07 1.527840e+08 -8.303844e+07)	(-5.249699e+00 -3.633409e+01 1.628634e+00)
2.14          	(-1.778225e+07 1.527843e+08 -8.303285e+07)	(-1.778224e+07 1.527843e+08 -8.303285e+07)	(-5.248981e+00 -3.686755e+01 1.420945e+00)
2.16          	(-1.778373e+07 1.527846e+08 -8.302788e+07)	(-1.778372e+07 1.527846e+08 -8.302788e+07)	(-5.235268e+00 -3.733551e+01 1.229082e+00)
2.18          	(-1.778531e+07 1.527849e+08 -8.302236e+07)	(-1.778530e+07 1.527849e+08 -8.302236e+07)	(-5.254524e+00 -3.772191e+01 1.066826e+00)
2.2           	(-1.778685e+07 1.527852e+08 -8.301712e+07)	(-1.778684e+07 1.527852e+08 -8.301712e+07)	(-5.305417e+00 -3.802638e+01 8.910904e-01)
2.22          	(-1.778840e+07 1.527855e+08 -8.301193e+07)	(-1.778839e+07 1.527855e+08 -8.301193e+07)	(-5.338105e+00 -3.826167e+01 6.767209e-01)
2.24          	(-1.778996e+07 1.527858e+08 -8.300665e+07)	(-1.778995e+07 1.527859e+08 -8.300665e+07)	(-5.410103e+00 -3.842749e+01 4.772835e-01)
2.26          	(-1.779152e+07 1.527861e+08 -8.300137e+07)	(-1.779151e+07 1.527862e+08 -8.300137e+07)	(-5.487470e+00 -3.853352e+01 2.578068e-01)
2.28          	(-1.779308e+07 1.527864e+08 -8.299615e+07)	(-1.779307e+07 1.527865e+08 -8.299615e+07)	(-5.513712e+00 -3.859274e+01 6.331555e-03)
2.3           	(-1.779463e+07 1.527867e+08 -8.299100e+07)	(-1.779462e+07 1.527868e+08 -8.299100e+07)	(-5.642740e+00 -3.859169e+01 -2.503181e-01)
2.32          	(-1.779616e+07 1.527870e+08 -8.298598e+07)	(-1.779615e+07 1.527870e+08 -8.298598e+07)	(-5.772568e+00 -3.856931e+01 -5.526771e-01)
2.34          	(-1.779772e+07 1.527873e+08 -8.298080e+07)	(-1.779771e+07 1.527873e+08 -8.298080e+07)	(-5.837592e+00 -3.848927e+01 -8.845275e-01)
2.36          	(-1.779923e+07 1.527876e+08 -8.297590e+07)	(-1.779922e+07 1.527876e+08 -8.297590e+07)	(-6.002384e+00 -3.840053e+01 -1.234801e+00)
2.38          	(-1.780079e+07 1.527879e+08 -8.297071e+07)	(-1.780078e+07 1.527879e+08 -8.297071e+07)	(-6.105004e+00 -3.829257e+01 -1.624784e+00)
2.4           	(-1.780234e+07 1.527881e+08 -8.296562e+07)	(-1.780234e+07 1.527882e+08 -8.296562e+07)	(-6.225672e+00 -3.808309e+01 -1.953523e+00)
2.42          	(-1.780387e+07 1.527884e+08 -8.296066e+07)	(-1.780386e+07 1.527885e+08 -8.296066e+07)	(-6.452990e+00 -3.781822e+01 -2.286690e+00)
2.44          	(-1.780534e+07 1.527887e+08 -8.295597e+07)	(-1.780534e+07 1.527887e+08 -8.295597e+07)	(-6.714857e+00 -3.752110e+01 -2.604976e+00)
2.46          	(-1.780690e+07 1.527889e+08 -8.295083e+07)	(-1.780689e+07 1.527890e+08 -8.295083e+07)	(-6.955927e+00 -3.725400e+01 -2.934249e+00)
2.48          	(-1.780837e+07 1.527892e+08 -8.294613e+07)	(-1.780836e+07 1.527892e+08 -8.294612e+07)	(-7.311344e+00 -3.702378e+01 -3.199651e+00)
2.5           	(-1.780986e+07 1.527894e+08 -8.294131e+07)	(-1.780985e+07 1.527895e+08 -8.294130e+07)	(-7.677958e+00 -3.679717e+01 -3.415590e+00)
2.52          	(-1.781129e+07 1.527897e+08 -8.293673e+07)	(-1.781128e+07 1.527897e+08 -8.293672e+07)	(-8.094947e+00 -3.648214e+01 -3.591271e+00)
2.54          	(-1.781277e+07 1.527899e+08 -8.293185e+07)	(-1.781276e+07 1.527900e+08 -8.293184e+07)	(-8.540285e+00 -3.613444e+01 -3.792661e+00)
2.56          	(-1.781415e+07 1.527901e+08 -8.292749e+07)	(-1.781414e+07 1.527902e+08 -8.292748e+07)	(-9.035265e+00 -3.572314e+01 -3.933609e+00)
2.58          	(-1.781558e+07 1.527904e+08 -8.292283e+07)	(-1.781557e+07 1.527904e+08 -8.292282e+07)	(-9.544888e+00 -3.528259e+01 -4.049373e+00)
2.6           	(-1.781697e+07 1.527906e+08 -8.291830e+07)	(-1.781696e+07 1.527906e+08 -8.291830e+07)	(-1.008388e+01 -3.482235e+01 -4.194379e+00)
2.62          	(-1.781833e+07 1.527908e+08 -8.291392e+07)	(-1.781832e+07 1.527908e+08 -8.291392e+07)	(-1.066935e+01 -3.430477e+01 -4.387621e+00)
2.64          	(-1.781970e+07 1.527910e+08 -8.290949e+07)	(-1.781969e+07 1.527910e+08 -8.290948e+07)	(-1.132754e+01 -3.375054e+01 -4.629888e+00)
2.66          	(-1.782102e+07 1.527912e+08 -8.290522e+07)	(-1.782101e+07 1.527912e+08 -8.290522e+07)	(-1.192072e+01 -3.321828e+01 -4.936118e+00)
2.68          	(-1.782233e+07 1.527914e+08 -8.290101e+07)	(-1.782232e+07 1.527914e+08 -8.290101e+07)	(-1.251955e+01 -3.281858e+01 -5.306109e+00)
2.7           	(-1.782361e+07 1.527916e+08 -8.289683e+07)	(-1.782359e+07 1.527916e+08 -8.289682e+07)	(-1.311621e+01 -3.256396e+01 -5.698017e+00)
2.72          	(-1.782487e+07 1.527917e+08 -8.289264e+07)	(-1.782486e+07 1.527918e+08 -8.289264e+07)	(-1.375325e+01 -3.243787e+01 -6.073738e+00)
2.74          	(-1.782610e+07 1.527919e+08 -8.288866e+07)	(-1.782609e+07 1.527919e+08 -8.288865e+07)	(-1.442062e+01 -3.234314e+01 -6.483980e+00)
2.76          	(-1.782731e+07 1.527921e+08 -8.288479e+07)	(-1.782729e+07 1.527921e+08 -8.288478e+07)	(-1.505596e+01 -3.226274e+01 -6.889145e+00)
2.78          	(-1.782850e+07 1.527922e+08 -8.288095e+07)	(-1.782848e+07 1.527922e+08 -8.288094e+07)	(-1.565441e+01 -3.223257e+01 -7.363341e+00)
2.8           	(-1.782967e+07 1.527923e+08 -8.287713e+07)	(-1.782965e+07 1.527924e+08 -8.287712e+07)	(-1.620001e+01 -3.229692e+01 -7.916288e+00)
2.82          	(-1.783078e+07 1.527925e+08 -8.287349e+07)	(-1.783077e+07 1.527925e+08 -8.287349e+07)	(-1.677767e+01 -3.235695e+01 -8.525569e+00)
2.84          	(-1.783188e+07 1.527926e+08 -8.286989e+07)	(-1.783186e+07 1.527926e+08 -8.286988e+07)	(-1.739645e+01 -3.239144e+01 -9.165822e+00)
2.86          	(-1.783295e+07 1.527927e+08 -8.286641e+07)	(-1.783293e+07 1.527927e+08 -8.286640e+07)	(-1.800135e+01 -3.240859e+01 -9.847221e+00)
2.88          	(-1.783400e+07 1.527928e+08 -8.286296e+07)	(-1.783398e+07 1.527928e+08 -8.286295e+07)	(-1.861403e+01 -3.237693e+01 -1.062582e+01)
2.9           	(-1.783498e+07 1.527929e+08 -8.285973e+07)	(-1.783496e+07 1.527929e+08 -8.285972e+07)	(-1.923766e+01 -3.240062e+01 -1.143945e+01)
2.92          	(-1.783596e+07 1.527929e+08 -8.285650e+07)	(-1.783594e+07 1.527930e+08 -8.285649e+07)	(-1.998143e+01 -3.248363e+01 -1.224563e+01)
2.94          	(-1.783688e+07 1.527930e+08 -8.285349e+07)	(-1.783686e+07 1.527930e+08 -8.285348e+07)	(-2.064793e+01 -3.258840e+01 -1.312508e+01)
2.96          	(-1.783777e+07 1.527930e+08 -8.285054e+07)	(-1.783775e+07 1.527931e+08 -8.285053e+07)	(-2.128074e+01 -3.266582e+01 -1.413850e+01)
2.98          	(-1.783863e+07 1.527931e+08 -8.284764e+07)	(-1.783861e+07 1.527931e+08 -8.284762e+07)	(-2.185495e+01 -3.275753e+01 -1.521961e+01)
3             	(-1.783945e+07 1.527931e+08 -8.284488e+07)	(-1.783943e+07 1.527931e+08 -8.284486e+07)	(-2.243360e+01 -3.288248e+01 -1.632308e+01)
3.02          	(-1.784027e+07 1.527931e+08 -8.284207e+07)	(-1.784025e+07 1.527932e+08 -8.284206e+07)	(-2.300721e+01 -3.299003e+01 -1.740618e+01)
3.04          	(-1.784107e+07 1.527931e+08 -8.283936e+07)	(-1.784104e+07 1.527932e+08 -8.283934e+07)	(-2.324482e+01 -3.318592e+01 -1.854022e+01)
3.06          	(-1.784182e+07 1.527931e+08 -8.283681e+07)	(-1.784179e+07 1.527932e+08 -8.283679e+07)	(-2.387473e+01 -3.350856e+01 -1.983690e+01)
3.08          	(-1.784256e+07 1.527931e+08 -8.283425e+07)	(-1.784254e+07 1.527932e+08 -8.283423e+07)	(-2.422485e+01 -3.382254e+01 -2.102515e+01)
3.1           	(-1.784325e+07 1.527931e+08 -8.283182e+07)	(-1.784323e+07 1.527932e+08 -8.283180e+07)	(-2.445901e+01 -3.425418e+01 -2.228616e+01)
3.12          	(-1.784393e+07 1.527931e+08 -8.282945e+07)	(-1.784391e+07 1.527931e+08 -8.282943e+07)	(-2.459727e+01 -3.483783e+01 -2.363432e+01)
3.14          	(-1.784456e+07 1.527931e+08 -8.282721e+07)	(-1.784454e+07 1.527931e+08 -8.282719e+07)	(-2.453114e+01 -3.548835e+01 -2.502163e+01)
3.16          	(-1.784517e+07 1.527930e+08 -8.282505e+07)	(-1.784515e+07 1.527931e+08 -8.282502e+07)	(-2.428988e+01 -3.624698e+01 -2.640280e+01)
3.18          	(-1.784573e+07 1.527930e+08 -8.282304e+07)	(-1.784570e+07 1.527930e+08 -8.282301e+07)	(-2.421454e+01 -3.707587e+01 -2.778897e+01)
3.2           	(-1.784631e+07 1.527929e+08 -8.282091e+07)	(-1.784629e+07 1.527929e+08 -8.282088e+07)	(-2.393621e+01 -3.788993e+01 -2.918602e+01)
3.22          	(-1.784683e+07 1.527928e+08 -8.281904e+07)	(-1.784680e+07 1.527929e+08 -8.281901e+07)	(-2.365080e+01 -3.872309e+01 -3.068006e+01)
3.24          	(-1.784738e+07 1.527928e+08 -8.281698e+07)	(-1.784735e+07 1.527928e+08 -8.281695e+07)	(-2.333157e+01 -3.953162e+01 -3.221892e+01)
3.26          	(-1.784784e+07 1.527927e+08 -8.281531e+07)	(-1.784782e+07 1.527927e+08 -8.281528e+07)	(-2.292983e+01 -4.022871e+01 -3.373291e+01)
3.28          	(-1.784837e+07 1.527926e+08 -8.281327e+07)	(-1.784835e+07 1.527927e+08 -8.281323e+07)	(-2.244108e+01 -4.078231e+01 -3.521194e+01)
3.3           	(-1.784887e+07 1.527926e+08 -8.281132e+07)	(-1.784885e+07 1.527926e+08 -8.281129e+07)	(-2.197121e+01 -4.119562e+01 -3.667139e+01)
3.32          	(-1.784927e+07 1.527925e+08 -8.280988e+07)	(-1.784925e+07 1.527925e+08 -8.280984e+07)	(-2.150661e+01 -4.154221e+01 -3.817301e+01)
3.34          	(-1.784971e+07 1.527924e+08 -8.280820e+07)	(-1.784969e+07 1.527924e+08 -8.280816e+07)	(-2.101070e+01 -4.186010e+01 -3.972510e+01)
3.36          	(-1.785009e+07 1.527923e+08 -8.280667e+07)	(-1.785007e+07 1.527923e+08 -8.280663e+07)	(-2.047801e+01 -4.217738e+01 -4.130980e+01)
3.38          	(-1.785048e+07 1.527922e+08 -8.280511e+07)	(-1.785046e+07 1.527922e+08 -8.280507e+07)	(-1.999559e+01 -4.249721e+01 -4.291997e+01)
3.4           	(-1.785080e+07 1.527920e+08 -8.280380e+07)	(-1.785078e+07 1.527921e+08 -8.280376e+07)	(-1.950624e+01 -4.266989e+01 -4.452476e+01)
3.42          	(-1.785112e+07 1.527919e+08 -8.280248e+07)	(-1.785110e+07 1.527920e+08 -8.280244e+07)	(-1.915241e+01 -4.279368e+01 -4.610379e+01)
3.44          	(-1.785142e+07 1.527918e+08 -8.280118e+07)	(-1.785141e+07 1.527918e+08 -8.280114e+07)	(-1.882768e+01 -4.277602e+01 -4.759996e+01)
3.46          	(-1.785170e+07 1.527916e+08 -8.279998e+07)	(-1.785168e+07 1.527917e+08 -8.279993e+07)	(-1.854572e+01 -4.269913e+01 -4.910373e+01)
3.48          	(-1.785196e+07 1.527915e+08 -8.279884e+07)	(-1.785194e+07 1.527915e+08 -8.279879e+07)	(-1.821712e+01 -4.249223e+01 -5.056218e+01)
3.5           	(-1.785218e+07 1.527913e+08 -8.279785e+07)	(-1.785216e+07 1.527914e+08 -8.279780e+07)	(-1.787302e+01 -4.220190e+01 -5.199160e+01)
3.52          	(-1.785243e+07 1.527912e+08 -8.279674e+07)	(-1.785241e+07 1.527912e+08 -8.279669e+07)	(-1.741282e+01 -4.174655e+01 -5.339399e+01)
3.54          	(-1.785261e+07 1.527910e+08 -8.279586e+07)	(-1.785260e+07 1.527910e+08 -8.279580e+07)	(-1.693372e+01 -4.114057e+01 -5.481220e+01)
3.56          	(-1.785280e+07 1.527908e+08 -8.279493e+07)	(-1.785279e+07 1.527908e+08 -8.279487e+07)	(-1.640937e+01 -4.032124e+01 -5.613719e+01)
3.58          	(-1.785290e+07 1.527906e+08 -8.279434e+07)	(-1.785289e+07 1.527906e+08 -8.279428e+07)	(-1.584880e+01 -3.942558e+01 -5.739795e+01)
3.6           	(-1.785303e+07 1.527904e+08 -8.279360e+07)	(-1.785302e+07 1.527904e+08 -8.279354e+07)	(-1.537045e+01 -3.863541e+01 -5.867597e+01)
3.62          	(-1.785315e+07 1.527902e+08 -8.279290e+07)	(-1.785313e+07 1.527902e+08 -8.279284e+07)	(-1.493663e+01 -3.786858e+01 -5.989545e+01)
3.64          	(-1.785319e+07 1.527899e+08 -8.279251e+07)	(-1.785318e+07 1.527900e+08 -8.279245e+07)	(-1.450642e+01 -3.718264e+01 -6.108903e+01)
3.66          	(-1.785331e+07 1.527897e+08 -8.279178e+07)	(-1.785329e+07 1.527897e+08 -8.279172e+07)	(-1.406738e+01 -3.654939e+01 -6.224714e+01)
3.68          	(-1.785335e+07 1.527895e+08 -8.279139e+07)	(-1.785334e+07 1.527895e+08 -8.279132e+07)	(-1.365860e+01 -3.594638e+01 -6.326505e+01)
3.7           	(-1.785341e+07 1.527893e+08 -8.279088e+07)	(-1.785339e+07 1.527893e+08 -8.279082e+07)	(-1.326136e+01 -3.543371e+01 -6.419681e+01)
3.72          	(-1.785346e+07 1.527890e+08 -8.279040e+07)	(-1.785345e+07 1.527891e+08 -8.279033e+07)	(-1.280397e+01 -3.502986e+01 -6.503512e+01)