# k  POINT_DATA 29002
# x  y  z  k
-1.35525e-20 0.014142 8.40343e-08 4.12625e-08
1.35525e-20 -0.014142 8.40343e-08 4.69379e-08
-6.77626e-21 0.014142 0.000246012 3.48728e-08
6.77626e-21 -0.014142 0.000246012 4.82948e-08
3.38813e-21 0.014142 0.000413825 3.78962e-08
-6.77626e-21 -0.014142 0.000413826 4.7032e-08
0 0.014142 0.000659755 5.28962e-08
-1.35525e-20 -0.014142 0.000659755 4.12179e-08
1.01644e-20 0.014142 0.000918785 6.06415e-08
3.38813e-21 -0.014142 0.000918783 3.68697e-08
6.77626e-21 0.014142 0.00109556 6.48624e-08
3.38813e-21 -0.014142 0.00109556 3.59112e-08
1.35525e-20 0.014142 0.00135458 6.92859e-08
0 -0.014142 0.00135458 3.66837e-08
3.38813e-21 0.014142 0.00162762 7.15274e-08
-6.77626e-21 -0.014142 0.00162761 3.80318e-08
-1.35525e-20 -0.014252 0.000123092 4.61815e-08
0 0.014252 0.000123069 3.78727e-08
-1.35525e-20 -0.0142534 8.87871e-08 4.61864e-08
0 0.0142534 8.87841e-08 3.7866e-08
-3.38813e-21 0.014142 0.00181396 7.89821e-08
-6.77626e-21 -0.014142 0.00181396 4.12416e-08
0 -0.014252 0.000530042 4.31191e-08
0 0.014252 0.000530052 4.52053e-08
1.35525e-20 0.0142482 0.000775283 5.69733e-08
0 -0.0142482 0.000775286 3.78751e-08
-1.35525e-20 0.014142 0.002087 1.04134e-07
1.35525e-20 -0.014142 0.002087 5.24563e-08
0 -0.0142482 0.00119841 3.55808e-08
0 0.0142482 0.00119841 6.70766e-08
0 0.0142437 0.00144425 7.06044e-08
0 -0.0142438 0.00144425 3.67382e-08
0 0.0142437 0.00188148 8.80963e-08
-1.35525e-20 -0.0142437 0.00188149 4.42696e-08
-1.35525e-20 0.014376 9.02294e-08 9.01092e-08
0 -0.014376 9.02309e-08 1.1523e-07
0 0.0143755 0.000639191 7.23787e-08
0 -0.0143755 0.000639192 7.03146e-08
-6.77626e-21 0.0142627 0.00213224 1.07008e-07
-6.77626e-21 -0.0142627 0.00213225 5.17883e-08
-1.35525e-20 0.0143001 0.00203568 1.04219e-07
-1.35525e-20 -0.0143001 0.00203569 5.04412e-08
0 -0.0144128 0.000955786 3.35595e-08
1.35525e-20 0.0144128 0.000955783 6.54942e-08
0 0.0143938 0.00157761 7.40415e-08
1.35525e-20 -0.0143938 0.00157762 3.65196e-08
0 -0.0143748 0.00187233 3.88073e-08
6.77626e-21 0.0143748 0.00187232 8.19228e-08
0 0.0144696 0.00124239 5.37438e-08
2.25875e-21 -0.0144696 0.00124239 2.58866e-08
0 0.014375 0.00217431 1.2685e-07
-1.35525e-20 -0.014375 0.00217431 6.02639e-08
-4.51751e-21 -0.0145417 0.000318493 9.30205e-08
-2.25875e-21 0.0145417 0.000318489 9.03394e-08
-1.35525e-20 -0.0145497 9.54667e-08 1.16979e-07
0 0.0145497 9.54641e-08 9.80281e-08
0 -0.0145346 0.00078231 7.02101e-08
1.35525e-20 0.0145346 0.000782317 8.16164e-08
2.71051e-20 0.0145143 0.00222654 1.33479e-07
0 -0.0145144 0.00222654 6.29036e-08
1.16165e-20 0.0146115 0.0016294 6.7153e-08
0 -0.0146115 0.00162941 2.9837e-08
0 -0.0145852 0.00194437 5.25769e-08
0 0.0145842 0.00194387 1.10546e-07
1.35525e-20 -0.0147196 1.04733e-07 1.98836e-07
-2.71051e-20 0.0147196 1.0473e-07 1.91513e-07
-2.11758e-22 0.0145943 0.00194493 1.12506e-07
-1.05879e-22 -0.0145945 0.00194498 5.32452e-08
0 -0.014709 0.000900688 3.215e-08
2.25875e-21 0.014709 0.000900686 5.18913e-08
-2.71051e-20 0.0145865 0.0022536 1.57221e-07
0 -0.0145866 0.00225361 7.18157e-08
4.51751e-21 0.014697 0.00143077 3.94272e-08
0 -0.014697 0.00143078 1.69056e-08
-1.35525e-20 -0.0148082 0.000136863 2.16458e-07
0 0.0148082 0.000136848 2.37187e-07
1.35525e-20 -0.0148167 9.37199e-08 2.14999e-07
-1.35525e-20 0.0148167 9.37185e-08 2.36303e-07
0 -0.0148641 8.83388e-08 2.16796e-07
0 0.0148641 8.83383e-08 2.45425e-07
-5.16287e-21 -0.0148597 0.000623839 9.28055e-08
-6.45358e-21 0.0148597 0.000623837 1.26183e-07
-1.50584e-21 -0.0148445 0.00116564 1.72913e-08
-3.76459e-21 0.0148445 0.00116563 3.62523e-08
0 0.0147312 0.00230781 1.88925e-07
-2.71051e-20 -0.0147313 0.00230783 8.19003e-08
0 0.014833 0.00159147 5.69483e-08
-5.01544e-37 -0.014833 0.00159148 2.325e-08
0 -0.015 7.49105e-08 1.3993e-07
1.35525e-20 0.015 7.49089e-08 2.86626e-07
3.76459e-22 0.014988 0.00205398 1.94032e-07
9.41148e-23 -0.014988 0.00205397 7.99983e-08
-6.77626e-21 -0.0151759 0.000230596 1.84358e-07
6.77626e-21 0.015176 0.000230601 3.31893e-07
0 -0.015 0.00240853 9.09425e-08
3.38813e-21 0.015 0.00240854 2.19618e-07
0 -0.0152018 0.000843053 5.26875e-08
4.51751e-21 0.0152018 0.000843049 6.43704e-08
2.37169e-20 0.0150362 0.00242211 2.20519e-07
1.69407e-20 -0.0150362 0.00242211 9.10216e-08
4.51751e-21 -0.015201 0.00143422 1.59847e-08
-4.51751e-21 0.015201 0.00143421 3.90398e-08
1.35525e-20 -0.0152989 2.20785e-08 2.68903e-07
-1.35525e-20 0.015299 2.20802e-08 3.75975e-07
-3.38813e-21 0.015119 0.00245307 2.24993e-07
-3.38813e-21 -0.015119 0.0024531 9.28396e-08
2.71051e-20 -0.015396 0.000531605 2.29736e-07
-2.71051e-20 0.015396 0.000531602 2.04648e-07
1.35525e-20 -0.0154492 8.76997e-09 4.45575e-07
-1.35525e-20 0.0154492 8.76943e-09 3.78508e-07
-2.71051e-20 -0.0154135 0.00109937 2.9225e-08
0 0.0154136 0.00109937 4.25066e-08
-1.35525e-20 0.0152769 0.00251208 2.30092e-07
0 -0.0152769 0.0025121 9.32957e-08
-2.71051e-20 0.0153864 0.00178851 9.64209e-08
0 -0.0153864 0.00178851 3.65994e-08
-1.01644e-20 0.0153097 0.00239045 2.27907e-07
-1.01644e-20 -0.0153097 0.00239045 9.33723e-08
0 -0.0153854 0.00225223 8.83039e-08
1.12938e-21 0.0153854 0.00225223 2.20536e-07
0 -0.0156088 7.21589e-09 5.44157e-07
1.35525e-20 0.0156089 7.21525e-09 3.67251e-07
-2.71051e-20 -0.0154657 0.00258282 8.43123e-08
0 0.0154657 0.00258282 2.32625e-07
0 -0.0156825 0.000727925 1.22838e-07
-2.25875e-21 0.0156825 0.000727916 1.00271e-07
1.12938e-21 -0.0157225 0.000233524 5.38921e-07
7.90564e-21 0.0157226 0.000233532 3.32565e-07
2.25875e-21 -0.0157184 0.00143038 1.90847e-08
6.77626e-21 0.0157184 0.00143039 4.52888e-08
-8.47033e-22 -0.0156634 0.00226597 6.61788e-08
1.69407e-21 0.0156634 0.00226598 1.88974e-07
-1.35525e-20 0.0156249 0.00254054 2.22681e-07
0 -0.0156249 0.00254053 7.59457e-08
6.77626e-21 0.0156249 0.0026425 2.20743e-07
6.77626e-21 -0.0156249 0.00264251 7.36872e-08
9.03502e-21 0.0157603 0.00197874 9.40366e-08
0 -0.0157603 0.00197874 3.09474e-08
1.35525e-20 0.0159582 4.57725e-09 3.461e-07
0 -0.0159583 4.5756e-09 5.29728e-07
-1.35525e-20 -0.0157578 0.00269219 6.90736e-08
2.71051e-20 0.0157578 0.00269219 2.22069e-07
1.35525e-20 -0.0158038 0.0025027 7.11892e-08
5.42101e-21 0.0158038 0.00250271 2.24965e-07
6.77626e-21 -0.0160273 0.000416841 3.39873e-07
6.77626e-21 0.0160274 0.00041683 2.87725e-07
-1.35525e-20 -0.0160956 3.28585e-09 4.57689e-07
0 0.0160956 3.28679e-09 3.48115e-07
-1.35525e-20 -0.0161395 0.000104077 4.26683e-07
1.35525e-20 0.0161396 0.000104165 3.50067e-07
0 0.0160608 0.0017677 9.26655e-08
0 -0.0160608 0.00176769 3.04382e-08
7.52918e-22 -0.0161372 0.0008471 1.23135e-07
3.76459e-21 0.0161373 0.000847085 1.91689e-07
0 -0.0161599 3.02539e-09 4.313e-07
1.35525e-20 0.0161601 3.0262e-09 3.49494e-07
0 -0.0159573 0.00276704 8.52638e-08
0 0.0159573 0.00276704 3.03629e-07
-2.25875e-21 -0.0160615 0.00225482 4.70902e-08
-6.77626e-21 0.0160615 0.00225485 1.60815e-07
1.35525e-20 -0.0162498 2.49159e-09 4.07204e-07
-1.35525e-20 0.0162501 2.49177e-09 3.90137e-07
1.6263e-20 -0.0163211 0.00143744 2.79845e-08
-2.71051e-20 0.0163211 0.00143746 8.18936e-08
1.6263e-20 0.0163242 0.00197494 7.64748e-08
0 -0.0163242 0.00197494 2.101e-08
-1.35525e-20 0.0162498 0.00287804 3.49035e-07
2.37169e-20 -0.0162499 0.00287808 8.80605e-08
-2.37169e-20 -0.0165397 1.49574e-09 3.3289e-07
3.04932e-20 0.0165398 1.49534e-09 3.69849e-07
6.77626e-21 -0.016295 0.00289505 8.82668e-08
9.03502e-21 -0.0165484 0.000259337 3.21969e-07
-1.01644e-20 0.0162953 0.00289514 3.58093e-07
-4.51751e-21 0.0165485 0.000259312 4.2069e-07
2.25875e-21 -0.0163611 0.00261002 7.92717e-08
2.25875e-21 0.0163611 0.00261004 3.18828e-07
-2.37169e-20 -0.0166019 1.3988e-09 3.29281e-07
3.38813e-21 0.0166021 1.39827e-09 4.01858e-07
-1.807e-21 -0.0167776 0.000787901 1.46716e-07
9.03502e-22 0.0167777 0.000787893 3.72326e-07
-1.35525e-20 -0.0168222 8.08296e-10 2.92408e-07
1.35525e-20 0.0168225 8.07382e-10 5.78199e-07
-6.77626e-21 -0.0167552 0.00167721 2.25075e-08
-4.51751e-21 0.0167552 0.00167721 8.82365e-08
2.71051e-20 -0.0165883 0.00300631 8.54084e-08
2.71051e-20 0.0165884 0.00300634 4.28664e-07
9.03502e-21 -0.0167309 0.00229146 3.79039e-08
4.51751e-21 0.0167309 0.00229155 1.74868e-07
1.35525e-20 -0.0169395 0.000138934 3.27966e-07
1.35525e-20 0.0169397 0.000138909 5.66482e-07
0 -0.0169618 4.51221e-10 3.33861e-07
0 0.016962 4.50664e-10 5.55729e-07
0 -0.0170688 0.000345436 3.24154e-07
-1.35525e-20 0.0170689 0.000345447 6.74924e-07
-6.77626e-21 -0.0168116 0.00309149 9.51409e-08
6.77626e-21 0.0168118 0.00309158 5.56335e-07
0 -0.0170877 0.00125519 3.31036e-08
0 0.0170878 0.0012552 1.49538e-07
3.38813e-21 0.0168748 0.00299168 5.63266e-07
0 -0.016875 0.00299095 9.49938e-08
6.77626e-21 0.0168748 0.00311544 5.54782e-07
3.38813e-21 -0.0168751 0.00311552 9.21681e-08
-2.25875e-21 -0.0169694 0.00276077 8.45494e-08
-2.25875e-21 0.0169696 0.0027608 4.97956e-07
-5.42101e-20 -0.0170755 0.00207925 1.87328e-08
0 0.0170755 0.00207928 7.69721e-08
6.77626e-21 -0.0173112 7.14994e-11 2.88664e-07
0 0.0173113 7.13385e-11 7.62681e-07
0 -0.0170862 0.00319594 7.79519e-08
2.71051e-20 0.0170864 0.00319602 5.16025e-07
-6.77626e-21 -0.0174106 5.80413e-05 2.81832e-07
0 0.0174107 5.80305e-05 8.30208e-07
1.12938e-20 -0.017396 0.000777646 1.62812e-07
9.03502e-21 0.0173961 0.000777647 5.4569e-07
-6.77626e-21 -0.0174228 5.17378e-11 2.82804e-07
-6.77626e-21 0.0174229 5.16473e-11 8.26282e-07
6.77626e-21 -0.0174571 4.89779e-11 2.85156e-07
0 0.0174572 4.88992e-11 8.38382e-07
-2.25875e-21 -0.0174062 0.00167743 3.32464e-08
2.25875e-21 0.0174063 0.00167744 1.27871e-07
6.77626e-21 -0.0174999 4.75457e-11 2.83369e-07
-6.77626e-21 0.0175 4.74696e-11 8.59187e-07
6.77626e-21 -0.0174999 5.74012e-05 2.8294e-07
0 0.0175 5.73934e-05 8.6379e-07
1.35525e-20 -0.0172465 0.00325641 6.89506e-08
2.03288e-20 0.0172466 0.00325643 5.10082e-07
0 -0.0172985 0.00306859 6.94353e-08
0 0.0172985 0.00306881 5.08793e-07
9.03502e-21 -0.0174314 0.00258926 4.58128e-08
-5.64689e-22 0.0174315 0.00258926 2.86965e-07
1.69407e-21 -0.0174509 0.00333352 5.67384e-08
1.69407e-21 0.0174516 0.00333379 4.77531e-07
2.71051e-20 -0.0177427 0.00123867 5.17548e-08
0 0.0177428 0.0012387 2.12451e-07
0 -0.0174775 0.0033206 5.55429e-08
0 0.0174778 0.00332108 4.74133e-07
0 -0.0174819 0.00334524 5.4587e-08
0 0.0174821 0.0033453 4.71031e-07
0 -0.0178052 0.000414147 2.21212e-07
5.42101e-20 0.0178053 0.000414151 1.10242e-06
0 0.0174998 0.00331875 4.64333e-07
0 -0.0174999 0.00331824 5.38261e-08
0 0.0174997 0.00334099 4.6742e-07
1.69407e-21 -0.0174999 0.00334085 5.35595e-08
0 0.0174997 0.00335193 4.65636e-07
0 -0.0174999 0.00335198 5.31032e-08
-6.77626e-21 0.0178185 2.63056e-11 1.08167e-06
-6.77626e-21 -0.0178186 2.63406e-11 2.52162e-07
0 -0.0177179 0.00210726 3.00436e-08
2.71051e-20 0.017718 0.0021073 7.8244e-08
4.51751e-21 -0.0176365 0.00303796 5.28145e-08
-4.51751e-21 0.0176366 0.00303803 4.45821e-07
0 -0.017647 0.00304321 5.21537e-08
0 0.0176471 0.00304328 4.42326e-07
-2.71051e-20 -0.0177836 0.00345876 3.55757e-08
-1.35525e-20 0.0177837 0.00345884 4.26099e-07
0 0.0181317 5.24975e-05 1.30375e-06
0 -0.0181317 5.24752e-05 2.13398e-07
0 0.0181326 7.40766e-12 1.29539e-06
-6.77626e-21 -0.0181326 7.41305e-12 2.12888e-07
-2.25875e-21 -0.0180574 0.00168505 6.07573e-08
6.77626e-21 0.0180574 0.00168508 1.74702e-07
2.82344e-22 0.0181176 0.000826155 8.3345e-07
3.76459e-22 -0.0181176 0.000826124 1.45676e-07
-1.35525e-20 -0.0178454 0.00337451 3.61643e-08
2.71051e-20 0.0178455 0.00337466 4.35014e-07
0 -0.0181788 1.20855e-12 2.14781e-07
6.77626e-21 0.0181788 1.20217e-12 1.32665e-06
4.51751e-21 -0.0180124 0.00254465 4.35727e-08
0 0.0180125 0.00254474 1.81374e-07
6.77626e-21 -0.018224 6.69062e-05 2.13518e-07
0 0.0182241 6.69481e-05 1.36391e-06
6.77626e-21 -0.0182304 9.59096e-13 2.13314e-07
0 0.0182305 9.55143e-13 1.36455e-06
0 -0.0179191 0.00350977 3.59295e-08
0 0.0179192 0.00350979 4.77618e-07
-4.51751e-22 -0.0180614 0.00308264 3.28372e-08
2.25875e-21 0.0180616 0.0030827 3.44904e-07
0 -0.0184102 0.00127251 8.74828e-08
-2.71051e-20 0.0184102 0.00127252 3.401e-07
1.35525e-20 0.0181249 0.00358718 5.3139e-07
-6.77626e-21 -0.018125 0.00358724 2.94462e-08
2.71051e-20 -0.0183572 0.0021069 7.21686e-08
-2.71051e-20 0.0183573 0.00210693 6.91165e-08
0 -0.0184759 0.00044774 2.10808e-07
0 0.0184759 0.000447749 1.57877e-06
-1.35525e-20 -0.0182298 0.00362666 2.61801e-08
6.77626e-21 0.0182303 0.00362685 5.36012e-07
-4.51751e-21 -0.0182763 0.00343588 2.76861e-08
9.03502e-21 0.0182764 0.00343606 5.15327e-07
2.71051e-20 -0.0183952 0.00281538 2.42893e-08
-2.71051e-20 0.0183953 0.00281544 9.95097e-08
0 -0.0187499 4.64953e-13 1.88332e-07
0 0.01875 4.62741e-13 1.61203e-06
-6.77626e-21 -0.0187499 9.91369e-05 1.88178e-07
0 0.01875 9.91108e-05 1.6156e-06
0 -0.0187019 0.00167404 1.2715e-07
2.82344e-22 0.018702 0.00167409 2.65991e-07
-2.71051e-20 -0.0184505 0.00370969 2.07795e-08
2.71051e-20 0.0184507 0.00370979 5.09348e-07
0 -0.0188246 9.05506e-14 1.87242e-07
0 0.0188247 9.24758e-14 1.62688e-06
-4.51751e-21 0.0188279 0.000901801 1.00246e-06
2.25875e-21 -0.0188279 0.000901792 1.5929e-07
0 -0.018889 0.000100088 1.78903e-07
0 0.0188891 0.000100053 1.65992e-06
5.64689e-22 -0.0187319 0.00243381 8.60678e-08
2.82344e-22 0.0187319 0.00243385 9.85847e-08
0 -0.0188925 7.49718e-14 1.78876e-07
6.77626e-21 0.0188926 7.69407e-14 1.65987e-06
-1.35525e-20 -0.0185631 0.00375372 1.85631e-08
0 0.0185633 0.00375376 5.07726e-07
1.35525e-20 -0.0185979 0.00364125 1.87136e-08
2.71051e-20 0.018598 0.00364145 5.06757e-07
7.52918e-22 -0.0187015 0.0032345 2.95567e-08
-2.63521e-21 0.0187015 0.00323454 3.13921e-07
-6.77626e-21 0.0187498 0.00382104 4.90586e-07
0 -0.0187499 0.00382109 1.41603e-08
6.77626e-21 -0.0191944 6.21354e-14 1.63118e-07
6.77626e-21 0.0191945 6.31148e-14 1.76965e-06
-2.71051e-20 0.019206 0.000471802 1.73516e-06
0 -0.0192061 0.000471779 1.50736e-07
0 -0.0191593 0.00145147 2.26226e-07
2.71051e-20 0.0191594 0.00145147 3.24402e-07
0 -0.0188253 0.00385016 1.29175e-08
0 0.0188256 0.00385027 4.94718e-07
2.71051e-20 -0.0190073 0.00284619 6.7825e-08
0 0.0190073 0.00284625 7.29216e-08
2.71051e-20 -0.0191388 0.00196705 2.31074e-07
2.71051e-20 0.0191388 0.0019671 1.71086e-07
0 -0.0188685 0.00376942 1.29975e-08
-6.77626e-21 0.018869 0.0037691 4.98763e-07
-3.01167e-21 -0.0189582 0.00362216 1.38521e-08
6.02335e-21 0.0189583 0.00362229 4.78002e-07
0 -0.0189216 0.00388925 1.16737e-08
-6.77626e-21 0.0189225 0.00388962 4.9506e-07
0 -0.0193512 0.00171027 2.37099e-07
2.71051e-20 0.0193513 0.00171028 2.76607e-07
-1.8823e-22 0.0194091 0.000938214 1.13553e-06
-9.41148e-22 -0.0194091 0.000938238 1.72929e-07
0 0.0194665 1.03809e-13 1.85756e-06
6.77626e-21 -0.0194667 1.03982e-13 1.45804e-07
-6.77626e-21 0.0194675 3.87291e-05 1.8573e-06
-6.77626e-21 -0.0194677 3.87998e-05 1.45811e-07
0 -0.0193303 0.00249034 1.79073e-07
2.25875e-21 0.0193304 0.00249034 1.07314e-07
0 -0.0191251 0.00398458 7.70684e-09
0 0.0191255 0.00398476 4.79674e-07
4.51751e-21 -0.0192993 0.00322371 8.1485e-08
2.25875e-21 0.0192993 0.00322385 1.9808e-07
1.35525e-20 -0.0191697 0.00393391 7.89831e-09
2.71051e-20 0.0191699 0.0039342 4.86071e-07
-2.71051e-20 -0.0195789 0.00146067 2.59137e-07
-2.71051e-20 0.019579 0.00146066 4.3264e-07
0 -0.0192179 0.00403218 8.88399e-09
0 0.019218 0.00403225 5.30552e-07
0 -0.0195388 0.00196492 2.79503e-07
0 0.0195389 0.00196497 1.85666e-07
0 0.0196412 8.27607e-14 1.90336e-06
0 -0.0196416 8.29008e-14 1.45514e-07
0 0.0196919 0.000506616 1.96759e-06
0 -0.019692 0.000506602 1.41386e-07
4.51751e-22 -0.0193628 0.00368329 1.95263e-08
-3.38813e-22 0.019363 0.00368341 3.69988e-07
0 0.0193747 0.00398015 5.74339e-07
0 -0.019375 0.00397997 8.77142e-09
1.35525e-20 0.0193748 0.00411568 6.05365e-07
-6.77626e-21 -0.0193751 0.00411583 8.76634e-09
0 -0.0196515 0.00282152 2.30888e-07
2.71051e-20 0.0196515 0.00282158 7.57363e-08
-2.71051e-20 -0.0196711 0.00346851 4.71215e-08
5.42101e-20 0.0196711 0.0034686 1.01883e-07
0 -0.0195407 0.00420391 8.60216e-09
-6.77626e-21 0.0195414 0.00420428 6.35958e-07
-1.35525e-20 0.0199999 7.50372e-14 2.02634e-06
-1.35525e-20 -0.02 7.50292e-14 1.42547e-07
-1.35525e-20 -0.02 0.000219893 1.4256e-07
1.35525e-20 0.02 0.000219865 2.02786e-06
2.71051e-21 -0.0196482 0.00405846 7.89598e-09
5.42101e-21 0.0196485 0.0040588 6.07113e-07
7.05861e-23 -0.0199968 0.00175177 4.63043e-07
-6.35275e-22 0.0199969 0.00175158 3.38918e-07
-2.71051e-20 0.0201205 2.66818e-14 2.01385e-06
2.71051e-20 -0.0201205 2.6706e-14 1.44173e-07
4.51751e-21 0.0201123 0.00105023 1.24353e-06
-4.51751e-21 -0.0201123 0.00105023 3.12821e-07
1.8823e-22 0.0200024 0.00235162 1.54764e-07
9.41148e-23 -0.0200024 0.00235148 4.43003e-07
-1.35525e-20 -0.0197164 0.0042974 8.71894e-09
-2.71051e-20 0.0197167 0.00429758 6.16704e-07
-1.12938e-21 -0.0199624 0.00315678 2.62198e-07
1.12938e-21 0.0199624 0.00315685 8.20905e-08
-1.35525e-20 -0.0198178 0.00435143 9.46786e-09
-1.35525e-20 0.0198179 0.00435149 6.18887e-07
0 -0.0198553 0.00424317 9.17347e-09
1.35525e-20 0.0198553 0.00424344 6.15634e-07
0 0.0203123 6.21673e-15 1.98402e-06
0 -0.0203123 6.15453e-15 1.4228e-07
0 0.0203177 0.000130837 1.98208e-06
0 -0.0203178 0.000130887 1.42265e-07
-9.41148e-22 -0.0199698 0.00385615 5.33917e-08
5.64689e-22 0.0199699 0.00385623 3.72422e-07
0 -0.0202712 0.00281164 6.02213e-07
0 0.0202712 0.00281169 7.43965e-08
6.77626e-21 0.0199999 0.00444852 6.14025e-07
0 -0.0200001 0.00444866 9.7422e-09
0 -0.0200603 0.00448072 1.00122e-08
0 0.0200605 0.00448086 6.2127e-07
-2.71051e-20 -0.0202704 0.00349441 1.92149e-07
0 0.0202704 0.00349451 7.50955e-08
0 -0.0201016 0.00441287 9.95812e-09
-3.38813e-21 0.0201022 0.00441245 6.24542e-07
-1.35525e-20 -0.0201267 0.00451611 1.14656e-08
6.77626e-21 0.0201275 0.00451657 6.29393e-07
0 -0.0202111 0.00425017 1.32264e-08
7.52918e-22 0.0202112 0.00425035 5.96774e-07
-5.42101e-20 -0.0206398 0.00178223 9.14172e-07
0 0.0206398 0.00178224 4.06455e-07
5.42101e-20 0.0207252 0.000539947 2.11516e-06
0 -0.0207252 0.000539947 1.44405e-07
-5.64689e-23 -0.0206014 0.00245361 9.36434e-07
-1.12938e-22 0.0206014 0.00245364 1.79025e-07
0 -0.0205843 0.00315109 6.46787e-07
3.38813e-21 0.0205843 0.00315114 8.62047e-08
1.35525e-20 -0.0203415 0.00463057 1.38597e-08
-1.35525e-20 0.0203419 0.00463079 6.31504e-07
2.71051e-20 -0.0203948 0.00457252 1.44234e-08
1.35525e-20 0.0203951 0.00457287 6.40769e-07
-4.51751e-21 -0.0205501 0.00386543 1.91181e-07
0 0.0205501 0.0038656 2.42034e-07
-2.71051e-20 -0.0204458 0.00468612 2.11389e-08
0 0.020446 0.00468621 7.10838e-07
-4.51751e-22 -0.0206078 0.00431767 4.73922e-08
-1.12938e-22 0.0206079 0.0043178 4.88904e-07
0 -0.0209209 0.00278889 1.27801e-06
0 0.0209209 0.00278892 1.32577e-07
1.35525e-20 0.0206249 0.00478151 8.41396e-07
0 -0.0206251 0.00478166 3.31415e-08
0 -0.0208847 0.00349062 5.18995e-07
2.71051e-20 0.0208848 0.00349071 6.37763e-08
0 0.0212499 5.88891e-15 2.31979e-06
0 -0.02125 5.846e-15 2.20446e-07
-1.35525e-20 0.0212499 9.47421e-05 2.31698e-06
-1.35525e-20 -0.02125 9.47488e-05 2.20108e-07
-3.38813e-20 -0.0207393 0.0048425 3.77108e-08
2.71051e-20 0.0207401 0.00484287 8.78333e-07
0 -0.0207851 0.00466132 3.1915e-08
0 0.0207852 0.0046616 8.19065e-07
2.71051e-20 -0.0209257 0.00410299 1.23362e-07
0 0.0209258 0.00410311 1.29294e-07
-4.51751e-21 0.0213163 0.00115801 1.49592e-06
2.25875e-21 -0.0213163 0.00115801 8.57134e-07
-1.35525e-20 0.0213762 3.47416e-16 2.38166e-06
0 -0.0213763 3.52781e-16 2.29892e-07
-2.25875e-21 0.0212885 0.0023263 3.08212e-07
-1.12938e-21 -0.0212885 0.00232628 1.71637e-06
-2.25875e-21 -0.021208 0.00309795 1.41393e-06
2.82344e-21 0.021208 0.00309804 1.21028e-07
0 0.0214867 0.000108918 2.39708e-06
0 -0.0214868 0.000108929 2.34067e-07
0 0.021494 4.39082e-16 2.3949e-06
1.35525e-20 -0.0214941 4.44414e-16 2.33938e-07
0 -0.0209342 0.00494631 3.93313e-08
-1.35525e-20 0.0209345 0.00494647 8.56794e-07
0 -0.0212468 0.00376747 6.69992e-07
-2.77403e-20 0.0212469 0.00376434 9.83693e-08
2.71051e-20 -0.0210473 0.00500657 4.12247e-08
1.35525e-20 0.0210475 0.00500662 8.68882e-07
1.35525e-20 -0.0210904 0.00488635 4.03932e-08
1.35525e-20 0.0210904 0.00488661 8.6206e-07
-2.25875e-21 -0.021209 0.00450257 1.24711e-07
1.8823e-21 0.021209 0.00450263 5.14504e-07
0 -0.0216448 0.00289598 2.66922e-06
0 0.0216448 0.00289599 1.25384e-07
0 0.0212499 0.0051145 8.74887e-07
-1.69407e-20 -0.0212502 0.00511463 4.56732e-08
3.38813e-21 -0.0212808 0.00513096 4.67917e-08
0 0.0212811 0.00513109 8.80856e-07
5.42101e-20 -0.0216428 0.0033368 2.2079e-06
-2.71051e-20 0.0216428 0.00333687 9.67716e-08
0 -0.0213032 0.00509534 4.69929e-08
0 0.0213038 0.00509491 8.82411e-07
2.71051e-20 -0.0215146 0.00414921 3.73436e-07
0 0.0215147 0.00414931 1.01581e-07
-3.38813e-21 -0.0213149 0.00514909 4.85532e-08
0 0.0213156 0.0051495 8.8896e-07
-5.42101e-20 0.0219709 0.000580197 2.59625e-06
0 -0.0219709 0.000580199 3.07131e-07
-4.51751e-21 -0.0214405 0.004897 5.50295e-08
1.50584e-21 0.0214407 0.00489715 8.3107e-07
0 -0.0219196 0.00179912 2.11802e-06
0 0.0219196 0.00179913 7.24948e-07
1.41172e-22 -0.0218787 0.00244236 2.56258e-06
7.05861e-23 0.0218787 0.00244239 3.30001e-07
-2.71051e-20 -0.0218432 0.00311327 2.60468e-06
0 0.0218433 0.0031133 1.18217e-07
7.52918e-22 -0.0218301 0.0038218 1.3536e-06
-1.50584e-21 0.0218301 0.00382182 9.65412e-08
0 -0.0215576 0.00527841 5.64679e-08
0 0.021558 0.0052786 9.10461e-07
-2.71051e-20 -0.0216182 0.00521393 5.83523e-08
-1.35525e-20 0.0216184 0.00521423 9.2318e-07
2.71051e-20 -0.0220639 0.00288704 3.29792e-06
0 0.022064 0.00288704 1.52014e-07
-2.25875e-21 -0.0217938 0.00451153 4.7158e-07
3.76158e-37 0.0217939 0.00451169 3.33551e-07
-2.71051e-20 -0.0220345 0.00332363 2.67164e-06
-2.71051e-20 0.0220345 0.0033237 1.04233e-07
2.71051e-20 -0.0216749 0.00534089 7.99514e-08
-2.71051e-20 0.021675 0.00534096 1.04463e-06
2.25875e-22 -0.0218357 0.0049688 1.25452e-07
-1.35525e-21 0.0218359 0.0049689 7.08193e-07
1.35525e-20 -0.0225 -1.52821e-17 5.0959e-07
0 0.0225 -1.57465e-17 2.82986e-06
0 -0.0225 8.45373e-05 5.11246e-07
0 0.0225 8.45231e-05 2.834e-06
0 -0.0221466 0.00413235 1.38245e-06
0 0.0221467 0.00413241 9.29213e-08
6.77626e-21 0.0218749 0.00544743 1.25662e-06
-1.35525e-20 -0.0218752 0.00544758 1.16712e-07
1.35525e-20 0.0225909 4.65266e-17 2.89219e-06
0 -0.0225909 4.69287e-17 5.45974e-07
1.12938e-21 0.0225622 0.00117125 1.91463e-06
-5.64689e-21 -0.0225622 0.00117125 1.85886e-06
-3.38813e-21 -0.0219451 0.00548483 1.23824e-07
1.01644e-20 0.0219457 0.00548514 1.29486e-06
-4.51751e-21 -0.0220187 0.00530662 1.09096e-07
-4.51751e-21 0.0220188 0.00530685 1.21039e-06
-2.71051e-20 -0.0221547 0.00476019 2.7876e-07
-2.71051e-20 0.0221548 0.0047603 1.98125e-07
0 0.0226735 8.15432e-05 2.91968e-06
0 -0.0226735 8.15576e-05 5.71664e-07
0 0.0226781 2.50202e-17 2.91858e-06
1.35525e-20 -0.0226781 2.52055e-17 5.71917e-07
3.38813e-21 -0.0225519 0.00239249 3.9869e-06
1.12938e-21 0.0225519 0.00239251 5.20618e-07
-5.64689e-22 -0.0224875 0.00303825 4.09122e-06
0 0.0224874 0.00303838 2.02922e-07
1.27055e-21 -0.0224629 0.00366675 2.94676e-06
0 -0.0225 0.00357657 3.1972e-06
3.5293e-22 0.0224954 0.00364647 1.35125e-07
4.23516e-22 -0.0225054 0.00366219 3.0436e-06
1.69407e-21 -0.0225 0.00370544 2.9481e-06
-1.35525e-20 -0.0221583 0.00559842 1.26751e-07
1.35525e-20 0.0221586 0.00559854 1.29536e-06
8.47033e-22 -0.0225595 0.00366878 3.23706e-06
-4.51751e-21 -0.0224493 0.00445918 1.37489e-06
3.38813e-21 0.0224493 0.00445926 1.51505e-07
0 -0.0222813 0.00566396 1.27816e-07
2.71051e-20 0.0222814 0.00566399 1.32815e-06
0 -0.0223283 0.0055339 1.25764e-07
0 0.0223283 0.00553411 1.31088e-06
2.25875e-21 -0.022442 0.0051554 3.24324e-07
-5.64689e-21 0.0224422 0.00515546 7.81427e-07
0 -0.0227594 0.00412239 2.99624e-06
-2.71051e-20 0.0227594 0.00412245 1.31358e-07
5.42101e-20 0.0231923 0.000587091 3.18699e-06
0 -0.0231923 0.000587093 7.86548e-07
0 0.0225 0.00578038 1.3773e-06
6.77626e-21 -0.0225001 0.00578047 1.39923e-07
-5.42101e-20 -0.0231697 0.00178812 4.32446e-06
-5.42101e-20 0.0231697 0.00178812 1.05984e-06
8.47033e-22 -0.022509 0.0057852 1.40768e-07
0 0.0225092 0.00578529 1.38066e-06
0 -0.0225156 0.00577475 1.40958e-07
0 0.0225161 0.00577442 1.38054e-06
0 -0.0227517 0.00479277 9.67489e-07
-2.71051e-20 0.0227517 0.00479285 1.79654e-07
6.77626e-21 -0.022519 0.00579052 1.41856e-07
-8.47033e-22 0.0225196 0.00579082 1.38751e-06
-5.42101e-20 -0.0231209 0.00309542 6.82863e-06
5.42101e-20 0.0231209 0.00309543 2.55993e-07
6.02335e-21 -0.0226735 0.00554744 1.62036e-07
-6.02335e-21 0.0226736 0.00554757 1.27235e-06
1.12938e-21 -0.0230931 0.0037817 5.09048e-06
-1.8823e-21 0.0230931 0.00378171 1.90959e-07
4.51751e-21 -0.023068 0.00445638 3.08635e-06
0 0.023068 0.00445642 1.8994e-07
1.35525e-20 -0.0227839 0.00593188 1.60577e-07
0 0.0227842 0.005932 1.49437e-06
-1.35525e-20 -0.0228494 0.00586207 1.65366e-07
-1.35525e-20 0.0228495 0.00586228 1.51346e-06
0 -0.0230299 0.00515588 9.82707e-07
4.51751e-21 0.0230299 0.00515601 5.41218e-07
0 -0.0229107 0.00599969 2.20546e-07
0 0.0229108 0.00599972 1.78079e-06
1.807e-21 -0.023072 0.00561895 3.39863e-07
3.61401e-21 0.0230721 0.00561903 1.17906e-06
0 -0.0237499 1.53806e-17 1.05728e-06
0 0.0237499 1.52288e-17 3.57638e-06
0 -0.0237499 6.33779e-05 1.0587e-06
0 0.0237499 6.33677e-05 3.57944e-06
-2.71051e-20 -0.0234048 0.00409564 6.09044e-06
2.71051e-20 0.0234048 0.00409567 2.10107e-07
0 0.0238176 -7.65452e-19 3.63943e-06
-1.35525e-20 -0.0238176 -7.74447e-19 1.09322e-06
0 0.0237988 0.00117061 2.49127e-06
2.25875e-21 -0.0237988 0.00117061 3.3638e-06
0 -0.0233657 0.00479034 2.34327e-06
0 0.0233657 0.00479041 2.33997e-07
1.35525e-20 0.023881 6.14989e-05 3.66894e-06
0 -0.023881 6.15082e-05 1.12887e-06
0 0.0238829 -9.01429e-19 3.66862e-06
0 -0.0238829 -9.09767e-19 1.12914e-06
-5.64689e-22 -0.0237728 0.00241912 7.47056e-06
1.69407e-21 0.0237728 0.00241912 9.17475e-07
3.38813e-21 0.0231249 0.00611537 2.20996e-06
0 -0.0231251 0.00611547 3.1752e-07
-3.38813e-21 -0.0231675 0.00613814 3.27216e-07
2.03288e-20 0.0231678 0.00613837 2.26044e-06
0 -0.0232581 0.00596031 2.92299e-07
0 0.0232581 0.00596047 2.10343e-06
0 -0.0234009 0.00540249 7.47231e-07
0 0.0234009 0.00540257 3.73303e-07
-1.31761e-21 0.0237508 0.00364547 4.37724e-07
1.41172e-21 -0.0237509 0.00364542 7.97594e-06
-3.01167e-21 -0.0236805 0.0044373 5.6987e-06
-2.25875e-21 0.0236805 0.00443733 3.71989e-07
1.35525e-20 -0.0233932 0.00626093 3.2492e-07
-2.71051e-20 0.0233933 0.00626104 2.33149e-06
5.64689e-22 -0.0237268 0.00506487 2.78536e-06
-2.82344e-21 0.0237268 0.00506492 4.11436e-07
6.77626e-21 -0.0235127 0.00635105 3.20922e-07
6.77626e-21 0.0235127 0.00635107 2.42874e-06
-2.71051e-20 0.0235682 0.00620609 2.37256e-06
0 -0.0235683 0.00620596 3.16627e-07
-3.76459e-22 -0.0236825 0.00581857 7.48285e-07
-1.8823e-21 0.0236825 0.00581861 1.4295e-06
5.42101e-20 0.024425 0.000586041 4.08222e-06
5.42101e-20 -0.024425 0.000586042 1.40781e-06
0 -0.0244106 0.0017889 7.05356e-06
5.42101e-20 0.0244106 0.0017889 1.57263e-06
0 -0.0241349 0.00419976 9.95205e-06
0 0.0241349 0.00419977 7.27018e-07
0 -0.0236698 0.00645559 3.29185e-07
-3.38813e-21 0.0236701 0.00645581 2.55427e-06
0 -0.0237098 0.00644182 3.29689e-07
-3.38813e-21 0.0237098 0.0064421 2.56381e-06
2.71051e-20 -0.0241326 0.00462568 8.0104e-06
0 0.0241326 0.00462574 7.08732e-07
3.38813e-21 -0.02371 0.00648353 3.28228e-07
3.38813e-21 0.02371 0.00648359 2.56827e-06
5.42101e-20 -0.0243927 0.00306992 1.16956e-05
-5.42101e-20 0.0243927 0.00306993 7.42313e-07
0 -0.0239945 0.00544749 1.96439e-06
-2.71051e-20 0.0239946 0.00544754 4.49642e-07
-3.38813e-21 0.02375 0.00643561 2.50008e-06
-6.77626e-21 -0.0237501 0.00643531 3.48048e-07
0 0.02375 0.00647619 2.58379e-06
0 -0.0237501 0.0064761 3.2524e-07
0 0.02375 0.00651289 2.59634e-06
-3.38813e-21 -0.0237501 0.00651298 3.19675e-07
1.12938e-21 -0.0243523 0.00372354 1.09087e-05
-2.82344e-22 0.0243523 0.00372357 8.16794e-07
-9.03502e-21 -0.023909 0.00623587 4.03869e-07
-1.35525e-20 0.0239121 0.00623353 2.35673e-06
-2.71051e-20 -0.0243287 0.00441257 9.69686e-06
2.71051e-20 0.0243287 0.00441259 8.04712e-07
0 -0.0239124 0.00663207 2.9554e-07
3.38813e-20 0.0239125 0.00663216 2.63662e-06
2.25875e-21 -0.0243138 0.00512039 5.66086e-06
0 0.0243139 0.00512041 6.90933e-07
-2.71051e-20 -0.0245437 0.00418673 1.21507e-05
2.71051e-20 0.0245437 0.00418673 9.74714e-07
0 -0.0240426 0.00656012 3.01446e-07
-4.06576e-20 0.0240426 0.00656023 2.61162e-06
2.71051e-20 -0.0245161 0.00461185 9.92901e-06
0 0.0245161 0.00461189 9.39478e-07
0 -0.0240315 0.00671934 2.96744e-07
0 0.0240316 0.00671938 2.54253e-06
4.51751e-21 -0.0242758 0.00580919 2.46149e-06
-4.51751e-21 0.0242758 0.00580927 1.14502e-06
0 -0.025 4.25728e-20 1.64074e-06
-6.77626e-21 0.025 4.33043e-20 4.60974e-06
0 0.025 4.32622e-05 4.6111e-06
6.77626e-21 -0.025 4.32621e-05 1.64117e-06
0 -0.025046 -4.79639e-20 1.66076e-06
0 0.025046 -4.77043e-20 4.66819e-06
-2.25875e-21 0.0250354 0.00116998 3.36433e-06
2.25875e-21 -0.0250354 0.00116998 4.88011e-06
-4.06576e-20 -0.0241476 0.00680413 2.76452e-07
0 0.0241477 0.00680414 2.49948e-06
0 0.0250898 4.20523e-05 4.69297e-06
0 -0.0250898 4.20523e-05 1.68693e-06
0 0.0250906 -2.73423e-20 4.6929e-06
0 -0.0250906 -2.74503e-20 1.68708e-06
-1.35525e-20 -0.0241992 0.00668118 2.86951e-07
0 0.0241992 0.00668122 2.51213e-06
-5.64689e-22 0.0250241 0.00240547 1.84502e-06
-1.12938e-21 -0.0250241 0.00240547 1.1372e-05
6.45358e-22 -0.0243359 0.00637899 6.53006e-07
-6.45358e-22 0.0243359 0.00637903 1.9305e-06
0 -0.0246314 0.00542109 6.49104e-06
0 0.0246314 0.00542114 8.54921e-07
0 -0.0250347 0.00367577 1.46623e-05
3.38813e-21 0.0250347 0.00367578 1.84868e-06
1.69407e-21 -0.0243362 0.00694196 2.79986e-07
0 0.0243364 0.00694208 2.52863e-06
0 -0.0243563 0.00693957 2.81376e-07
0 0.0243564 0.0069397 2.53221e-06
0 -0.0243567 0.00695693 2.83773e-07
0 0.0243568 0.00695694 2.54861e-06
0 0.024375 0.00693989 2.50435e-06
0 -0.024375 0.00693977 2.90029e-07
0 -0.0249795 0.00428499 1.34141e-05
0 0.0249795 0.00428507 1.79473e-06
1.69407e-21 0.0243749 0.00695723 2.54529e-06
0 -0.024375 0.00695722 2.8203e-07
0 0.024375 0.00697023 2.55187e-06
1.69407e-21 -0.024375 0.0069703 2.81683e-07
0 -0.0246322 0.00606144 1.7968e-06
0 0.0246322 0.00606149 8.83162e-07
4.51751e-21 -0.0245424 0.00675061 3.37512e-07
3.01167e-21 0.0245425 0.00675063 2.30777e-06