# omega  POINT_DATA 29002
# x  y  z  omega
-1.35525e-20 0.014142 8.40343e-08 1362.67
1.35525e-20 -0.014142 8.40343e-08 1362.87
-6.77626e-21 0.014142 0.000246012 1360.41
6.77626e-21 -0.014142 0.000246012 1360.65
3.38813e-21 0.014142 0.000413825 1462.27
-6.77626e-21 -0.014142 0.000413826 1462.5
0 0.014142 0.000659755 1762.13
-1.35525e-20 -0.014142 0.000659755 1762.26
1.01644e-20 0.014142 0.000918785 2066.52
3.38813e-21 -0.014142 0.000918783 2066.59
6.77626e-21 0.014142 0.00109556 2214.84
3.38813e-21 -0.014142 0.00109556 2214.89
1.35525e-20 0.014142 0.00135458 2343.98
0 -0.014142 0.00135458 2344
3.38813e-21 0.014142 0.00162762 2469.23
-6.77626e-21 -0.014142 0.00162761 2469.22
-1.35525e-20 -0.014252 0.000123092 1362.83
0 0.014252 0.000123069 1362.62
-1.35525e-20 -0.0142534 8.87871e-08 1362.82
0 0.0142534 8.87841e-08 1362.62
-3.38813e-21 0.014142 0.00181396 2272.58
-6.77626e-21 -0.014142 0.00181396 2272.6
0 -0.014252 0.000530042 1609.81
0 0.014252 0.000530052 1609.66
1.35525e-20 0.0142482 0.000775283 1923.32
0 -0.0142482 0.000775286 1923.41
-1.35525e-20 0.014142 0.002087 1557.84
1.35525e-20 -0.014142 0.002087 1557.94
0 -0.0142482 0.00119841 2278.37
0 0.0142482 0.00119841 2278.34
0 0.0142437 0.00144425 2413.7
0 -0.0142438 0.00144425 2413.7
0 0.0142437 0.00188148 1952.28
-1.35525e-20 -0.0142437 0.00188149 1952.35
-1.35525e-20 0.014376 9.02294e-08 1260.09
0 -0.014376 9.02309e-08 1260.19
0 0.0143755 0.000639191 1437.98
0 -0.0143755 0.000639192 1437.06
-6.77626e-21 0.0142627 0.00213224 1296.96
-6.77626e-21 -0.0142627 0.00213225 1297.12
-1.35525e-20 0.0143001 0.00203568 1391.8
-1.35525e-20 -0.0143001 0.00203569 1391.93
0 -0.0144128 0.000955786 2182.03
1.35525e-20 0.0144128 0.000955783 2181.98
0 0.0143938 0.00157761 2523.31
1.35525e-20 -0.0143938 0.00157762 2523.28
0 -0.0143748 0.00187233 1388.47
6.77626e-21 0.0143748 0.00187232 1391.52
0 0.0144696 0.00124239 1725.53
2.25875e-21 -0.0144696 0.00124239 1722.63
0 0.014375 0.00217431 1356.29
-1.35525e-20 -0.014375 0.00217431 1356.43
-4.51751e-21 -0.0145417 0.000318493 1248.66
-2.25875e-21 0.0145417 0.000318489 1248.88
-1.35525e-20 -0.0145497 9.54667e-08 1256.2
0 0.0145497 9.54641e-08 1256.17
0 -0.0145346 0.00078231 1609
1.35525e-20 0.0145346 0.000782317 1610.08
2.71051e-20 0.0145143 0.00222654 1024.36
0 -0.0145144 0.00222654 1024.47
1.16165e-20 0.0146115 0.0016294 1455.25
0 -0.0146115 0.00162941 1450.55
0 -0.0145852 0.00194437 1066.27
0 0.0145842 0.00194387 1066.12
1.35525e-20 -0.0147196 1.04733e-07 1127.9
-2.71051e-20 0.0147196 1.0473e-07 1127.88
-2.11758e-22 0.0145943 0.00194493 1057.49
-1.05879e-22 -0.0145945 0.00194498 1057.51
0 -0.014709 0.000900688 1014.38
2.25875e-21 0.014709 0.000900686 993.653
-2.71051e-20 0.0145865 0.0022536 1145.68
0 -0.0145866 0.00225361 1145.75
4.51751e-21 0.014697 0.00143077 1063.78
0 -0.014697 0.00143078 1081.94
-1.35525e-20 -0.0148082 0.000136863 1041.59
0 0.0148082 0.000136848 1041.6
1.35525e-20 -0.0148167 9.37199e-08 1046.42
-1.35525e-20 0.0148167 9.37185e-08 1046.42
0 -0.0148641 8.83388e-08 1123.36
0 0.0148641 8.83383e-08 1123.35
-5.16287e-21 -0.0148597 0.000623839 854.363
-6.45358e-21 0.0148597 0.000623837 855.226
-1.50584e-21 -0.0148445 0.00116564 774.94
-3.76459e-21 0.0148445 0.00116563 779.418
0 0.0147312 0.00230781 831.912
-2.71051e-20 -0.0147313 0.00230783 831.906
0 0.014833 0.00159147 804.566
-5.01544e-37 -0.014833 0.00159148 798.23
0 -0.015 7.49105e-08 1094.17
1.35525e-20 0.015 7.49089e-08 1094.18
3.76459e-22 0.014988 0.00205398 760.466
9.41148e-23 -0.014988 0.00205397 760.296
-6.77626e-21 -0.0151759 0.000230596 1018.58
6.77626e-21 0.015176 0.000230601 1018.47
0 -0.015 0.00240853 900.775
3.38813e-21 0.015 0.00240854 900.838
0 -0.0152018 0.000843053 334.431
4.51751e-21 0.0152018 0.000843049 332.107
2.37169e-20 0.0150362 0.00242211 924.968
1.69407e-20 -0.0150362 0.00242211 924.926
4.51751e-21 -0.015201 0.00143422 298.302
-4.51751e-21 0.015201 0.00143421 300.941
1.35525e-20 -0.0152989 2.20785e-08 1060.56
-1.35525e-20 0.015299 2.20802e-08 1060.57
-3.38813e-21 0.015119 0.00245307 952.883
-3.38813e-21 -0.015119 0.0024531 952.856
2.71051e-20 -0.015396 0.000531605 749.348
-2.71051e-20 0.015396 0.000531602 748.501
1.35525e-20 -0.0154492 8.76997e-09 1188.93
-1.35525e-20 0.0154492 8.76943e-09 1188.91
-2.71051e-20 -0.0154135 0.00109937 304.738
0 0.0154136 0.00109937 305.925
-1.35525e-20 0.0152769 0.00251208 1030.43
0 -0.0152769 0.0025121 1030.37
-2.71051e-20 0.0153864 0.00178851 539.773
0 -0.0153864 0.00178851 536.152
-1.01644e-20 0.0153097 0.00239045 999.718
-1.01644e-20 -0.0153097 0.00239045 999.67
0 -0.0153854 0.00225223 996.599
1.12938e-21 0.0153854 0.00225223 996.807
0 -0.0156088 7.21589e-09 1251.73
1.35525e-20 0.0156089 7.21525e-09 1251.8
-2.71051e-20 -0.0154657 0.00258282 1219.23
0 0.0154657 0.00258282 1219.32
0 -0.0156825 0.000727925 352.551
-2.25875e-21 0.0156825 0.000727916 344.725
1.12938e-21 -0.0157225 0.000233524 1245.39
7.90564e-21 0.0157226 0.000233532 1245.37
2.25875e-21 -0.0157184 0.00143038 215.088
6.77626e-21 0.0157184 0.00143039 220.242
-8.47033e-22 -0.0156634 0.00226597 990.774
1.69407e-21 0.0156634 0.00226598 992.551
-1.35525e-20 0.0156249 0.00254054 1395.92
0 -0.0156249 0.00254053 1395.83
6.77626e-21 0.0156249 0.0026425 1476.89
6.77626e-21 -0.0156249 0.00264251 1476.81
9.03502e-21 0.0157603 0.00197874 437.203
0 -0.0157603 0.00197874 431.665
1.35525e-20 0.0159582 4.57725e-09 1224.45
0 -0.0159583 4.5756e-09 1224.26
-1.35525e-20 -0.0157578 0.00269219 1591.62
2.71051e-20 0.0157578 0.00269219 1591.76
1.35525e-20 -0.0158038 0.0025027 1481.69
5.42101e-21 0.0158038 0.00250271 1481.81
6.77626e-21 -0.0160273 0.000416841 795.387
6.77626e-21 0.0160274 0.00041683 795.071
-1.35525e-20 -0.0160956 3.28585e-09 1112.86
0 0.0160956 3.28679e-09 1112.95
-1.35525e-20 -0.0161395 0.000104077 971.448
1.35525e-20 0.0161396 0.000104165 971.429
0 0.0160608 0.0017677 324.319
0 -0.0160608 0.00176769 320.449
7.52918e-22 -0.0161372 0.0008471 307.374
3.76459e-21 0.0161373 0.000847085 307.712
0 -0.0161599 3.02539e-09 985.922
1.35525e-20 0.0161601 3.0262e-09 985.9
0 -0.0159573 0.00276704 1211.25
0 0.0159573 0.00276704 1211.39
-2.25875e-21 -0.0160615 0.00225482 843.794
-6.77626e-21 0.0160615 0.00225485 846.864
1.35525e-20 -0.0162498 2.49159e-09 928.793
-1.35525e-20 0.0162501 2.49177e-09 928.752
1.6263e-20 -0.0163211 0.00143744 181.856
-2.71051e-20 0.0163211 0.00143746 184.652
1.6263e-20 0.0163242 0.00197494 252.776
0 -0.0163242 0.00197494 247.945
-1.35525e-20 0.0162498 0.00287804 1106.17
2.37169e-20 -0.0162499 0.00287808 1105.97
-2.37169e-20 -0.0165397 1.49574e-09 736.093
3.04932e-20 0.0165398 1.49534e-09 736.163
6.77626e-21 -0.016295 0.00289505 1096.42
9.03502e-21 -0.0165484 0.000259337 703.104
-1.01644e-20 0.0162953 0.00289514 1096.55
-4.51751e-21 0.0165485 0.000259312 703.188
2.25875e-21 -0.0163611 0.00261002 1066.82
2.25875e-21 0.0163611 0.00261004 1067.35
-2.37169e-20 -0.0166019 1.3988e-09 728.298
3.38813e-21 0.0166021 1.39827e-09 728.353
-1.807e-21 -0.0167776 0.000787901 334.509
9.03502e-22 0.0167777 0.000787893 336.774
-1.35525e-20 -0.0168222 8.08296e-10 826.373
1.35525e-20 0.0168225 8.07382e-10 826.396
-6.77626e-21 -0.0167552 0.00167721 126.755
-4.51751e-21 0.0167552 0.00167721 131.139
2.71051e-20 -0.0165883 0.00300631 1020.88
2.71051e-20 0.0165884 0.00300634 1021.02
9.03502e-21 -0.0167309 0.00229146 490.727
4.51751e-21 0.0167309 0.00229155 493.849
1.35525e-20 -0.0169395 0.000138934 734.096
1.35525e-20 0.0169397 0.000138909 734.098
0 -0.0169618 4.51221e-10 751.632
0 0.016962 4.50664e-10 751.618
0 -0.0170688 0.000345436 718.376
-1.35525e-20 0.0170689 0.000345447 718.393
-6.77626e-21 -0.0168116 0.00309149 711.263
6.77626e-21 0.0168118 0.00309158 711.128
0 -0.0170877 0.00125519 81.7837
0 0.0170878 0.0012552 87.5967
3.38813e-21 0.0168748 0.00299168 691.858
0 -0.016875 0.00299095 691.846
6.77626e-21 0.0168748 0.00311544 731.819
3.38813e-21 -0.0168751 0.00311552 732.095
-2.25875e-21 -0.0169694 0.00276077 715.069
-2.25875e-21 0.0169696 0.0027608 715.661
-5.42101e-20 -0.0170755 0.00207925 126.634
0 0.0170755 0.00207928 130.148
6.77626e-21 -0.0173112 7.14994e-11 636.551
0 0.0173113 7.13385e-11 636.636
0 -0.0170862 0.00319594 885.915
2.71051e-20 0.0170864 0.00319602 885.854
-6.77626e-21 -0.0174106 5.80413e-05 617.256
0 0.0174107 5.80305e-05 617.349
1.12938e-20 -0.017396 0.000777646 353.28
9.03502e-21 0.0173961 0.000777647 355.148
-6.77626e-21 -0.0174228 5.17378e-11 620.894
-6.77626e-21 0.0174229 5.16473e-11 620.986
6.77626e-21 -0.0174571 4.89779e-11 628.334
0 0.0174572 4.88992e-11 628.424
-2.25875e-21 -0.0174062 0.00167743 95.9265
2.25875e-21 0.0174063 0.00167744 99.7055
6.77626e-21 -0.0174999 4.75457e-11 620.715
-6.77626e-21 0.0175 4.74696e-11 620.811
6.77626e-21 -0.0174999 5.74012e-05 618.923
0 0.0175 5.73934e-05 619.02
1.35525e-20 -0.0172465 0.00325641 955.495
2.03288e-20 0.0172466 0.00325643 955.314
0 -0.0172985 0.00306859 940.712
0 0.0172985 0.00306881 940.57
9.03502e-21 -0.0174314 0.00258926 523.732
-5.64689e-22 0.0174315 0.00258926 528.062
1.69407e-21 -0.0174509 0.00333352 1175.74
1.69407e-21 0.0174516 0.00333379 1176.32
2.71051e-20 -0.0177427 0.00123867 83.7705
0 0.0177428 0.0012387 85.6165
0 -0.0174775 0.0033206 1196.63
0 0.0174778 0.00332108 1196.82
0 -0.0174819 0.00334524 1216.13
0 0.0174821 0.0033453 1216
0 -0.0178052 0.000414147 466.516
5.42101e-20 0.0178053 0.000414151 466.66
0 0.0174998 0.00331875 1196.89
0 -0.0174999 0.00331824 1196.28
0 0.0174997 0.00334099 1239.25
1.69407e-21 -0.0174999 0.00334085 1239.79
0 0.0174997 0.00335193 1250.88
0 -0.0174999 0.00335198 1251.62
-6.77626e-21 0.0178185 2.63056e-11 536.062
-6.77626e-21 -0.0178186 2.63406e-11 535.893
0 -0.0177179 0.00210726 87.9116
2.71051e-20 0.017718 0.0021073 91.7852
4.51751e-21 -0.0176365 0.00303796 989.612
-4.51751e-21 0.0176366 0.00303803 992.017
0 -0.017647 0.00304321 990.892
0 0.0176471 0.00304328 993.439
-2.71051e-20 -0.0177836 0.00345876 1558.69
-1.35525e-20 0.0177837 0.00345884 1558.36
0 0.0181317 5.24975e-05 435.236
0 -0.0181317 5.24752e-05 435.051
0 0.0181326 7.40766e-12 435.826
-6.77626e-21 -0.0181326 7.41305e-12 435.642
-2.25875e-21 -0.0180574 0.00168505 79.2546
6.77626e-21 0.0180574 0.00168508 82.2141
2.82344e-22 0.0181176 0.000826155 263.911
3.76459e-22 -0.0181176 0.000826124 262.369
-1.35525e-20 -0.0178454 0.00337451 1511.28
2.71051e-20 0.0178455 0.00337466 1511.02
0 -0.0181788 1.20855e-12 430.745
6.77626e-21 0.0181788 1.20217e-12 430.931
4.51751e-21 -0.0180124 0.00254465 304.212
0 0.0180125 0.00254474 309.174
6.77626e-21 -0.018224 6.69062e-05 428.114
0 0.0182241 6.69481e-05 428.3
6.77626e-21 -0.0182304 9.59096e-13 427.886
0 0.0182305 9.55143e-13 428.072
0 -0.0179191 0.00350977 1337.48
0 0.0179192 0.00350979 1337.45
-4.51751e-22 -0.0180614 0.00308264 929.053
2.25875e-21 0.0180616 0.0030827 932.722
0 -0.0184102 0.00127251 78.1209
-2.71051e-20 0.0184102 0.00127252 82.4428
1.35525e-20 0.0181249 0.00358718 1163.39
-6.77626e-21 -0.018125 0.00358724 1163.06
2.71051e-20 -0.0183572 0.0021069 66.1583
-2.71051e-20 0.0183573 0.00210693 67.9847
0 -0.0184759 0.00044774 399.33
0 0.0184759 0.000447749 399.553
-1.35525e-20 -0.0182298 0.00362666 1184.07
6.77626e-21 0.0182303 0.00362685 1184.59
-4.51751e-21 -0.0182763 0.00343588 1253.26
9.03502e-21 0.0182764 0.00343606 1253.61
2.71051e-20 -0.0183952 0.00281538 215.024
-2.71051e-20 0.0183953 0.00281544 219.572
0 -0.0187499 4.64953e-13 387.199
0 0.01875 4.62741e-13 387.423
-6.77626e-21 -0.0187499 9.91369e-05 386.795
0 0.01875 9.91108e-05 387.02
0 -0.0187019 0.00167404 77.2033
2.82344e-22 0.018702 0.00167409 81.2171
-2.71051e-20 -0.0184505 0.00370969 1402.91
2.71051e-20 0.0184507 0.00370979 1403.15
0 -0.0188246 9.05506e-14 386.445
0 0.0188247 9.24758e-14 386.675
-4.51751e-21 0.0188279 0.000901801 234.282
2.25875e-21 -0.0188279 0.000901792 231.846
0 -0.018889 0.000100088 381.581
0 0.0188891 0.000100053 381.814
5.64689e-22 -0.0187319 0.00243381 124.799
2.82344e-22 0.0187319 0.00243385 128.302
0 -0.0188925 7.49718e-14 381.586
6.77626e-21 0.0188926 7.69407e-14 381.819
-1.35525e-20 -0.0185631 0.00375372 1462.24
0 0.0185633 0.00375376 1462.47
1.35525e-20 -0.0185979 0.00364125 1454.06
2.71051e-20 0.018598 0.00364145 1454.3
7.52918e-22 -0.0187015 0.0032345 862.368
-2.63521e-21 0.0187015 0.00323454 864.221
-6.77626e-21 0.0187498 0.00382104 1711.23
0 -0.0187499 0.00382109 1711.44
6.77626e-21 -0.0191944 6.21354e-14 356.451
6.77626e-21 0.0191945 6.31148e-14 356.705
-2.71051e-20 0.019206 0.000471802 362.934
0 -0.0192061 0.000471779 362.686
0 -0.0191593 0.00145147 65.5958
2.71051e-20 0.0191594 0.00145147 71.0742
0 -0.0188253 0.00385016 1717.23
0 0.0188256 0.00385027 1717.03
2.71051e-20 -0.0190073 0.00284619 139.872
0 0.0190073 0.00284625 140.56
2.71051e-20 -0.0191388 0.00196705 52.3227
2.71051e-20 0.0191388 0.0019671 58.2375
0 -0.0188685 0.00376942 1678.07
-6.77626e-21 0.018869 0.0037691 1677.68
-3.01167e-21 -0.0189582 0.00362216 1482.23
6.02335e-21 0.0189583 0.00362229 1483.01
0 -0.0189216 0.00388925 1795.55
-6.77626e-21 0.0189225 0.00388962 1795.79
0 -0.0193512 0.00171027 57.9682
2.71051e-20 0.0193513 0.00171028 63.4323
-1.8823e-22 0.0194091 0.000938214 208.714
-9.41148e-22 -0.0194091 0.000938238 205.726
0 0.0194665 1.03809e-13 336.155
6.77626e-21 -0.0194667 1.03982e-13 335.858
-6.77626e-21 0.0194675 3.87291e-05 336.2
-6.77626e-21 -0.0194677 3.87998e-05 335.903
0 -0.0193303 0.00249034 89.5802
2.25875e-21 0.0193304 0.00249034 91.1656
0 -0.0191251 0.00398458 2073.76
0 0.0191255 0.00398476 2073.27
4.51751e-21 -0.0192993 0.00322371 506.684
2.25875e-21 0.0192993 0.00322385 506.575
1.35525e-20 -0.0191697 0.00393391 2026.92
2.71051e-20 0.0191699 0.0039342 2026.57
-2.71051e-20 -0.0195789 0.00146067 64.5665
-2.71051e-20 0.019579 0.00146066 70.816
0 -0.0192179 0.00403218 1776.06
0 0.019218 0.00403225 1776.28
0 -0.0195388 0.00196492 46.4696
0 0.0195389 0.00196497 50.9483
0 0.0196412 8.27607e-14 327.658
0 -0.0196416 8.29008e-14 327.339
0 0.0196919 0.000506616 312.133
0 -0.019692 0.000506602 311.81
4.51751e-22 -0.0193628 0.00368329 1292.12
-3.38813e-22 0.019363 0.00368341 1292.35
0 0.0193747 0.00398015 1608.11
0 -0.019375 0.00397997 1607.5
1.35525e-20 0.0193748 0.00411568 1500.91
-6.77626e-21 -0.0193751 0.00411583 1499.99
0 -0.0196515 0.00282152 84.423
2.71051e-20 0.0196515 0.00282158 82.835
-2.71051e-20 -0.0196711 0.00346851 310.608
5.42101e-20 0.0196711 0.0034686 307.622
0 -0.0195407 0.00420391 1441.71
-6.77626e-21 0.0195414 0.00420428 1442.3
-1.35525e-20 0.0199999 7.50372e-14 302.702
-1.35525e-20 -0.02 7.50292e-14 302.358
-1.35525e-20 -0.02 0.000219893 302.135
1.35525e-20 0.02 0.000219865 302.479
2.71051e-21 -0.0196482 0.00405846 1603.47
5.42101e-21 0.0196485 0.0040588 1604.02
7.05861e-23 -0.0199968 0.00175177 53.7448
-6.35275e-22 0.0199969 0.00175158 59.6209
-2.71051e-20 0.0201205 2.66818e-14 304.334
2.71051e-20 -0.0201205 2.6706e-14 303.985
4.51751e-21 0.0201123 0.00105023 183.294
-4.51751e-21 -0.0201123 0.00105023 179.658
1.8823e-22 0.0200024 0.00235162 67.9009
9.41148e-23 -0.0200024 0.00235148 66.475
-1.35525e-20 -0.0197164 0.0042974 1594.17
-2.71051e-20 0.0197167 0.00429758 1594.43
-1.12938e-21 -0.0199624 0.00315678 159.905
1.12938e-21 0.0199624 0.00315685 155.983
-1.35525e-20 -0.0198178 0.00435143 1607.78
-1.35525e-20 0.0198179 0.00435149 1608.01
0 -0.0198553 0.00424317 1624.22
1.35525e-20 0.0198553 0.00424344 1624.41
0 0.0203123 6.21673e-15 294.966
0 -0.0203123 6.15453e-15 294.609
0 0.0203177 0.000130837 295.008
0 -0.0203178 0.000130887 294.652
-9.41148e-22 -0.0199698 0.00385615 1025.96
5.64689e-22 0.0199699 0.00385623 1024.83
0 -0.0202712 0.00281164 60.4338
0 0.0202712 0.00281169 58.2607
6.77626e-21 0.0199999 0.00444852 1759.81
0 -0.0200001 0.00444866 1759.87
0 -0.0200603 0.00448072 1735
0 0.0200605 0.00448086 1734.72
-2.71051e-20 -0.0202704 0.00349441 171.169
0 0.0202704 0.00349451 162.125
0 -0.0201016 0.00441287 1707.49
-3.38813e-21 0.0201022 0.00441245 1706.99
-1.35525e-20 -0.0201267 0.00451611 1772.86
6.77626e-21 0.0201275 0.00451657 1772.94
0 -0.0202111 0.00425017 1525.11
7.52918e-22 0.0202112 0.00425035 1525.95
-5.42101e-20 -0.0206398 0.00178223 41.5173
0 0.0206398 0.00178224 49.7531
5.42101e-20 0.0207252 0.000539947 277.257
0 -0.0207252 0.000539947 276.857
-5.64689e-23 -0.0206014 0.00245361 50.3849
-1.12938e-22 0.0206014 0.00245364 50.766
0 -0.0205843 0.00315109 94.8129
3.38813e-21 0.0205843 0.00315114 89.3948
1.35525e-20 -0.0203415 0.00463057 1992.22
-1.35525e-20 0.0203419 0.00463079 1991.9
2.71051e-20 -0.0203948 0.00457252 1947.42
1.35525e-20 0.0203951 0.00457287 1947.22
-4.51751e-21 -0.0205501 0.00386543 548.197
0 0.0205501 0.0038656 544.191
-2.71051e-20 -0.0204458 0.00468612 1709.46
0 0.020446 0.00468621 1709.76
-4.51751e-22 -0.0206078 0.00431767 1252.33
-1.12938e-22 0.0206079 0.0043178 1251.76
0 -0.0209209 0.00278889 44.2107
0 0.0209209 0.00278892 41.7977
1.35525e-20 0.0206249 0.00478151 1395.19
0 -0.0206251 0.00478166 1394.16
0 -0.0208847 0.00349062 99.9936
2.71051e-20 0.0208848 0.00349071 92.2015
0 0.0212499 5.88891e-15 262.713
0 -0.02125 5.846e-15 262.278
-1.35525e-20 0.0212499 9.47421e-05 262.879
-1.35525e-20 -0.02125 9.47488e-05 262.445
-3.38813e-20 -0.0207393 0.0048425 1349.09
2.71051e-20 0.0207401 0.00484287 1349.71
0 -0.0207851 0.00466132 1506.91
0 0.0207852 0.0046616 1507.55
2.71051e-20 -0.0209257 0.00410299 302.193
0 0.0209258 0.00410311 295.1
-4.51751e-21 0.0213163 0.00115801 156.273
2.25875e-21 -0.0213163 0.00115801 150.938
-1.35525e-20 0.0213762 3.47416e-16 257.878
0 -0.0213763 3.52781e-16 257.433
-2.25875e-21 0.0212885 0.0023263 44.5601
-1.12938e-21 -0.0212885 0.00232628 41.5343
-2.25875e-21 -0.021208 0.00309795 62.5079
2.82344e-21 0.021208 0.00309804 58.681
0 0.0214867 0.000108918 251.828
0 -0.0214868 0.000108929 251.375
0 0.021494 4.39082e-16 251.761
1.35525e-20 -0.0214941 4.44414e-16 251.308
0 -0.0209342 0.00494631 1524.09
-1.35525e-20 0.0209345 0.00494647 1524.37
0 -0.0212468 0.00376747 170.678
-2.77403e-20 0.0212469 0.00376434 163.527
2.71051e-20 -0.0210473 0.00500657 1548.16
1.35525e-20 0.0210475 0.00500662 1548.44
1.35525e-20 -0.0210904 0.00488635 1560.31
1.35525e-20 0.0210904 0.00488661 1560.55
-2.25875e-21 -0.021209 0.00450257 975.078
1.8823e-21 0.021209 0.00450263 973.118
0 -0.0216448 0.00289598 38.5694
0 0.0216448 0.00289599 36.748
0 0.0212499 0.0051145 1733.82
-1.69407e-20 -0.0212502 0.00511463 1733.95
3.38813e-21 -0.0212808 0.00513096 1725.34
0 0.0212811 0.00513109 1725.06
5.42101e-20 -0.0216428 0.0033368 61.9529
-2.71051e-20 0.0216428 0.00333687 56.9764
0 -0.0213032 0.00509534 1709.97
0 0.0213038 0.00509491 1709.45
2.71051e-20 -0.0215146 0.00414921 175.502
0 0.0215147 0.00414931 166.188
-3.38813e-21 -0.0213149 0.00514909 1746.59
0 0.0213156 0.0051495 1746.66
-5.42101e-20 0.0219709 0.000580197 238.258
0 -0.0219709 0.000580199 237.771
-4.51751e-21 -0.0214405 0.004897 1490.03
1.50584e-21 0.0214407 0.00489715 1490.93
0 -0.0219196 0.00179912 40.005
0 0.0219196 0.00179913 52.5624
1.41172e-22 -0.0218787 0.00244236 38.1281
7.05861e-23 0.0218787 0.00244239 41.2022
-2.71051e-20 -0.0218432 0.00311327 47.0266
0 0.0218433 0.0031133 43.5257
7.52918e-22 -0.0218301 0.0038218 108.479
-1.50584e-21 0.0218301 0.00382182 99.6846
0 -0.0215576 0.00527841 2005.92
0 0.021558 0.0052786 2005.51
-2.71051e-20 -0.0216182 0.00521393 1954.68
-1.35525e-20 0.0216184 0.00521423 1954.39
2.71051e-20 -0.0220639 0.00288704 34.855
0 0.022064 0.00288704 33.825
-2.25875e-21 -0.0217938 0.00451153 527.18
3.76158e-37 0.0217939 0.00451169 521.989
-2.71051e-20 -0.0220345 0.00332363 49.633
-2.71051e-20 0.0220345 0.0033237 44.1085
2.71051e-20 -0.0216749 0.00534089 1686.9
-2.71051e-20 0.021675 0.00534096 1687.09
2.25875e-22 -0.0218357 0.0049688 1237.88
-1.35525e-21 0.0218359 0.0049689 1236.93
1.35525e-20 -0.0225 -1.52821e-17 235.854
0 0.0225 -1.57465e-17 236.352
0 -0.0225 8.45373e-05 235.818
0 0.0225 8.45231e-05 236.317
0 -0.0221466 0.00413235 98.0047
0 0.0221467 0.00413241 86.2917
6.77626e-21 0.0218749 0.00544743 1346.49
-1.35525e-20 -0.0218752 0.00544758 1345.63
1.35525e-20 0.0225909 4.65266e-17 236.592
0 -0.0225909 4.69287e-17 236.092
1.12938e-21 0.0225622 0.00117125 147.599
-5.64689e-21 -0.0225622 0.00117125 138.997
-3.38813e-21 -0.0219451 0.00548483 1319.44
1.01644e-20 0.0219457 0.00548514 1319.99
-4.51751e-21 -0.0220187 0.00530662 1474.78
-4.51751e-21 0.0220188 0.00530685 1475.3
-2.71051e-20 -0.0221547 0.00476019 311.681
-2.71051e-20 0.0221548 0.0047603 303.021
0 0.0226735 8.15432e-05 234.822
0 -0.0226735 8.15576e-05 234.319
0 0.0226781 2.50202e-17 234.811
1.35525e-20 -0.0226781 2.52055e-17 234.308
3.38813e-21 -0.0225519 0.00239249 35.9496
1.12938e-21 0.0225519 0.00239251 43.8009
-5.64689e-22 -0.0224875 0.00303825 38.6631
0 0.0224874 0.00303838 37.5537
1.27055e-21 -0.0224629 0.00366675 69.2592
0 -0.0225 0.00357657 62.6105
3.5293e-22 0.0224954 0.00364647 60.3427
4.23516e-22 -0.0225054 0.00366219 66.7243
1.69407e-21 -0.0225 0.00370544 72.9696
-1.35525e-20 -0.0221583 0.00559842 1501.66
1.35525e-20 0.0221586 0.00559854 1501.97
8.47033e-22 -0.0225595 0.00366878 65.163
-4.51751e-21 -0.0224493 0.00445918 166.863
3.38813e-21 0.0224493 0.00445926 156.599
0 -0.0222813 0.00566396 1526.21
2.71051e-20 0.0222814 0.00566399 1526.52
0 -0.0223283 0.0055339 1540.59
0 0.0223283 0.00553411 1540.87
2.25875e-21 -0.022442 0.0051554 965.445
-5.64689e-21 0.0224422 0.00515546 963.063
0 -0.0227594 0.00412239 68.9161
-2.71051e-20 0.0227594 0.00412245 60.9018
5.42101e-20 0.0231923 0.000587091 232.716
0 -0.0231923 0.000587093 232.198
0 0.0225 0.00578038 1717.34
6.77626e-21 -0.0225001 0.00578047 1717.18
-5.42101e-20 -0.0231697 0.00178812 38.7306
-5.42101e-20 0.0231697 0.00178812 60.1182
8.47033e-22 -0.022509 0.0057852 1714.48
0 0.0225092 0.00578529 1714.53
0 -0.0225156 0.00577475 1710.06
0 0.0225161 0.00577442 1709.94
0 -0.0227517 0.00479277 174.555
-2.71051e-20 0.0227517 0.00479285 161.59
6.77626e-21 -0.022519 0.00579052 1720.45
-8.47033e-22 0.0225196 0.00579082 1720.73
-5.42101e-20 -0.0231209 0.00309542 29.8994
5.42101e-20 0.0231209 0.00309543 30.9273
6.02335e-21 -0.0226735 0.00554744 1466.61
-6.02335e-21 0.0226736 0.00554757 1468.32
1.12938e-21 -0.0230931 0.0037817 50.987
-1.8823e-21 0.0230931 0.00378171 45.6632
4.51751e-21 -0.023068 0.00445638 99.4742
0 0.023068 0.00445642 90.0565
1.35525e-20 -0.0227839 0.00593188 1993.43
0 0.0227842 0.005932 1993.34
-1.35525e-20 -0.0228494 0.00586207 1939.16
-1.35525e-20 0.0228495 0.00586228 1939.15
0 -0.0230299 0.00515588 508.924
4.51751e-21 0.0230299 0.00515601 503.887
0 -0.0229107 0.00599969 1647.19
0 0.0229108 0.00599972 1647.52
1.807e-21 -0.023072 0.00561895 1215.97
3.61401e-21 0.0230721 0.00561903 1215.72
0 -0.0237499 1.53806e-17 232.595
0 0.0237499 1.52288e-17 233.131
0 -0.0237499 6.33779e-05 232.598
0 0.0237499 6.33677e-05 233.134
-2.71051e-20 -0.0234048 0.00409564 45.5513
2.71051e-20 0.0234048 0.00409567 39.182
0 0.0238176 -7.65452e-19 233.341
-1.35525e-20 -0.0238176 -7.74447e-19 232.805
0 0.0237988 0.00117061 148.892
2.25875e-21 -0.0237988 0.00117061 136.499
0 -0.0233657 0.00479034 104.648
0 0.0233657 0.00479041 94.5792
1.35525e-20 0.023881 6.14989e-05 233.229
0 -0.023881 6.15082e-05 232.693
0 0.0238829 -9.01429e-19 233.229
0 -0.0238829 -9.09767e-19 232.693
-5.64689e-22 -0.0237728 0.00241912 32.6661
1.69407e-21 0.0237728 0.00241912 46.5923
3.38813e-21 0.0231249 0.00611537 1308.74
0 -0.0231251 0.00611547 1308.07
-3.38813e-21 -0.0231675 0.00613814 1290.65
2.03288e-20 0.0231678 0.00613837 1291.06
0 -0.0232581 0.00596031 1436.7
0 0.0232581 0.00596047 1437.14
0 -0.0234009 0.00540249 300.089
0 0.0234009 0.00540257 291.598
-1.31761e-21 0.0237508 0.00364547 36.9236
1.41172e-21 -0.0237509 0.00364542 39.1797
-3.01167e-21 -0.0236805 0.0044373 66.9595
-2.25875e-21 0.0236805 0.00443733 60.2828
1.35525e-20 -0.0233932 0.00626093 1430.1
-2.71051e-20 0.0233933 0.00626104 1430.3
5.64689e-22 -0.0237268 0.00506487 170.741
-2.82344e-21 0.0237268 0.00506492 163.078
6.77626e-21 -0.0235127 0.00635105 1427.6
6.77626e-21 0.0235127 0.00635107 1427.73
-2.71051e-20 0.0235682 0.00620609 1453.93
0 -0.0235683 0.00620596 1453.8
-3.76459e-22 -0.0236825 0.00581857 914.442
-1.8823e-21 0.0236825 0.00581861 916.063
5.42101e-20 0.024425 0.000586041 233.666
5.42101e-20 -0.024425 0.000586042 233.109
0 -0.0244106 0.0017889 37.3232
5.42101e-20 0.0244106 0.0017889 65.0007
0 -0.0241349 0.00419976 39.9504
0 0.0241349 0.00419977 36.5148
0 -0.0236698 0.00645559 1469.73
-3.38813e-21 0.0236701 0.00645581 1470.03
0 -0.0237098 0.00644182 1482.96
-3.38813e-21 0.0237098 0.0064421 1483.21
2.71051e-20 -0.0241326 0.00462568 61.5826
0 0.0241326 0.00462574 57.4516
3.38813e-21 -0.02371 0.00648353 1505.54
3.38813e-21 0.02371 0.00648359 1505.69
5.42101e-20 -0.0243927 0.00306992 24.4036
-5.42101e-20 0.0243927 0.00306993 29.2219
0 -0.0239945 0.00544749 171.052
-2.71051e-20 0.0239946 0.00544754 162.92
-3.38813e-21 0.02375 0.00643561 1449.07
-6.77626e-21 -0.0237501 0.00643531 1446.97
0 0.02375 0.00647619 1516.6
0 -0.0237501 0.0064761 1516.49
0 0.02375 0.00651289 1540.48
-3.38813e-21 -0.0237501 0.00651298 1540.47
1.12938e-21 -0.0243523 0.00372354 33.1465
-2.82344e-22 0.0243523 0.00372357 32.8127
-9.03502e-21 -0.023909 0.00623587 1313
-1.35525e-20 0.0239121 0.00623353 1317.77
-2.71051e-20 -0.0243287 0.00441257 46.2007
2.71051e-20 0.0243287 0.00441259 43.0419
0 -0.0239124 0.00663207 1670.61
3.38813e-20 0.0239125 0.00663216 1670.92
2.25875e-21 -0.0243138 0.00512039 103.293
0 0.0243139 0.00512041 99.3958
-2.71051e-20 -0.0245437 0.00418673 33.4607
2.71051e-20 0.0245437 0.00418673 31.5407
0 -0.0240426 0.00656012 1666.12
-4.06576e-20 0.0240426 0.00656023 1666.41
2.71051e-20 -0.0245161 0.00461185 46.2695
0 0.0245161 0.00461189 43.6115
0 -0.0240315 0.00671934 1742.03
0 0.0240316 0.00671938 1742.3
4.51751e-21 -0.0242758 0.00580919 455.197
-4.51751e-21 0.0242758 0.00580927 464.568
0 -0.025 4.25728e-20 233.755
-6.77626e-21 0.025 4.33043e-20 234.339
0 0.025 4.32622e-05 234.34
6.77626e-21 -0.025 4.32621e-05 233.756
0 -0.025046 -4.79639e-20 233.8
0 0.025046 -4.77043e-20 234.387
-2.25875e-21 0.0250354 0.00116998 152.714
2.25875e-21 -0.0250354 0.00116998 136.682
-4.06576e-20 -0.0241476 0.00680413 1828.08
0 0.0241477 0.00680414 1828.3
0 0.0250898 4.20523e-05 234.411
0 -0.0250898 4.20523e-05 233.826
0 0.0250906 -2.73423e-20 234.411
0 -0.0250906 -2.74503e-20 233.826
-1.35525e-20 -0.0241992 0.00668118 1782.65
0 0.0241992 0.00668122 1782.87
-5.64689e-22 0.0250241 0.00240547 49.6048
-1.12938e-21 -0.0250241 0.00240547 30.5414
6.45358e-22 -0.0243359 0.00637899 1165.53
-6.45358e-22 0.0243359 0.00637903 1179.21
0 -0.0246314 0.00542109 87.1803
0 0.0246314 0.00542114 87.3196
0 -0.0250347 0.00367577 27.5001
3.38813e-21 0.0250347 0.00367578 29.9013
1.69407e-21 -0.0243362 0.00694196 1997.8
0 0.0243364 0.00694208 1998.23
0 -0.0243563 0.00693957 2006.13
0 0.0243564 0.0069397 2006.5
0 -0.0243567 0.00695693 2009.68
0 0.0243568 0.00695694 2010.03
0 0.024375 0.00693989 1983.57
0 -0.024375 0.00693977 1982.01
0 -0.0249795 0.00428499 35.1493
0 0.0249795 0.00428507 34.3707
1.69407e-21 0.0243749 0.00695723 2027.21
0 -0.024375 0.00695722 2026.97
0 0.024375 0.00697023 2036.18
1.69407e-21 -0.024375 0.0069703 2036
0 -0.0246322 0.00606144 243.618
0 0.0246322 0.00606149 269.175
4.51751e-21 -0.0245424 0.00675061 1788.67
3.01167e-21 0.0245425 0.00675063 1794.46
2.82344e-22 -0.0249911 0.00494763 58.6762
8.47033e-22 0.0249911 0.00494764 58.9279
-1.12938e-21 -0.0249356 0.00573781 128.495
-3.38813e-21 0.0249356 0.00573785 138.358
-2.71051e-20 -0.0246075 0.00714003 2146.88
-1.35525e-20 0.0246076 0.00714004 2147.19
5.42101e-20 0.0256596 0.000584403 235.1
5.42101e-20 -0.0256596 0.000584399 234.486
-2.71051e-20 -0.0246898 0.00706692 2094.24
0 0.0246898 0.00706694 2094.56
0 0.0256513 0.00178375 73.6631
-5.42101e-20 -0.0256513 0.00178375 37.7313
-2.25875e-21 -0.0249064 0.00639899 645.236
-4.51751e-21 0.0249064 0.00639903 662.551
2.71051e-20 0.0247468 0.00724165 1699.52
0 -0.0247468 0.00724167 1699.09
2.71051e-20 -0.0252513 0.00539781 56.2561
-2.71051e-20 0.0252513 0.00539784 57.8123
1.0842e-19 0.0256477 0.00303996 29.634
0 -0.0256477 0.00303996 22.391
4.51751e-22 -0.0249285 0.00685564 1314.72
0 0.0249285 0.00685565 1325.89
0 -0.0252422 0.00605447 121.36
0 0.0252422 0.0060545 132.475
0 -0.0256136 0.00437241 27.5163
5.42101e-20 0.0256136 0.00437242 28.3586
0 -0.0249514 0.00739106 1185.63
0 0.0249514 0.00739106 1186.13
0 0.025 0.00734698 1167.23
-3.38813e-21 -0.025 0.00734695 1166.72
-1.01644e-20 0.025 0.00742651 1170.23
0 -0.025 0.00742654 1169.71
0 -0.025588 0.00505815 41.8585
1.50584e-21 0.025588 0.00505815 43.1867
0 0.0251003 0.00720442 1341.62
9.03502e-21 -0.0251003 0.00720441 1341.1
0 -0.02526 0.00665811 324.441
-2.71051e-20 0.02526 0.00665814 345.033
1.12938e-21 -0.0255647 0.0057142 70.9817
1.12938e-21 0.0255647 0.00571422 75.3635
0 0.0262499 -1.17333e-20 236.918
0 0.0262499 2.68782e-05 236.919
0 -0.02625 -1.18191e-20 236.214
3.38813e-21 -0.02625 2.68839e-05 236.215
0 0.0262784 8.82353e-22 236.996
0 -0.0262785 8.93139e-22 236.286
-2.71051e-20 -0.0251837 0.0075606 1249.21
1.35525e-20 0.0251837 0.0075606 1249.76
5.64689e-22 0.0262748 0.00116563 157.72
-5.64689e-22 -0.0262748 0.00116563 138.218
0 0.026306 2.61551e-05 237.028
3.38813e-21 -0.0263061 2.61606e-05 236.319
0 0.0263062 9.74042e-22 237.028
-3.38813e-21 -0.0263063 9.84463e-22 236.319
0 -0.0255555 0.00636327 172.708
0 0.0255555 0.00636329 183.846
0 0.0262714 0.00239141 53.8563
-5.64689e-22 -0.0262715 0.00239141 30.2547
-2.71051e-20 -0.0259044 0.00536018 36.143
-2.71051e-20 0.0259044 0.00536019 37.3915
-1.35525e-20 0.0253355 0.00767149 1208.08
-6.77626e-21 -0.0253355 0.0076715 1207.5
0 -0.0255298 0.00708812 843.069
1.50584e-21 0.0255298 0.00708813 858.061
5.64689e-22 0.0262615 0.00368784 28.6857
5.64689e-22 -0.0262615 0.00368784 23.303
0 -0.0253883 0.00771 1212.49
3.38813e-21 0.0253883 0.00771 1213.08
-2.71051e-21 0.0254866 0.00748704 1233.09
-5.42101e-21 -0.0254866 0.00748704 1232.51
2.71051e-20 -0.0258703 0.00603066 68.7516
-2.71051e-20 0.0258703 0.00603068 71.8996
6.77626e-21 -0.0255128 0.00767403 1250.94
0 0.0255128 0.00767405 1251.55
0 -0.025508 0.00779742 1304.21
0 0.025508 0.00779742 1304.82