# p  POINT_DATA 52043
# x  y  z  p
0.014142 -1.35525e-20 8.40343e-08 -0.00477348
-0.014142 1.35525e-20 8.40343e-08 0.0110767
-0.014142 -6.77626e-21 0.000246014 0.0110741
0.014142 0 0.000246007 -0.00477303
-0.014142 6.77626e-21 0.000413822 0.0110742
0.014142 -6.77626e-21 0.000413834 -0.00477304
-0.014142 -1.35525e-20 0.000659755 0.0110769
0.014142 0 0.000659755 -0.00477352
-0.014142 3.38813e-21 0.000918791 0.0110757
0.014142 6.77626e-21 0.000918788 -0.00477362
0.014142 0 0.00109554 -0.00477361
-0.014142 1.01644e-20 0.00109555 0.0110758
0.014142 1.35525e-20 0.00135458 -0.00477347
-0.014142 1.35525e-20 0.00135458 0.0110771
0.014142 -1.01644e-20 0.00162764 -0.00477358
-0.014142 3.38813e-21 0.00162762 0.0110759
-0.014252 0 0.000123103 0.0110742
0.014252 -1.35525e-20 0.00012308 -0.00477159
-0.0142534 0 8.87869e-08 0.0110742
0.0142534 -1.35525e-20 8.87839e-08 -0.00477159
0.014142 3.38813e-21 0.00181395 -0.00477357
-0.014142 0 0.00181396 0.0110759
-0.014252 0 0.000530071 0.0110744
0.014252 0 0.000530089 -0.00477162
-0.0142482 0 0.00077532 0.0110752
0.0142482 1.35525e-20 0.00077531 -0.00477196
0.014142 -1.35525e-20 0.002087 -0.00477345
-0.014142 1.35525e-20 0.002087 0.0110771
-0.0142482 0 0.00119849 0.0110753
0.0142482 0 0.00119848 -0.00477193
0.0142438 0 0.00144431 -0.00477197
-0.0142438 1.35525e-20 0.00144431 0.0110754
0.0142438 1.35525e-20 0.00188165 -0.00477195
-0.0142438 0 0.00188166 0.0110754
0.014376 -1.35525e-20 9.02284e-08 -0.00477014
-0.014376 0 9.023e-08 0.0110741
0.0143755 1.35525e-20 0.000639268 -0.00477019
-0.0143755 0 0.000639267 0.0110746
-0.0142629 6.77626e-21 0.00213232 0.0110767
0.0142629 6.77626e-21 0.00213231 -0.00477238
-0.0143002 -1.35525e-20 0.00203592 0.0110761
0.0143002 0 0.00203591 -0.00477158
-0.0144129 -1.35525e-20 0.000955929 0.0110748
0.0144129 0 0.000955927 -0.00476963
0.0143941 1.35525e-20 0.00157783 -0.00476968
-0.0143941 1.35525e-20 0.00157784 0.0110747
-0.0143749 6.77626e-21 0.00187281 0.0110749
0.0143749 6.77626e-21 0.0018728 -0.00476998
-0.0144696 -4.51751e-21 0.00124267 0.0110745
0.0144696 4.51751e-21 0.00124266 -0.00476866
-0.014375 0 0.00217431 0.0110748
0.014375 0 0.00217432 -0.00477011
-0.0145418 0 0.000318554 0.011074
0.0145418 -6.77626e-21 0.000318551 -0.00476833
-0.0145497 1.35525e-20 9.54658e-08 0.0110742
0.0145497 -1.35525e-20 9.54632e-08 -0.00476797
-0.0145347 -1.35525e-20 0.000782523 0.0110742
0.0145347 1.35525e-20 0.000782537 -0.00476795
-0.0145148 1.35525e-20 0.00222669 0.0110727
0.0145148 -1.35525e-20 0.00222669 -0.00476723
0.0146121 1.93608e-21 0.00162981 -0.00476658
-0.0146121 7.7443e-21 0.00162982 0.0110733
-0.0145852 1.05879e-22 0.00194555 0.0110717
0.0145837 -4.87044e-21 0.00194477 -0.00476576
-0.0147196 0 1.04732e-07 0.0110713
0.0147196 0 1.0473e-07 -0.00476506
0.0146004 -1.27055e-21 0.00194655 -0.00476558
-0.0146005 2.0117e-21 0.00194659 0.0110716
-0.0147092 0 0.000900995 0.0110723
0.0147092 4.51751e-21 0.000900993 -0.00476471
-0.0145873 -8.13152e-20 0.00225387 0.0110728
0.0145873 0 0.00225387 -0.00476702
-0.0146975 -2.25875e-21 0.00143127 0.0110729
0.0146975 2.25875e-21 0.00143126 -0.00476458
-0.0148082 0 0.000136903 0.0110704
0.0148083 -1.35525e-20 0.000136875 -0.00476491
-0.0148167 2.71051e-20 9.37179e-08 0.0110704
0.0148167 0 9.37183e-08 -0.0047647
-0.0148641 -1.35525e-20 8.83354e-08 0.0110705
0.0148641 -1.35525e-20 8.83376e-08 -0.00476295
-0.0148598 -1.29072e-21 0.000624026 0.0110699
0.0148598 -2.58143e-21 0.000624027 -0.00476296
-0.0148447 3.26265e-21 0.00116603 0.0110701
0.0148447 -2.25875e-21 0.00116603 -0.00476285
0.0147327 4.06576e-20 0.00230835 -0.00476486
-0.0147327 0 0.00230836 0.0110714
0.0148335 7.52918e-21 0.0015921 -0.00476243
-0.0148335 -3.01167e-21 0.00159211 0.0110698
0.015 1.35525e-20 7.4908e-08 -0.00476093
-0.015 -1.35525e-20 7.49029e-08 0.0110691
-0.0149884 1.50584e-21 0.00205342 0.0110688
0.0149884 1.22349e-21 0.00205341 -0.00476087
-0.015176 2.25875e-21 0.000230687 0.0110678
0.015176 6.77626e-21 0.000230679 -0.00475831
0.015 -3.38813e-21 0.00240854 -0.00476105
-0.015 0 0.00240855 0.0110688
-0.0152021 -4.51751e-21 0.000843378 0.0110671
0.0152021 4.51751e-21 0.000843372 -0.0047581
-0.0150379 0 0.00242273 0.0110684
0.0150379 -3.38813e-21 0.00242272 -0.00476051
-0.0152016 4.51751e-21 0.0014348 0.0110677
0.0152016 -4.51751e-21 0.00143479 -0.00475788
-0.0152989 0 2.20825e-08 0.0110665
0.015299 0 2.20806e-08 -0.00475627
0.0151247 0 0.00245524 -0.00475885
-0.0151247 -3.38813e-21 0.00245526 0.0110658
0.0153962 -2.71051e-20 0.000531794 -0.00475496
-0.0153962 -2.71051e-20 0.000531794 0.0110656
-0.0154492 -1.35525e-20 8.76993e-09 0.0110651
0.0154492 -2.71051e-20 8.76964e-09 -0.00475396
0.0154139 0 0.00109981 -0.00475468
-0.0154139 -2.71051e-20 0.00109982 0.0110653
-0.0152781 0 0.00251266 0.0110622
0.0152781 6.77626e-21 0.00251265 -0.00475612
0.015387 -2.71051e-20 0.00178913 -0.00475508
-0.015387 2.71051e-20 0.00178913 0.0110655
-0.0153098 0 0.00239462 0.0110615
0.0153098 3.38813e-21 0.00239458 -0.00475551
-0.015387 -2.25875e-21 0.00225338 0.0110619
0.015387 0 0.00225337 -0.00475454
0.0156089 -1.35525e-20 7.21547e-09 -0.00475131
-0.0156089 0 7.21529e-09 0.0110614
0.0154678 0 0.00258382 -0.00475415
-0.0154678 -1.35525e-20 0.00258382 0.0110641
-0.0156827 6.77626e-21 0.00072818 0.0110641
0.0156827 -6.77626e-21 0.000728171 -0.00475142
0.0157226 -1.12938e-21 0.000233621 -0.0047496
-0.0157226 -3.38813e-21 0.000233615 0.0110598
0.0157188 4.51751e-21 0.00143117 -0.00474996
-0.0157188 1.12938e-20 0.00143117 0.0110618
-0.0156648 -1.69407e-21 0.00226708 0.0110624
0.0156648 0 0.00226708 -0.00475116
-0.015625 1.35525e-20 0.00254192 0.0110625
0.0156251 0 0.00254193 -0.0047518
-0.015625 -2.03288e-20 0.00264258 0.0110624
0.015625 1.35525e-20 0.00264259 -0.00475182
-0.015761 -9.03502e-21 0.00197935 0.0110618
0.0157611 0 0.00197935 -0.00474953
0.0159582 0 4.57718e-09 -0.00474637
-0.0159583 -1.35525e-20 4.57567e-09 0.0110586
-0.0157606 0 0.00269322 0.011061
0.0157606 -4.06576e-20 0.00269323 -0.00474984
-0.0158055 -2.71051e-21 0.0025037 0.0110615
0.0158056 2.71051e-21 0.00250371 -0.00474941
-0.0160275 -4.06576e-20 0.000416984 0.011059
0.0160275 6.77626e-21 0.000416987 -0.00474559
0.0160955 -1.35525e-20 3.28682e-09 -0.00474485
-0.0160956 0 3.28517e-09 0.0110588
0.0161395 -1.35525e-20 0.000104149 -0.0047441
-0.0161396 0 0.000104133 0.0110584
0.0160615 0 0.00176843 -0.00474511
-0.0160615 0 0.00176842 0.0110589
-0.0161376 1.50584e-21 0.000847369 0.0110588
0.0161376 -9.78794e-21 0.000847386 -0.00474409
0.01616 -1.35525e-20 3.02629e-09 -0.00474384
-0.01616 -1.35525e-20 3.02459e-09 0.0110584
-0.0159592 2.71051e-20 0.00276747 0.0110594
0.0159593 -2.71051e-20 0.00276748 -0.004747
-0.0160632 -1.35525e-20 0.00225586 0.0110584
0.0160632 -1.35525e-20 0.00225589 -0.00474505
0.0162499 0 2.49196e-09 -0.00474214
-0.01625 -1.35525e-20 2.49049e-09 0.011058
0.0163213 8.13152e-21 0.00143843 -0.00474128
-0.0163214 -1.0842e-20 0.0014384 0.011057
-0.0163246 0 0.0019752 0.0110563
0.0163246 8.13152e-21 0.00197521 -0.00474127
-0.01625 1.69407e-20 0.00287738 0.0110566
0.0162501 -3.38813e-20 0.00287742 -0.00474258
0.0165397 2.37169e-20 1.49551e-09 -0.00473692
-0.0165398 1.01644e-20 1.49503e-09 0.0110569
0.0165485 0 0.000259443 -0.00473786
-0.0165486 0 0.00025939 0.0110569
-0.0162993 2.03288e-20 0.00289583 0.0110562
0.0162996 -3.04932e-20 0.00289591 -0.00474187
-0.0163628 -2.25875e-21 0.0026102 0.0110557
0.0163629 4.51751e-21 0.00261026 -0.00474096
0.016602 2.03288e-20 1.39857e-09 -0.00473611
-0.0166022 -1.01644e-20 1.39777e-09 0.0110564
0.0167779 1.17455e-20 0.000788065 -0.00473445
-0.0167779 -1.807e-21 0.000788044 0.0110529
0.0168224 0 8.07643e-10 -0.00473381
-0.0168225 -1.35525e-20 8.07608e-10 0.0110538
-0.016756 6.77626e-21 0.00167756 0.0110524
0.016756 4.51751e-21 0.00167758 -0.00473489
-0.0165907 0 0.00300593 0.0110532
0.0165909 -2.71051e-20 0.00300602 -0.00473803
-0.0167321 -4.51751e-21 0.00229258 0.0110523
0.0167321 -4.51751e-21 0.00229264 -0.00473541
0.0169397 -1.35525e-20 0.000139012 -0.00473201
-0.0169397 0 0.000138902 0.0110525
-0.0169619 -1.35525e-20 4.50845e-10 0.0110522
0.0169619 0 4.50833e-10 -0.0047315
0.017069 -1.35525e-20 0.00034548 -0.0047311
-0.017069 1.35525e-20 0.000345515 0.0110515
-0.0168154 2.71051e-20 0.00309174 0.0110513
0.0168157 2.03288e-20 0.00309186 -0.00473478
-0.0170882 0 0.00125548 0.0110486
0.0170883 -2.71051e-20 0.00125549 -0.00473
-0.016875 -1.01644e-20 0.00299682 0.0110508
0.0168752 -1.01644e-20 0.00299705 -0.00473388
-0.016875 0 0.00311456 0.0110506
0.0168752 -3.38813e-21 0.00311463 -0.00473398
-0.0169715 -3.38813e-21 0.0027608 0.0110499
0.0169716 -3.38813e-21 0.00276088 -0.00473234
-0.0170765 0 0.00207965 0.0110492
0.0170765 2.71051e-20 0.00207967 -0.00473028
-0.017311 -2.03288e-20 7.14894e-11 0.0110476
0.0173114 0 7.13597e-11 -0.00472702
-0.0170892 -4.06576e-20 0.00319641 0.011048
0.0170896 0 0.00319653 -0.00473121
-0.0174107 -6.77626e-21 5.81532e-05 0.0110466
0.0174108 0 5.80005e-05 -0.00472599
-0.0173964 4.51751e-21 0.000777676 0.0110465
0.0173964 2.25875e-21 0.000777666 -0.00472576
-0.0174228 0 5.17295e-11 0.0110464
0.0174229 0 5.16506e-11 -0.00472575
0.0174572 6.77626e-21 4.88994e-11 -0.00472493
-0.0174572 -6.77626e-21 4.89702e-11 0.0110458
-0.0174069 2.25875e-21 0.00167765 0.0110464
0.017407 2.25875e-21 0.00167766 -0.00472555
0.0175 0 4.74701e-11 -0.00472416
0.0175 0 5.73648e-05 -0.00472415
-0.0175001 0 4.75352e-11 0.0110453
-0.0175001 6.77626e-21 5.75034e-05 0.0110453
-0.0172483 0 0.00325639 0.0110438
0.0172486 1.35525e-20 0.00325649 -0.00472875
-0.0172998 -2.71051e-20 0.00306964 0.011044
0.0173001 0 0.00306981 -0.00472798
-0.0174323 1.69407e-21 0.00258936 0.011045
0.0174324 -1.12938e-21 0.0025894 -0.00472601
-0.0174579 0 0.00333599 0.0110434
0.0174583 1.69407e-21 0.00333616 -0.00472622
-0.0177431 0 0.00123883 0.0110442
0.0177432 -5.42101e-20 0.00123884 -0.00472052
-0.0174808 1.69407e-21 0.00332482 0.0110434
0.017481 0 0.00332506 -0.00472593
-0.0174846 1.69407e-21 0.00334611 0.0110435
0.0174848 0 0.00334621 -0.00472592
-0.0178054 0 0.000414179 0.0110414
0.0178055 0 0.000414187 -0.00471847
-0.0175001 0 0.00332274 0.0110434
0.0175002 0 0.00332299 -0.00472568
-0.0175001 1.69407e-21 0.00334231 0.0110433
0.0175002 3.38813e-21 0.00334243 -0.0047257
-0.0175001 0 0.00335193 0.0110433
0.0175002 0 0.00335199 -0.00472571
0.0178186 3.38813e-21 2.6307e-11 -0.00471926
-0.0178194 3.38813e-21 2.62871e-11 0.0110425
-0.0177187 2.71051e-20 0.00210757 0.0110434
0.0177188 -2.71051e-20 0.0021076 -0.00472134
-0.0176383 9.03502e-21 0.00303865 0.0110436
0.0176385 0 0.00303873 -0.00472378
-0.0176486 0 0.00304387 0.0110435
0.0176488 0 0.00304395 -0.00472365
-0.0177861 1.35525e-20 0.00345972 0.0110403
0.0177863 -1.35525e-20 0.00345982 -0.00472187
0.0181318 0 5.25144e-05 -0.00471419
-0.0181318 -6.77626e-21 5.23832e-05 0.0110395
0.0181327 0 7.40306e-12 -0.00471417
-0.0181328 0 7.40812e-12 0.0110395
-0.0180579 -1.12938e-21 0.00168517 0.0110408
0.018058 3.38813e-21 0.00168519 -0.00471616
-0.0181177 -1.8823e-22 0.000826258 0.0110402
0.0181178 -4.70574e-22 0.000826333 -0.00471465
-0.0178474 -2.71051e-20 0.00337592 0.0110399
0.0178475 -1.35525e-20 0.00337606 -0.00472098
-0.0181788 0 1.20998e-12 0.0110394
0.0181789 -6.77626e-21 1.20234e-12 -0.00471377
-0.0180132 -9.03502e-21 0.0025453 0.0110397
0.0180133 4.51751e-21 0.00254538 -0.00471761
-0.018224 6.77626e-21 6.67961e-05 0.0110392
0.0182242 0 6.69571e-05 -0.00471315
-0.0182303 0 9.60874e-13 0.0110392
0.0182306 0 9.55329e-13 -0.00471307
-0.0179205 -2.71051e-20 0.00351035 0.0110391
0.0179207 0 0.00351043 -0.00472021
-0.0180629 4.06576e-21 0.00308315 0.0110382
0.0180631 9.03502e-22 0.00308322 -0.0047177
-0.0184105 -2.71051e-20 0.00127258 0.0110377
0.0184105 -5.42101e-20 0.00127259 -0.00471067
-0.018125 -6.77626e-21 0.00358731 0.0110373
0.0181251 6.77626e-21 0.00358737 -0.00471741
-0.0183578 5.42101e-20 0.0021071 0.0110379
0.0183579 0 0.00210715 -0.00471211
-0.018476 -2.71051e-20 0.000447745 0.011038
0.0184761 2.71051e-20 0.000447774 -0.00470995
-0.0182327 -3.38813e-20 0.00362784 0.0110362
0.0182331 -2.03288e-20 0.00362801 -0.00471604
-0.0182772 -9.03502e-21 0.0034369 0.011036
0.0182774 1.807e-20 0.00343704 -0.00471536
-0.018396 2.71051e-20 0.00281574 0.0110357
0.0183961 0 0.00281581 -0.00471265
0.01875 0 4.62891e-13 -0.00470582
-0.0187501 0 4.6467e-13 0.0110349
0.01875 0 9.91689e-05 -0.00470581
-0.0187501 6.77626e-21 9.90278e-05 0.0110349
-0.0187024 3.10579e-21 0.00167427 0.0110342
0.0187024 -1.97641e-21 0.00167431 -0.00470686
-0.0184518 -1.35525e-20 0.00371033 0.0110335
0.0184522 1.35525e-20 0.00371046 -0.0047134
0.0188247 0 9.24778e-14 -0.00470477
-0.0188248 -1.35525e-20 9.05194e-14 0.0110341
-0.0188281 -4.51751e-21 0.000901811 0.0110337
0.0188281 0 0.000901813 -0.0047047
-0.0188891 0 9.99751e-05 0.0110332
0.0188891 0 0.000100089 -0.00470365
-0.0187325 -2.82344e-22 0.00243398 0.0110325
0.0187326 5.64689e-22 0.00243401 -0.00470756
-0.0188926 0 7.49551e-14 0.0110332
0.0188926 -1.35525e-20 7.69428e-14 -0.00470364
-0.0185639 1.35525e-20 0.00375412 0.0110307
0.0185642 2.71051e-20 0.00375424 -0.00471165
-0.0185985 0 0.00364208 0.0110308
0.0185987 -2.71051e-20 0.00364225 -0.00471112
-0.0187022 0 0.00323478 0.0110314
0.0187024 -1.12938e-21 0.00323486 -0.00470936
-0.01875 0 0.00382122 0.0110299
0.0187502 0 0.00382131 -0.00470968
0.0191944 6.77626e-21 6.30458e-14 -0.00469962
-0.0191946 -6.77626e-21 6.21199e-14 0.0110303
-0.0192061 -2.71051e-20 0.000471782 0.0110295
0.0192062 0 0.000471778 -0.00469872
-0.0191595 -2.71051e-20 0.00145141 0.0110298
0.0191595 -2.71051e-20 0.00145142 -0.00470021
-0.0188263 0 0.00385065 0.0110297
0.0188267 6.77626e-21 0.00385081 -0.00470887
-0.0190077 -2.71051e-20 0.00284643 0.0110283
0.0190078 5.42101e-20 0.0028465 -0.00470453
-0.019139 0 0.00196722 0.011028
0.019139 5.42101e-20 0.00196726 -0.00470104
-0.0188699 0 0.00376892 0.0110297
0.0188703 0 0.0037689 -0.00470833
-0.0189588 0 0.00362259 0.0110297
0.0189592 -6.02335e-21 0.00362275 -0.00470716
-0.0189237 1.35525e-20 0.00389016 0.011028
0.0189243 -1.35525e-20 0.00389043 -0.0047075
-0.0193514 0 0.0017103 0.0110272
0.0193515 2.71051e-20 0.00171031 -0.00469745
-0.0194092 0 0.000938181 0.0110275
0.0194092 1.31761e-21 0.000938235 -0.00469583
-0.0194666 0 1.03845e-13 0.0110276
0.0194668 0 1.03775e-13 -0.00469581
-0.0194676 0 3.86909e-05 0.0110276
0.0194678 0 3.88215e-05 -0.0046958
-0.0193306 2.25875e-21 0.00249036 0.011026
0.0193307 -7.52918e-22 0.00249038 -0.00469921
-0.019126 0 0.00398495 0.0110258
0.0191265 0 0.00398518 -0.00470497
-0.0192996 4.51751e-21 0.00322408 0.0110254
0.0192998 2.25875e-21 0.00322419 -0.00470138
-0.0191703 -1.35525e-20 0.00393445 0.0110255
0.0191707 0 0.00393471 -0.00470434
-0.0195792 2.71051e-20 0.00146063 0.0110266
0.0195792 5.42101e-20 0.00146063 -0.00469467
-0.0192183 1.35525e-20 0.00403232 0.011025
0.0192187 0 0.00403252 -0.00470394
-0.0195391 2.71051e-20 0.00196502 0.0110256
0.0195391 0 0.00196506 -0.00469581
-0.0196412 0 8.2824e-14 0.011026
0.0196418 0 8.26879e-14 -0.00469341
-0.019692 -2.71051e-20 0.0005066 0.0110259
0.019692 -2.71051e-20 0.000506622 -0.00469327
-0.0193632 2.25875e-22 0.00368353 0.0110239
0.0193636 1.12938e-22 0.00368367 -0.00470138
-0.0193748 -1.35525e-20 0.00398025 0.0110236
0.0193751 1.35525e-20 0.00398046 -0.00470185
-0.0193749 -6.77626e-21 0.00411562 0.0110234
0.0193752 -1.35525e-20 0.00411575 -0.00470209
-0.0196516 0 0.00282164 0.0110237
0.0196518 2.71051e-20 0.0028217 -0.00469609
-0.0196713 -2.71051e-20 0.00346867 0.0110212
0.0196715 -5.42101e-20 0.00346879 -0.00469685
-0.0195416 1.35525e-20 0.00420424 0.0110217
0.0195422 2.03288e-20 0.00420454 -0.00470004
-0.02 1.35525e-20 7.5021e-14 0.011023
0.0200001 1.35525e-20 7.4999e-14 -0.00468883
-0.02 -2.71051e-20 0.000219861 0.011023
0.0200001 -1.35525e-20 0.000219807 -0.00468881
-0.0196486 2.71051e-21 0.00405876 0.0110209
0.019649 -1.0842e-20 0.00405903 -0.00469835
0.019997 1.41172e-22 0.00175126 -0.00468927
-0.019997 0 0.00175132 0.0110218
0.0201205 0 2.66712e-14 -0.00468685
-0.0201205 0 2.67431e-14 0.011022
-0.0201124 0 0.00105022 0.0110216
0.0201124 -2.25875e-21 0.00105024 -0.00468713
-0.0200024 -3.76459e-22 0.00235173 0.0110206
0.0200025 -9.41148e-23 0.0023518 -0.00469042
-0.0197167 0 0.00429743 0.01102
0.0197172 1.35525e-20 0.00429767 -0.00469779
-0.0199625 1.12938e-21 0.00315688 0.0110195
0.0199626 1.12938e-21 0.00315696 -0.00469214
-0.0198179 1.35525e-20 0.00435132 0.0110174
0.0198183 0 0.00435153 -0.00469589
-0.0198553 -2.71051e-20 0.00424327 0.0110175
0.0198557 1.35525e-20 0.00424354 -0.00469535
0.0203123 -2.71051e-20 6.21449e-15 -0.0046841
-0.0203124 -2.71051e-20 6.14666e-15 0.0110202
0.0203177 0 0.000130802 -0.00468403
-0.0203178 0 0.000130833 0.0110202
-0.01997 -5.64689e-22 0.00385617 0.0110181
0.0199702 9.41148e-22 0.00385631 -0.00469354
-0.0202712 2.71051e-20 0.00281169 0.0110168
0.0202713 2.71051e-20 0.00281174 -0.00468689
-0.0199999 0 0.00444833 0.011017
0.0200001 0 0.00444847 -0.00469419
-0.0200605 0 0.00448064 0.0110169
0.0200609 0 0.00448086 -0.00469358
-0.0202705 0 0.00349446 0.0110161
0.0202706 -2.71051e-20 0.00349456 -0.00468854
-0.0201021 0 0.00441229 0.011017
0.0201026 0 0.00441233 -0.00469309
-0.0201274 1.35525e-20 0.00451629 0.0110157
0.020128 -6.77626e-21 0.00451661 -0.00469258
-0.0202112 -3.76459e-21 0.00425016 0.0110171
0.0202116 0 0.00425037 -0.00469173
-0.0206399 -5.42101e-20 0.00178222 0.0110151
0.0206399 -5.42101e-20 0.00178223 -0.00468
0.0207253 -5.42101e-20 0.000539941 -0.0046778
-0.0207253 -5.42101e-20 0.000539939 0.0110161
-0.0206015 0 0.00245364 0.0110148
0.0206016 -3.38813e-22 0.00245367 -0.00468193
-0.0205843 1.12938e-21 0.00315111 0.0110139
0.0205844 1.12938e-21 0.00315116 -0.0046833
-0.0203417 1.35525e-20 0.00463048 0.0110133
0.0203423 1.35525e-20 0.00463076 -0.00468998
-0.0203949 -1.35525e-20 0.00457254 0.011013
0.0203954 0 0.00457285 -0.00468918
-0.0205502 0 0.00386547 0.0110129
0.0205503 -2.25875e-21 0.00386562 -0.00468539
-0.0204458 0 0.00468592 0.0110127
0.0204463 0 0.00468616 -0.00468864
-0.0206078 -5.64689e-22 0.0043176 0.0110116
0.0206081 1.12938e-22 0.00431777 -0.0046857
-0.0209209 5.42101e-20 0.00278889 0.0110122
0.020921 0 0.00278892 -0.00467757
-0.0206248 6.77626e-21 0.0047813 0.011011
0.0206252 6.77626e-21 0.00478146 -0.00468635
-0.0208848 -2.71051e-20 0.00349061 0.0110104
0.0208849 -2.71051e-20 0.0034907 -0.00467993
0.0212501 -1.35525e-20 5.88478e-15 -0.00467086
-0.0212501 0 5.83891e-15 0.0110109
0.0212501 0 9.46703e-05 -0.00467087
-0.0212501 0 9.4684e-05 0.0110109
-0.0207397 -6.77626e-21 0.00484247 0.0110099
0.0207403 0 0.00484278 -0.00468488
-0.0207851 4.51751e-21 0.00466127 0.0110098
0.0207854 -4.51751e-21 0.00466152 -0.00468416
-0.0209257 -2.71051e-20 0.00410294 0.0110093
0.020926 0 0.00410307 -0.00468055
-0.0213163 -1.12938e-21 0.001158 0.0110093
0.0213163 3.38813e-21 0.00115801 -0.00467052
0.0213763 1.35525e-20 3.47593e-16 -0.00466933
-0.0213764 0 3.5283e-16 0.0110098
-0.0212885 1.12938e-21 0.00232627 0.0110081
0.0212886 1.12938e-21 0.00232629 -0.00467219
-0.021208 -2.82344e-22 0.00309796 0.011008
0.021208 1.69407e-21 0.00309802 -0.00467441
0.0214867 0 0.000108836 -0.00466778
-0.0214868 1.35525e-20 0.000108849 0.0110087
0.021494 1.35525e-20 4.39192e-16 -0.0046677
-0.0214941 0 4.44401e-16 0.0110086
-0.0209343 1.35525e-20 0.00494614 0.0110085
0.0209347 0 0.00494637 -0.00468222
-0.0212499 0 0.00376412 0.0110064
0.021247 -2.75286e-21 0.00376429 -0.00467543
-0.0210472 -1.35525e-20 0.00500632 0.0110055
0.0210476 -1.35525e-20 0.00500653 -0.00467963
-0.0210903 0 0.00488625 0.0110057
0.0210906 -2.71051e-20 0.0048865 -0.00467917
-0.0212089 4.51751e-21 0.00450243 0.0110062
0.0212092 -1.12938e-21 0.00450256 -0.00467755
-0.0216448 0 0.00289595 0.0110029
0.0216449 2.71051e-20 0.00289597 -0.00466788
-0.0212498 3.38813e-21 0.00511424 0.0110055
0.0212501 3.38813e-21 0.00511439 -0.00467812
-0.0212808 0 0.00513076 0.0110056
0.0212812 0 0.00513096 -0.00467783
-0.0216428 0 0.00333678 0.0110022
0.0216429 0 0.00333683 -0.00466908
-0.0213035 0 0.00509474 0.0110056
0.0213039 3.38813e-21 0.00509481 -0.00467759
-0.0215146 2.71051e-20 0.00414914 0.0110035
0.0215148 0 0.00414925 -0.00467205
-0.0213152 -6.77626e-21 0.00514909 0.0110049
0.0213157 0 0.00514937 -0.00467729
0.0219709 0 0.000580194 -0.00466136
-0.021971 5.42101e-20 0.000580199 0.0110038
-0.0214405 -9.03502e-21 0.00489685 0.0110061
0.0214409 -3.01167e-21 0.00489705 -0.00467604
-0.0219196 0 0.00179911 0.0110021
0.0219197 0 0.00179912 -0.00466317
-0.0218787 -2.82344e-22 0.00244234 0.011001
0.0218787 7.05861e-23 0.00244237 -0.00466367
-0.0218432 -2.71051e-20 0.00311325 0.0110005
0.0218433 0 0.00311327 -0.00466539
-0.0218301 1.50584e-21 0.00382172 0.0110006
0.0218302 -7.52918e-22 0.00382177 -0.00466679
-0.0215576 1.35525e-20 0.00527824 0.0110023
0.0215581 1.35525e-20 0.00527848 -0.00467455
-0.0216181 1.35525e-20 0.00521384 0.0110019
0.0216185 -1.35525e-20 0.0052141 -0.00467364
-0.022064 0 0.00288701 0.0109989
0.022064 2.71051e-20 0.00288702 -0.00466245
-0.0217938 2.25875e-21 0.00451147 0.0110012
0.021794 -2.25875e-21 0.00451161 -0.00466903
-0.0220345 -2.71051e-20 0.00332361 0.0109986
0.0220346 -2.71051e-20 0.00332366 -0.00466392
-0.0216748 2.71051e-20 0.00534064 0.0110017
0.0216752 2.71051e-20 0.00534085 -0.004673
-0.0218358 -2.25875e-22 0.00496865 0.0110005
0.0218361 1.35525e-21 0.0049688 -0.00466986
0.0225 -1.35525e-20 -1.57376e-17 -0.0046553
-0.0225 0 -1.52709e-17 0.0109985
0.0225 -1.35525e-20 8.44889e-05 -0.0046553
-0.0225 0 8.44943e-05 0.0109985
-0.0221466 0 0.00413228 0.0109986
0.0221467 0 0.00413235 -0.00466297
-0.0218748 -6.77626e-21 0.00544721 0.0109996
0.0218751 1.01644e-20 0.00544736 -0.00467065
0.0225909 -1.35525e-20 4.65091e-17 -0.00465438
-0.0225909 0 4.69172e-17 0.0109976
-0.0225623 0 0.00117125 0.0109966
0.0225623 5.64689e-21 0.00117125 -0.00465516
-0.0219453 1.69407e-20 0.00548473 0.010999
0.0219458 1.69407e-20 0.00548498 -0.0046697
-0.0220186 4.51751e-21 0.0053065 0.0109987
0.0220189 -1.35525e-20 0.00530671 -0.00466849
-0.0221547 2.71051e-20 0.00476009 0.010998
0.0221549 2.71051e-20 0.00476021 -0.00466444
0.0226735 0 8.15118e-05 -0.00465337
-0.0226735 0 8.15168e-05 0.0109968
0.0226781 0 2.50124e-17 -0.00465332
-0.0226781 0 2.52005e-17 0.0109968
-0.0225519 -1.12938e-21 0.00239247 0.0109946
0.0225519 4.51751e-21 0.00239248 -0.00465631
-0.0224875 -5.64689e-22 0.00303827 0.0109945
0.0224875 5.64689e-22 0.00303832 -0.0046578
-0.0224955 -7.05861e-23 0.00364649 0.0109945
0.0224956 7.05861e-23 0.00364646 -0.00465785
-0.0221583 1.35525e-20 0.00559821 0.0109976
0.0221587 -1.35525e-20 0.00559841 -0.00466625
-0.0224493 -2.25875e-21 0.00445911 0.0109954
0.0224494 0 0.00445919 -0.00465915
-0.0222812 1.35525e-20 0.00566371 0.0109943
0.0222816 -2.71051e-20 0.00566387 -0.00466256
-0.0223282 1.35525e-20 0.00553377 0.0109945
0.0223285 2.71051e-20 0.00553397 -0.00466223
-0.022442 2.25875e-21 0.00515525 0.0109952
0.0224423 7.52918e-22 0.00515537 -0.00466114
-0.0227594 0 0.00412234 0.0109921
0.0227595 -2.71051e-20 0.00412239 -0.00465401
0.0231924 5.42101e-20 0.000587087 -0.00464738
-0.0231924 5.42101e-20 0.000587089 0.0109914
-0.0224999 8.47033e-22 0.00578016 0.0109946
0.0225001 0 0.00578025 -0.00466097
-0.0231698 0 0.00178811 0.0109889
0.0231698 1.0842e-19 0.00178811 -0.00464869
-0.022509 0 0.00578499 0.0109946
0.0225093 0 0.00578515 -0.00466088
-0.0225157 8.47033e-22 0.0057743 0.0109946
0.0225162 0 0.00577431 -0.00466082
-0.0227516 0 0.00479269 0.0109928
0.0227518 0 0.00479279 -0.00465496
-0.0225192 -2.5411e-21 0.00579044 0.0109944
0.0225196 -1.01644e-20 0.00579066 -0.00466066
-0.0231209 0 0.00309539 0.0109872
0.023121 0 0.00309541 -0.00464996
-0.0226735 -1.05409e-20 0.00554731 0.0109953
0.0226737 1.50584e-21 0.00554747 -0.00465943
-0.0230931 0 0.00378166 0.0109888
0.0230932 -7.52918e-22 0.00378167 -0.00464906
-0.023068 5.64689e-21 0.00445632 0.0109899
0.0230681 1.12938e-21 0.00445637 -0.00464976
-0.0227839 1.35525e-20 0.00593173 0.0109917
0.0227842 0 0.00593191 -0.00465691
-0.0228493 1.35525e-20 0.00586199 0.0109912
0.0228496 0 0.00586218 -0.00465584
-0.0230298 4.51751e-21 0.00515583 0.0109905
0.02303 0 0.00515594 -0.00465168
-0.0229106 0 0.00599952 0.0109908
0.0229109 2.71051e-20 0.00599968 -0.00465395
-0.023072 -9.03502e-22 0.00561884 0.0109898
0.0230722 9.03502e-22 0.00561896 -0.00465181
-0.0237501 0 1.53747e-17 0.0109858
0.0237501 6.77626e-21 1.52208e-17 -0.0046429
-0.0237501 6.77626e-21 6.33397e-05 0.0109858
0.0237501 6.77626e-21 6.33363e-05 -0.0046429
-0.0234048 0 0.0040956 0.0109866
0.0234049 -2.71051e-20 0.00409564 -0.00464392
0.0238177 0 -7.65578e-19 -0.00464244
-0.0238177 -1.35525e-20 -7.74602e-19 0.0109851
0.0237988 -2.25875e-21 0.00117061 -0.00464275
-0.0237988 0 0.00117061 0.0109837
-0.0233657 -2.71051e-20 0.00479029 0.0109879
0.0233658 2.71051e-20 0.00479035 -0.0046459
0.0238811 6.77626e-21 6.14693e-05 -0.00464188
-0.0238811 -1.35525e-20 6.14724e-05 0.0109845
0.023883 6.77626e-21 -9.01493e-19 -0.00464186
-0.023883 0 -9.09844e-19 0.0109845
-0.0237728 0 0.00241911 0.0109812
0.0237728 5.64689e-22 0.00241911 -0.00464327
-0.0231249 0 0.00611529 0.0109889
0.0231251 -6.77626e-21 0.00611542 -0.00465065
-0.0231675 2.71051e-20 0.00613811 0.0109885
0.0231678 -1.01644e-20 0.00613829 -0.00464975
-0.023258 1.35525e-20 0.00596026 0.010988
0.0232582 -4.51751e-21 0.00596041 -0.00464844
-0.0234008 2.71051e-20 0.00540243 0.0109874
0.0234009 -2.71051e-20 0.00540252 -0.00464611
-0.0237509 -2.82344e-22 0.00364541 0.0109814
0.0237508 -1.03526e-21 0.00364544 -0.00464199
-0.0236805 -5.27043e-21 0.00443726 0.0109832
0.0236806 -1.50584e-21 0.00443729 -0.00464148
-0.0233932 1.35525e-20 0.00626089 0.0109863
0.0233933 0 0.00626103 -0.00464314
-0.0237267 -5.64689e-22 0.00506483 0.0109839
0.0237268 -5.64689e-22 0.00506488 -0.00464048
-0.0235126 0 0.00635102 0.0109823
0.0235127 0 0.00635113 -0.00463647
-0.0235681 0 0.00620595 0.0109827
0.0235683 -1.35525e-20 0.00620608 -0.00463695
-0.0236824 0 0.00581853 0.0109841
0.0236825 7.52918e-22 0.00581861 -0.00463903
0.024425 0 0.00058604 -0.00463753
-0.0244251 -1.0842e-19 0.000586045 0.0109788
0.0244106 5.42101e-20 0.00178889 -0.00463736
-0.0244106 5.42101e-20 0.00178889 0.0109758
-0.0241349 0 0.00419973 0.0109753
0.0241349 0 0.00419974 -0.00463653
-0.0236696 3.38813e-21 0.00645563 0.0109825
0.0236698 0 0.00645575 -0.00463487
-0.0237096 -3.38813e-21 0.00644188 0.0109826
0.0237098 0 0.00644198 -0.0046347
-0.0241326 0 0.00462567 0.0109778
0.0241326 5.42101e-20 0.00462571 -0.00463595
-0.0237098 0 0.00648356 0.0109829
0.02371 0 0.00648366 -0.0046351
-0.0243927 5.42101e-20 0.00306991 0.0109731
0.0243927 5.42101e-20 0.00306991 -0.00463706
-0.0239945 2.71051e-20 0.00544746 0.0109816
0.0239946 0 0.00544753 -0.00463409
-0.0237499 1.35525e-20 0.00643537 0.0109827
0.0237501 0 0.00643548 -0.00463449
-0.0237499 0 0.00647613 0.0109826
0.0237501 0 0.00647623 -0.00463458
-0.0237499 0 0.006513 0.0109825
0.0237501 0 0.00651309 -0.00463462
-0.0243523 5.64689e-22 0.00372353 0.0109736
0.0243524 5.64689e-22 0.00372355 -0.00463408
-0.0239089 0 0.00623589 0.0109836
0.023909 -1.35525e-20 0.00623598 -0.00463359
-0.0243287 0 0.00441255 0.0109749
0.0243287 0 0.00441257 -0.00463248
-0.0239122 6.77626e-21 0.00663214 0.0109807
0.0239123 2.71051e-20 0.00663222 -0.00463118
-0.0243138 -2.25875e-21 0.00512037 0.0109778
0.0243139 2.25875e-21 0.00512041 -0.00462923
-0.0245437 0 0.00418671 0.0109721
0.0245437 0 0.00418672 -0.00462995
-0.0240424 0 0.00656018 0.0109799
0.0240425 1.35525e-20 0.00656027 -0.00462821
-0.0245161 2.71051e-20 0.00461184 0.0109749
0.0245161 0 0.00461186 -0.00462942
-0.0240313 0 0.00671945 0.0109794
0.0240314 -1.35525e-20 0.00671952 -0.00462552
-0.0242758 -4.51751e-21 0.0058092 0.0109788
0.0242758 4.51751e-21 0.00580927 -0.00462599
-0.025 0 4.25541e-20 0.0109735
0.025 -6.77626e-21 4.32721e-20 -0.00463373
-0.025 0 4.32458e-05 0.0109735
0.025 0 4.32338e-05 -0.00463373
0.025046 0 -4.76797e-20 -0.00463347
-0.025046 6.77626e-21 -4.79508e-20 0.0109731
0.0250354 -1.12938e-21 0.00116998 -0.00463323
-0.0250355 -1.12938e-21 0.00116998 0.0109715
-0.0241475 2.71051e-20 0.00680428 0.0109762
0.0241476 1.35525e-20 0.00680434 -0.0046176
0.0250898 -6.77626e-21 4.20265e-05 -0.0046332
-0.0250898 0 4.20372e-05 0.0109727
0.0250906 0 -2.73305e-20 -0.0046332
-0.0250906 6.77626e-21 -2.74441e-20 0.0109727
-0.024199 -1.35525e-20 0.00668127 0.0109766
0.0241991 0 0.00668133 -0.00461839
-0.0250241 5.64689e-22 0.00240547 0.0109683
0.0250241 5.64689e-22 0.00240547 -0.00463242
-0.0243358 1.29072e-21 0.00637905 0.0109775
0.0243359 1.12938e-21 0.00637911 -0.00462029
-0.0246314 -2.71051e-20 0.0054211 0.0109757
0.0246315 -2.71051e-20 0.00542114 -0.00462185
-0.0250347 0 0.00367576 0.0109676
0.0250347 -4.51751e-21 0.00367577 -0.00462802
-0.0243359 0 0.00694205 0.0109758
0.024336 -1.69407e-21 0.00694207 -0.00461314
-0.0243561 0 0.00693965 0.0109759
0.0243562 0 0.00693966 -0.00461288
-0.0243565 1.69407e-21 0.00695709 0.010976
0.0243566 1.69407e-21 0.00695714 -0.00461295
-0.0243749 -1.69407e-21 0.00693984 0.0109759
0.024375 0 0.00693986 -0.00461263
-0.0249795 -1.12938e-21 0.00428502 0.0109695
0.0249795 2.25875e-21 0.00428505 -0.00462555
-0.0243749 0 0.00695738 0.0109758
0.024375 1.69407e-21 0.00695742 -0.00461245
-0.0243749 0 0.00697053 0.0109758
0.024375 0 0.0069706 -0.00461232
-0.0246321 0 0.00606147 0.0109755
0.0246322 0 0.00606153 -0.00461523
-0.0245423 -3.01167e-21 0.00675073 0.0109762
0.0245424 7.52918e-21 0.00675076 -0.00461235
-0.0249911 0 0.00494763 0.0109715
0.0249911 1.12938e-21 0.00494764 -0.0046193
-0.0249356 -3.38813e-21 0.00573783 0.010973
0.0249356 0 0.00573787 -0.00461199
-0.0246074 1.35525e-20 0.0071402 0.0109739
0.0246074 -1.35525e-20 0.00714023 -0.00460447
0.0256596 1.0842e-19 0.000584401 -0.00462945
-0.0256597 0 0.000584393 0.0109674
-0.0246896 1.35525e-20 0.00706705 0.0109735
0.0246896 0 0.00706707 -0.00460306
0.0256513 0 0.00178375 -0.00462852
-0.0256513 -5.42101e-20 0.00178376 0.0109637
-0.0249063 -4.51751e-21 0.00639906 0.0109727
0.0249064 4.51751e-21 0.00639909 -0.00460518
-0.0247466 2.71051e-20 0.00724188 0.0109727
0.0247466 2.71051e-20 0.0072419 -0.00459836
-0.0252513 0 0.00539782 0.01097