# U  POINT_DATA 29002
# x  y  z  U_x  U_y  U_z
-1.35525e-20 0.014142 8.40343e-08 0 0 0
1.35525e-20 -0.014142 8.40343e-08 0 0 0
-6.77626e-21 0.014142 0.000246012 0 0 0
6.77626e-21 -0.014142 0.000246012 0 0 0
3.38813e-21 0.014142 0.000413825 0 0 0
-6.77626e-21 -0.014142 0.000413826 0 0 0
0 0.014142 0.000659755 0 0 0
-1.35525e-20 -0.014142 0.000659755 0 0 0
1.01644e-20 0.014142 0.000918785 0 0 0
3.38813e-21 -0.014142 0.000918783 0 0 0
6.77626e-21 0.014142 0.00109556 0 0 0
3.38813e-21 -0.014142 0.00109556 0 0 0
1.35525e-20 0.014142 0.00135458 0 0 0
0 -0.014142 0.00135458 0 0 0
3.38813e-21 0.014142 0.00162762 0 0 0
-6.77626e-21 -0.014142 0.00162761 0 0 0
-1.35525e-20 -0.014252 0.000123092 -4.14714e-06 3.69168e-06 -9.75402e-07
0 0.014252 0.000123069 -1.25067e-06 6.76836e-07 5.60022e-07
-1.35525e-20 -0.0142534 8.87871e-08 0 0 0
0 0.0142534 8.87841e-08 0 0 0
-3.38813e-21 0.014142 0.00181396 0 0 0
-6.77626e-21 -0.014142 0.00181396 0 0 0
0 -0.014252 0.000530042 -4.1472e-06 3.69174e-06 -9.75418e-07
0 0.014252 0.000530052 -1.25069e-06 6.76847e-07 5.60031e-07
1.35525e-20 0.0142482 0.000775283 -0.000323275 0.000296327 1.18861e-07
0 -0.0142482 0.000775286 -0.000291727 0.000291094 -2.14228e-06
-1.35525e-20 0.014142 0.002087 0 0 0
1.35525e-20 -0.014142 0.002087 0 0 0
0 -0.0142482 0.00119841 -0.00029171 0.000291077 -2.14216e-06
0 0.0142482 0.00119841 -0.000323258 0.000296312 1.18855e-07
0 0.0142437 0.00144425 -0.000339687 0.000317201 -1.73642e-05
0 -0.0142438 0.00144425 -0.000302942 0.000308475 5.74103e-06
0 0.0142437 0.00188148 -0.000339699 0.000317212 -1.73648e-05
-1.35525e-20 -0.0142437 0.00188149 -0.000302954 0.000308487 5.74127e-06
-1.35525e-20 0.014376 9.02294e-08 0 0 0
0 -0.014376 9.02309e-08 0 0 0
0 0.0143755 0.000639191 -0.000386524 0.00039137 7.58162e-06
0 -0.0143755 0.000639192 -0.000270173 0.000281743 -4.70326e-06
-6.77626e-21 0.0142627 0.00213224 0 0 0
-6.77626e-21 -0.0142627 0.00213225 0 0 0
-1.35525e-20 0.0143001 0.00203568 -0.000303966 0.000310927 5.23262e-06
-1.35525e-20 -0.0143001 0.00203569 -0.000300395 0.000289972 7.72627e-06
0 -0.0144128 0.000955786 -0.000704785 0.000728624 -1.19502e-05
1.35525e-20 0.0144128 0.000955783 -0.000793566 0.000813503 5.91305e-06
0 0.0143938 0.00157761 -0.000821531 0.000832467 -3.20515e-06
1.35525e-20 -0.0143938 0.00157762 -0.000715442 0.000746852 -3.8349e-06
0 -0.0143748 0.00187233 -0.000543084 0.000579054 -4.07464e-06
6.77626e-21 0.0143748 0.00187232 -0.000760127 0.000768727 -3.93766e-06
0 0.0144696 0.00124239 -0.00116204 0.00119303 5.30566e-06
2.25875e-21 -0.0144696 0.00124239 -0.000826556 0.000880146 -1.95698e-05
0 0.014375 0.00217431 0 0 0
-1.35525e-20 -0.014375 0.00217431 0 0 0
-4.51751e-21 -0.0145417 0.000318493 -7.99282e-05 8.37883e-05 1.70234e-06
-2.25875e-21 0.0145417 0.000318489 -0.000103144 0.000113191 -9.88794e-07
-1.35525e-20 -0.0145497 9.54667e-08 0 0 0
0 0.0145497 9.54641e-08 0 0 0
0 -0.0145346 0.00078231 -0.000630635 0.000665093 -1.36116e-05
1.35525e-20 0.0145346 0.000782317 -0.000806927 0.000856582 1.35208e-05
2.71051e-20 0.0145143 0.00222654 0 0 0
0 -0.0145144 0.00222654 0 0 0
1.16165e-20 0.0146115 0.0016294 -0.00143725 0.00146904 -5.76053e-07
0 -0.0146115 0.00162941 -0.00103208 0.00110707 -1.19486e-05
0 -0.0145852 0.00194437 -0.000773908 0.000855948 -1.00035e-05
0 0.0145842 0.00194387 -0.000817576 0.000854236 -9.99102e-06
1.35525e-20 -0.0147196 1.04733e-07 0 0 0
-2.71051e-20 0.0147196 1.0473e-07 0 0 0
-2.11758e-22 0.0145943 0.00194493 -0.000829878 0.000867668 -9.22618e-06
-1.05879e-22 -0.0145945 0.00194498 -0.000782829 0.000865108 -9.88466e-06
0 -0.014709 0.000900688 -0.000969378 0.00107089 -6.76594e-06
2.25875e-21 0.014709 0.000900686 -0.00147632 0.00158305 -1.12502e-05
-2.71051e-20 0.0145865 0.0022536 0 0 0
0 -0.0145866 0.00225361 0 0 0
4.51751e-21 0.014697 0.00143077 -0.00187457 0.00198594 1.76284e-05
0 -0.014697 0.00143078 -0.00120517 0.00136425 -4.47973e-05
-1.35525e-20 -0.0148082 0.000136863 -2.7688e-06 3.96291e-06 6.82201e-06
0 0.0148082 0.000136848 3.76143e-08 9.02467e-06 -1.25663e-05
1.35525e-20 -0.0148167 9.37199e-08 0 0 0
-1.35525e-20 0.0148167 9.37185e-08 0 0 0
0 -0.0148641 8.83388e-08 0 0 0
0 0.0148641 8.83383e-08 0 0 0
-5.16287e-21 -0.0148597 0.000623839 -0.000677488 0.000731286 -3.3266e-06
-6.45358e-21 0.0148597 0.000623837 -0.00101397 0.00102825 -6.55788e-06
-1.50584e-21 -0.0148445 0.00116564 -0.00130071 0.00142329 -2.40204e-05
-3.76459e-21 0.0148445 0.00116563 -0.00202229 0.0020387 -1.46959e-05
0 0.0147312 0.00230781 0 0 0
-2.71051e-20 -0.0147313 0.00230783 0 0 0
0 0.014833 0.00159147 -0.0020301 0.00206197 -5.33324e-06
-5.01544e-37 -0.014833 0.00159148 -0.00134155 0.00149558 -2.64068e-05
0 -0.015 7.49105e-08 0 0 0
1.35525e-20 0.015 7.49089e-08 0 0 0
3.76459e-22 0.014988 0.00205398 -0.0012768 0.00134476 2.05079e-05
9.41148e-23 -0.014988 0.00205397 -0.00104426 0.00113486 -5.57383e-06
-6.77626e-21 -0.0151759 0.000230596 -6.65931e-05 7.02654e-05 3.50428e-07
6.77626e-21 0.015176 0.000230601 -9.5146e-05 0.000102711 1.61482e-06
0 -0.015 0.00240853 0 0 0
3.38813e-21 0.015 0.00240854 0 0 0
0 -0.0152018 0.000843053 -0.00125751 0.00137418 -4.3088e-06
4.51751e-21 0.0152018 0.000843049 -0.00186933 0.00187347 -2.39889e-05
2.37169e-20 0.0150362 0.00242211 0 0 0
1.69407e-20 -0.0150362 0.00242211 0 0 0
4.51751e-21 -0.015201 0.00143422 -0.00170749 0.00192717 -3.16604e-05
-4.51751e-21 0.015201 0.00143421 -0.00265374 0.00269164 -3.32814e-05
1.35525e-20 -0.0152989 2.20785e-08 0 0 0
-1.35525e-20 0.015299 2.20802e-08 0 0 0
-3.38813e-21 0.015119 0.00245307 0 0 0
-3.38813e-21 -0.015119 0.0024531 0 0 0
2.71051e-20 -0.015396 0.000531605 -0.000657465 0.000736091 5.41462e-06
-2.71051e-20 0.015396 0.000531602 -0.00103464 0.00105229 -3.36131e-05
1.35525e-20 -0.0154492 8.76997e-09 0 0 0
-1.35525e-20 0.0154492 8.76943e-09 0 0 0
-2.71051e-20 -0.0154135 0.00109937 -0.00155225 0.00180221 -1.92789e-05
0 0.0154136 0.00109937 -0.00259466 0.00262285 -5.82196e-05
-1.35525e-20 0.0152769 0.00251208 0 0 0
0 -0.0152769 0.0025121 0 0 0
-2.71051e-20 0.0153864 0.00178851 -0.00239932 0.00243333 -2.52721e-05
0 -0.0153864 0.00178851 -0.0015111 0.00176659 -2.05812e-05
-1.01644e-20 0.0153097 0.00239045 -0.000601373 0.000563085 -1.00559e-05
-1.01644e-20 -0.0153097 0.00239045 -0.000476983 0.000571939 -6.97548e-06
0 -0.0153854 0.00225223 -0.00101684 0.00120737 -1.39669e-05
1.12938e-21 0.0153854 0.00225223 -0.00129495 0.00123438 -1.76141e-05
0 -0.0156088 7.21589e-09 0 0 0
1.35525e-20 0.0156089 7.21525e-09 0 0 0
-2.71051e-20 -0.0154657 0.00258282 0 0 0
0 0.0154657 0.00258282 0 0 0
0 -0.0156825 0.000727925 -0.001184 0.00137682 0.000104235
-2.25875e-21 0.0156825 0.000727916 -0.0018509 0.00194583 -0.000233954
1.12938e-21 -0.0157225 0.000233524 -8.63146e-05 0.000105057 -2.14708e-05
7.90564e-21 0.0157226 0.000233532 -0.000204755 0.000234783 2.44338e-05
2.25875e-21 -0.0157184 0.00143038 -0.00192855 0.00239321 -5.13678e-05
6.77626e-21 0.0157184 0.00143039 -0.00337858 0.00339728 -7.58864e-05
-8.47033e-22 -0.0156634 0.00226597 -0.00117058 0.00136462 -5.96633e-06
1.69407e-21 0.0156634 0.00226598 -0.00169177 0.0017418 -2.69412e-06
-1.35525e-20 0.0156249 0.00254054 -0.000536285 0.000546432 -1.73715e-06
0 -0.0156249 0.00254053 -0.000370729 0.000423924 -6.56099e-07
6.77626e-21 0.0156249 0.0026425 0 0 0
6.77626e-21 -0.0156249 0.00264251 0 0 0
9.03502e-21 0.0157603 0.00197874 -0.00273604 0.00278991 -3.21827e-05
0 -0.0157603 0.00197874 -0.00163091 0.0019774 -9.97502e-06
1.35525e-20 0.0159582 4.57725e-09 0 0 0
0 -0.0159583 4.5756e-09 0 0 0
-1.35525e-20 -0.0157578 0.00269219 0 0 0
2.71051e-20 0.0157578 0.00269219 0 0 0
1.35525e-20 -0.0158038 0.0025027 -0.00076855 0.000860347 -1.07933e-06
5.42101e-21 0.0158038 0.00250271 -0.00105845 0.00111392 7.6898e-06
6.77626e-21 -0.0160273 0.000416841 -0.000423386 0.000521942 6.86614e-06
6.77626e-21 0.0160274 0.00041683 -0.000962305 0.000940725 -7.57132e-05
-1.35525e-20 -0.0160956 3.28585e-09 0 0 0
0 0.0160956 3.28679e-09 0 0 0
-1.35525e-20 -0.0161395 0.000104077 -8.35427e-05 0.000119293 4.03988e-06
1.35525e-20 0.0161396 0.000104165 -0.000322951 0.000274733 -4.43731e-05
0 0.0160608 0.0017677 -0.0034649 0.00351004 -4.81907e-05
0 -0.0160608 0.00176769 -0.00176787 0.00230141 -4.29671e-05
7.52918e-22 -0.0161372 0.0008471 -0.00127048 0.001631 -1.62299e-05
3.76459e-21 0.0161373 0.000847085 -0.00248469 0.00252621 -9.65053e-05
0 -0.0161599 3.02539e-09 0 0 0
1.35525e-20 0.0161601 3.0262e-09 0 0 0
0 -0.0159573 0.00276704 0 0 0
0 0.0159573 0.00276704 0 0 0
-2.25875e-21 -0.0160615 0.00225482 -0.00138008 0.00171729 -1.88754e-05
-6.77626e-21 0.0160615 0.00225485 -0.00246328 0.00252522 -2.12613e-05
1.35525e-20 -0.0162498 2.49159e-09 0 0 0
-1.35525e-20 0.0162501 2.49177e-09 0 0 0
1.6263e-20 -0.0163211 0.00143744 -0.00190555 0.00261955 -6.11336e-05
-2.71051e-20 0.0163211 0.00143746 -0.00424894 0.00428103 -6.83149e-05
1.6263e-20 0.0163242 0.00197494 -0.00388546 0.00395104 -5.84745e-05
0 -0.0163242 0.00197494 -0.00183718 0.0024284 -4.44548e-05
-1.35525e-20 0.0162498 0.00287804 0 0 0
2.37169e-20 -0.0162499 0.00287808 0 0 0
-2.37169e-20 -0.0165397 1.49574e-09 0 0 0
3.04932e-20 0.0165398 1.49534e-09 0 0 0
6.77626e-21 -0.016295 0.00289505 0 0 0
9.03502e-21 -0.0165484 0.000259337 -0.000206276 0.000255819 -2.23802e-06
-1.01644e-20 0.0162953 0.00289514 0 0 0
-4.51751e-21 0.0165485 0.000259312 -0.000631035 0.000824165 -1.29713e-05
2.25875e-21 -0.0163611 0.00261002 -0.000977903 0.00118086 -2.1657e-05
2.25875e-21 0.0163611 0.00261004 -0.00163004 0.00173712 9.05703e-06
-2.37169e-20 -0.0166019 1.3988e-09 0 0 0
3.38813e-21 0.0166021 1.39827e-09 0 0 0
-1.807e-21 -0.0167776 0.000787901 -0.00105392 0.00158917 -5.47735e-05
9.03502e-22 0.0167777 0.000787893 -0.00284982 0.00296034 -2.71593e-05
-1.35525e-20 -0.0168222 8.08296e-10 0 0 0
1.35525e-20 0.0168225 8.07382e-10 0 0 0
-6.77626e-21 -0.0167552 0.00167721 -0.00181664 0.00269479 -7.70375e-05
-4.51751e-21 0.0167552 0.00167721 -0.00486237 0.0049555 -6.78563e-05
2.71051e-20 -0.0165883 0.00300631 0 0 0
2.71051e-20 0.0165884 0.00300634 0 0 0
9.03502e-21 -0.0167309 0.00229146 -0.00153306 0.0021466 -5.18977e-05
4.51751e-21 0.0167309 0.00229155 -0.00380105 0.00394269 -3.26508e-05
1.35525e-20 -0.0169395 0.000138934 -5.38855e-05 5.77979e-05 5.29775e-06
1.35525e-20 0.0169397 0.000138909 -0.000423625 0.000530474 3.4254e-06
0 -0.0169618 4.51221e-10 0 0 0
0 0.016962 4.50664e-10 0 0 0
0 -0.0170688 0.000345436 -0.000305406 0.000475709 4.17639e-06
-1.35525e-20 0.0170689 0.000345447 -0.00126933 0.00147832 4.65259e-06
-6.77626e-21 -0.0168116 0.00309149 0 0 0
6.77626e-21 0.0168118 0.00309158 0 0 0
0 -0.0170877 0.00125519 -0.0016626 0.00283599 -0.00011375
0 0.0170878 0.0012552 -0.00544362 0.00556045 -6.57112e-05
3.38813e-21 0.0168748 0.00299168 -0.000750233 0.000862043 2.63351e-05
0 -0.016875 0.00299095 -0.000358447 0.000452802 -1.15907e-05
6.77626e-21 0.0168748 0.00311544 0 0 0
3.38813e-21 -0.0168751 0.00311552 0 0 0
-2.25875e-21 -0.0169694 0.00276077 -0.00102545 0.00133329 -3.61748e-05
-2.25875e-21 0.0169696 0.0027608 -0.00228392 0.00258474 6.39374e-05
-5.42101e-20 -0.0170755 0.00207925 -0.00173576 0.00269085 -7.89606e-05
0 0.0170755 0.00207928 -0.00542584 0.00557563 -8.04035e-05
6.77626e-21 -0.0173112 7.14994e-11 0 0 0
0 0.0173113 7.13385e-11 0 0 0
0 -0.0170862 0.00319594 0 0 0
2.71051e-20 0.0170864 0.00319602 0 0 0
-6.77626e-21 -0.0174106 5.80413e-05 -8.65644e-05 0.000148197 -1.14793e-06
0 0.0174107 5.80305e-05 -0.000257605 0.000281049 -1.32121e-08
1.12938e-20 -0.017396 0.000777646 -0.000864961 0.00163726 -6.10519e-05
9.03502e-21 0.0173961 0.000777647 -0.0033907 0.00361649 -1.77099e-05
-6.77626e-21 -0.0174228 5.17378e-11 0 0 0
-6.77626e-21 0.0174229 5.16473e-11 0 0 0
6.77626e-21 -0.0174571 4.89779e-11 0 0 0
0 0.0174572 4.88992e-11 0 0 0
-2.25875e-21 -0.0174062 0.00167743 -0.00144497 0.0026843 -0.000123274
2.25875e-21 0.0174063 0.00167744 -0.00591762 0.00608321 -5.34959e-05
6.77626e-21 -0.0174999 4.75457e-11 0 0 0
-6.77626e-21 0.0175 4.74696e-11 0 0 0
6.77626e-21 -0.0174999 5.74012e-05 -8.58049e-05 0.000163591 -1.98834e-06
0 0.0175 5.73934e-05 -0.000252824 0.000315204 5.74171e-06
1.35525e-20 -0.0172465 0.00325641 0 0 0
2.03288e-20 0.0172466 0.00325643 0 0 0
0 -0.0172985 0.00306859 -0.000543231 0.000782822 -3.99252e-05
0 0.0172985 0.00306881 -0.00134375 0.00149561 2.57551e-05
9.03502e-21 -0.0174314 0.00258926 -0.00113859 0.00183502 -8.48656e-05
-5.64689e-22 0.0174315 0.00258926 -0.00395331 0.00425518 2.45098e-05
1.69407e-21 -0.0174509 0.00333352 0 0 0
1.69407e-21 0.0174516 0.00333379 0 0 0
2.71051e-20 -0.0177427 0.00123867 -0.0011199 0.00263327 -0.000134562
0 0.0177428 0.0012387 -0.00613335 0.00634475 -2.92374e-05
0 -0.0174775 0.0033206 -6.01785e-05 8.67201e-05 -4.42286e-06
0 0.0174778 0.00332108 -0.000146494 0.000163049 2.80778e-06
0 -0.0174819 0.00334524 0 0 0
0 0.0174821 0.0033453 0 0 0
0 -0.0178052 0.000414147 -0.000535934 0.00102989 -3.18634e-05
5.42101e-20 0.0178053 0.000414151 -0.00170093 0.00215373 2.10223e-05
0 0.0174998 0.00331875 -0.000212511 0.000247843 8.18648e-06
0 -0.0174999 0.00331824 -6.90119e-05 0.000102583 -4.40735e-06
0 0.0174997 0.00334099 -7.46171e-05 9.51833e-05 8.6468e-06
1.69407e-21 -0.0174999 0.00334085 -2.61533e-05 3.54582e-05 -3.82073e-07
0 0.0174997 0.00335193 0 0 0
0 -0.0174999 0.00335198 0 0 0
-6.77626e-21 0.0178185 2.63056e-11 0 0 0
-6.77626e-21 -0.0178186 2.63406e-11 0 0 0
0 -0.0177179 0.00210726 -0.00125555 0.00259659 -0.00016488
2.71051e-20 0.017718 0.0021073 -0.00674469 0.00692709 -4.19293e-05
4.51751e-21 -0.0176365 0.00303796 -0.000831651 0.00114323 -3.57941e-05
-4.51751e-21 0.0176366 0.00303803 -0.00226033 0.00277703 0.000118926
0 -0.017647 0.00304321 -0.000830497 0.00114217 -3.53611e-05
0 0.0176471 0.00304328 -0.00227192 0.00279485 0.000120851
-2.71051e-20 -0.0177836 0.00345876 0 0 0
-1.35525e-20 0.0177837 0.00345884 0 0 0
0 0.0181317 5.24975e-05 -0.000198603 0.000256365 -1.46896e-07
0 -0.0181317 5.24752e-05 -5.64564e-05 0.000109779 -6.44966e-06
0 0.0181326 7.40766e-12 0 0 0
-6.77626e-21 -0.0181326 7.41305e-12 0 0 0
-2.25875e-21 -0.0180574 0.00168505 -0.00083971 0.00245151 -0.000227193
6.77626e-21 0.0180574 0.00168508 -0.00693124 0.00717004 -7.27471e-06
2.82344e-22 0.0181176 0.000826155 -0.00401239 0.00446284 2.32719e-05
3.76459e-22 -0.0181176 0.000826124 -0.000601486 0.00167529 -0.000105004
-1.35525e-20 -0.0178454 0.00337451 -0.000252709 0.000342618 -3.69182e-06
2.71051e-20 0.0178455 0.00337466 -0.000732604 0.000934527 8.48958e-05
0 -0.0181788 1.20855e-12 0 0 0
6.77626e-21 0.0181788 1.20217e-12 0 0 0
4.51751e-21 -0.0180124 0.00254465 -0.000813196 0.00188849 -0.000195831
0 0.0180125 0.00254474 -0.00552838 0.00586166 3.84684e-05
6.77626e-21 -0.018224 6.69062e-05 -5.2681e-05 0.000127923 1.0725e-06
0 0.0182241 6.69481e-05 -0.000268163 0.000380179 5.99455e-06
6.77626e-21 -0.0182304 9.59096e-13 0 0 0
0 0.0182305 9.55143e-13 0 0 0
0 -0.0179191 0.00350977 0 0 0
0 0.0179192 0.00350979 0 0 0
-4.51751e-22 -0.0180614 0.00308264 -0.000650831 0.00115748 -9.65679e-05
2.25875e-21 0.0180616 0.0030827 -0.00308944 0.00360256 0.000160864
0 -0.0184102 0.00127251 -0.000467433 0.00231012 -0.00027391
-2.71051e-20 0.0184102 0.00127252 -0.00682091 0.00720284 4.18897e-05
1.35525e-20 0.0181249 0.00358718 0 0 0
-6.77626e-21 -0.018125 0.00358724 0 0 0
2.71051e-20 -0.0183572 0.0021069 -0.000522302 0.00228027 -0.00032979
-2.71051e-20 0.0183573 0.00210693 -0.00802669 0.00820469 -2.36953e-06
0 -0.0184759 0.00044774 -0.000379679 0.000967243 5.97706e-06
0 0.0184759 0.000447749 -0.00193994 0.0027228 5.73053e-05
-1.35525e-20 -0.0182298 0.00362666 0 0 0
6.77626e-21 0.0182303 0.00362685 0 0 0
-4.51751e-21 -0.0182763 0.00343588 -0.000308292 0.000506354 -4.36633e-05
9.03502e-21 0.0182764 0.00343606 -0.00138907 0.00183025 0.00022122
2.71051e-20 -0.0183952 0.00281538 -0.000605005 0.00162413 -0.000246064
-2.71051e-20 0.0183953 0.00281544 -0.00567987 0.00613333 8.10744e-05
0 -0.0187499 4.64953e-13 0 0 0
0 0.01875 4.62741e-13 0 0 0
-6.77626e-21 -0.0187499 9.91369e-05 -7.8059e-05 0.000189548 1.58915e-06
0 0.01875 9.91108e-05 -0.000396992 0.000562822 8.87441e-06
0 -0.0187019 0.00167404 -8.93181e-05 0.00200911 -0.000391785
2.82344e-22 0.018702 0.00167409 -0.00741133 0.00777509 8.75331e-05
-2.71051e-20 -0.0184505 0.00370969 0 0 0
2.71051e-20 0.0184507 0.00370979 0 0 0
0 -0.0188246 9.05506e-14 0 0 0
0 0.0188247 9.24758e-14 0 0 0
-4.51751e-21 0.0188279 0.000901801 -0.00435642 0.00504797 9.21962e-05
2.25875e-21 -0.0188279 0.000901792 -0.000147972 0.00146556 -0.000191467
0 -0.018889 0.000100088 -4.18536e-05 0.000194252 -3.79305e-06
0 0.0188891 0.000100053 -0.000367642 0.000591067 1.09759e-05
5.64689e-22 -0.0187319 0.00243381 -0.000138634 0.0017 -0.000395722
2.82344e-22 0.0187319 0.00243385 -0.0071981 0.00756625 8.77586e-05
0 -0.0188925 7.49718e-14 0 0 0
6.77626e-21 0.0188926 7.69407e-14 0 0 0
-1.35525e-20 -0.0185631 0.00375372 0 0 0
0 0.0185633 0.00375376 0 0 0
1.35525e-20 -0.0185979 0.00364125 -0.000121844 0.000306518 -6.85223e-05
2.71051e-20 0.018598 0.00364145 -0.000977649 0.00122421 0.000105788
7.52918e-22 -0.0187015 0.0032345 -0.000245776 0.000948873 -0.000207176
-2.63521e-21 0.0187015 0.00323454 -0.0038534 0.00446422 0.000229785
-6.77626e-21 0.0187498 0.00382104 0 0 0
0 -0.0187499 0.00382109 0 0 0
6.77626e-21 -0.0191944 6.21354e-14 0 0 0
6.77626e-21 0.0191945 6.31148e-14 0 0 0
-2.71051e-20 0.019206 0.000471802 -0.00167566 0.0027495 7.34477e-05
0 -0.0192061 0.000471779 -0.00016903 0.000950356 -2.21425e-05
0 -0.0191593 0.00145147 0.000675807 0.00158882 -0.000599544
2.71051e-20 0.0191594 0.00145147 -0.00750347 0.00801351 0.000234377
0 -0.0188253 0.00385016 0 0 0
0 0.0188256 0.00385027 0 0 0
2.71051e-20 -0.0190073 0.00284619 0.000146754 0.00129843 -0.000455182
0 0.0190073 0.00284625 -0.00720751 0.00763861 0.00010655
2.71051e-20 -0.0191388 0.00196705 0.000727477 0.00154884 -0.000674105
2.71051e-20 0.0191388 0.0019671 -0.00841226 0.00876559 0.000188995
0 -0.0188685 0.00376942 -9.71365e-05 0.00019761 -2.89956e-05
-6.77626e-21 0.018869 0.0037691 -0.000705928 0.00103601 0.000119924
-3.01167e-21 -0.0189582 0.00362216 -0.000212081 0.000545963 -0.000107145
6.02335e-21 0.0189583 0.00362229 -0.00212352 0.0029336 0.000310632
0 -0.0189216 0.00388925 0 0 0
-6.77626e-21 0.0189225 0.00388962 0 0 0
0 -0.0193512 0.00171027 0.000903669 0.00140606 -0.000670618
2.71051e-20 0.0193513 0.00171028 -0.00812934 0.00856586 0.000238378
-1.8823e-22 0.0194091 0.000938214 -0.00441714 0.00523779 0.000170441
-9.41148e-22 -0.0194091 0.000938238 0.000284077 0.00116438 -0.00026937
0 0.0194665 1.03809e-13 0 0 0
6.77626e-21 -0.0194667 1.03982e-13 0 0 0
-6.77626e-21 0.0194675 3.87291e-05 -0.00012669 0.000218638 1.00929e-05
-6.77626e-21 -0.0194677 3.87998e-05 -8.59892e-06 8.46761e-05 -2.6212e-06
0 -0.0193303 0.00249034 0.000813722 0.00114875 -0.000683517
2.25875e-21 0.0193304 0.00249034 -0.00830399 0.00865946 0.000154894
0 -0.0191251 0.00398458 0 0 0
0 0.0191255 0.00398476 0 0 0
4.51751e-21 -0.0192993 0.00322371 0.000451911 0.000729075 -0.00047761
2.25875e-21 0.0192993 0.00322385 -0.00566617 0.00627936 0.000237698
1.35525e-20 -0.0191697 0.00393391 -2.6939e-05 0.000112209 -2.64093e-05
2.71051e-20 0.0191699 0.0039342 -0.000559745 0.000778304 0.000124751
-2.71051e-20 -0.0195789 0.00146067 0.00108226 0.00122746 -0.000685701
-2.71051e-20 0.019579 0.00146066 -0.00769131 0.0082553 0.00030097
0 -0.0192179 0.00403218 0 0 0
0 0.019218 0.00403225 0 0 0
0 -0.0195388 0.00196492 0.00127673 0.00119793 -0.000821673
0 0.0195389 0.00196497 -0.00894999 0.00925866 0.000253668
0 0.0196412 8.27607e-14 0 0 0
0 -0.0196416 8.29008e-14 0 0 0
0 0.0196919 0.000506616 -0.00160361 0.00284422 0.000128638
0 -0.019692 0.000506602 -0.000154255 0.00095167 1.6431e-05
4.51751e-22 -0.0193628 0.00368329 0.000157651 0.00044021 -0.000246965
-3.38813e-22 0.019363 0.00368341 -0.00313448 0.00396825 0.000384466
0 0.0193747 0.00398015 -0.00101385 0.00146366 0.00025885
0 -0.019375 0.00397997 7.62261e-05 0.000116874 -8.74464e-05
1.35525e-20 0.0193748 0.00411568 0 0 0
-6.77626e-21 -0.0193751 0.00411583 0 0 0
0 -0.0196515 0.00282152 0.00136302 0.000695129 -0.000899688
2.71051e-20 0.0196515 0.00282158 -0.00895139 0.00925828 0.000143263
-2.71051e-20 -0.0196711 0.00346851 0.000719587 0.000452902 -0.000540242
5.42101e-20 0.0196711 0.0034686 -0.00571953 0.00657847 0.000331337
0 -0.0195407 0.00420391 0 0 0
-6.77626e-21 0.0195414 0.00420428 0 0 0
-1.35525e-20 0.0199999 7.50372e-14 0 0 0
-1.35525e-20 -0.02 7.50292e-14 0 0 0
-1.35525e-20 -0.02 0.000219893 -7.30417e-05 0.000390761 1.44759e-05
1.35525e-20 0.02 0.000219865 -0.000688177 0.00123207 5.53365e-05
2.71051e-21 -0.0196482 0.00405846 9.79004e-05 0.000175636 -0.000118846
5.42101e-21 0.0196485 0.0040588 -0.00146194 0.00215237 0.000395093
7.05861e-23 -0.0199968 0.00175177 0.00181282 0.000619435 -0.000943561
-6.35275e-22 0.0199969 0.00175158 -0.00846474 0.00905781 0.000411251
-2.71051e-20 0.0201205 2.66818e-14 0 0 0
2.71051e-20 -0.0201205 2.6706e-14 0 0 0
4.51751e-21 0.0201123 0.00105023 -0.00453798 0.00573178 0.000316225
-4.51751e-21 -0.0201123 0.00105023 0.000934283 0.000607504 -0.000463814
1.8823e-22 0.0200024 0.00235162 -0.00917232 0.00959912 0.000335977
9.41148e-23 -0.0200024 0.00235148 0.00198487 0.000375678 -0.00104669
-1.35525e-20 -0.0197164 0.0042974 0 0 0
-2.71051e-20 0.0197167 0.00429758 0 0 0
-1.12938e-21 -0.0199624 0.00315678 0.00167585 0.000212512 -0.000917085
1.12938e-21 0.0199624 0.00315685 -0.00812414 0.0086999 0.000325742
-1.35525e-20 -0.0198178 0.00435143 0 0 0
-1.35525e-20 0.0198179 0.00435149 0 0 0
0 -0.0198553 0.00424317 0.00014299 7.6391e-05 -0.000116039
1.35525e-20 0.0198553 0.00424344 -0.00097877 0.00137514 0.000193186
0 0.0203123 6.21673e-15 0 0 0
0 -0.0203123 6.15453e-15 0 0 0
0 0.0203177 0.000130837 -6.36506e-05 0.000599469 5.01236e-05
0 -0.0203178 0.000130887 3.06623e-05 9.32893e-05 1.51362e-05
-9.41148e-22 -0.0199698 0.00385615 0.000756298 0.00013433 -0.000443915
5.64689e-22 0.0199699 0.00385623 -0.00404577 0.00506047 0.00051396
0 -0.0202712 0.00281164 0.00276639 -0.000187189 -0.00129344
0 0.0202712 0.00281169 -0.0102691 0.0105492 0.000361387
6.77626e-21 0.0199999 0.00444852 0 0 0
0 -0.0200001 0.00444866 0 0 0
0 -0.0200603 0.00448072 0 0 0
0 0.0200605 0.00448086 0 0 0
-2.71051e-20 -0.0202704 0.00349441 0.00195698 -0.000141205 -0.000975967
0 0.0202704 0.00349451 -0.00779247 0.00861671 0.000462973
0 -0.0201016 0.00441287 0.000106022 2.62348e-05 -5.98475e-05
-3.38813e-21 0.0201022 0.00441245 -0.000613434 0.00105039 0.000189851
-1.35525e-20 -0.0201267 0.00451611 0 0 0
6.77626e-21 0.0201275 0.00451657 0 0 0
0 -0.0202111 0.00425017 0.000424402 6.74651e-05 -0.000233129
7.52918e-22 0.0202112 0.00425035 -0.00219795 0.00347767 0.00058073
-5.42101e-20 -0.0206398 0.00178223 0.00319702 -0.000559214 -0.00142285
0 0.0206398 0.00178224 -0.00873809 0.00964776 0.000720831
5.42101e-20 0.0207252 0.000539947 -0.000713999 0.00286112 0.000236172
0 -0.0207252 0.000539947 0.000285606 0.000291467 -5.27612e-05
-5.64689e-23 -0.0206014 0.00245361 0.00345954 -0.000737701 -0.00153916
-1.12938e-22 0.0206014 0.00245364 -0.0103466 0.0108544 0.000514094
0 -0.0205843 0.00315109 0.00317936 -0.000725887 -0.001424
3.38813e-21 0.0205843 0.00315114 -0.00987596 0.0104416 0.00046017
1.35525e-20 -0.0203415 0.00463057 0 0 0
-1.35525e-20 0.0203419 0.00463079 0 0 0
2.71051e-20 -0.0203948 0.00457252 0.000137244 -2.98571e-07 -5.55781e-05
1.35525e-20 0.0203951 0.00457287 -0.000662644 0.0010739 0.000248692
-4.51751e-21 -0.0205501 0.00386543 0.00194409 -0.000406675 -0.000891944
0 0.0205501 0.0038656 -0.00623553 0.00728472 0.000579716
-2.71051e-20 -0.0204458 0.00468612 0 0 0
0 0.020446 0.00468621 0 0 0
-4.51751e-22 -0.0206078 0.00431767 0.00105477 -0.000195613 -0.000466714
-1.12938e-22 0.0206079 0.0043178 -0.00345709 0.00479757 0.000737856
0 -0.0209209 0.00278889 0.00444493 -0.00147415 -0.00190026
0 0.0209209 0.00278892 -0.0115875 0.012049 0.000527253
1.35525e-20 0.0206249 0.00478151 0 0 0
0 -0.0206251 0.00478166 0 0 0
0 -0.0208847 0.00349062 0.00357003 -0.00110368 -0.00153214
2.71051e-20 0.0208848 0.00349071 -0.00992175 0.0106126 0.000488985
0 0.0212499 5.88891e-15 0 0 0
0 -0.02125 5.846e-15 0 0 0
-1.35525e-20 0.0212499 9.47421e-05 -4.60908e-05 0.000434088 3.62956e-05
-1.35525e-20 -0.02125 9.47488e-05 2.21963e-05 6.75317e-05 1.09571e-05
-3.38813e-20 -0.0207393 0.0048425 0 0 0
2.71051e-20 0.0207401 0.00484287 0 0 0
0 -0.0207851 0.00466132 0.000507589 -0.000103003 -0.000197119
0 0.0207852 0.0046616 -0.00149796 0.00254246 0.000657126
2.71051e-20 -0.0209257 0.00410299 0.00235227 -0.000652239 -0.00101723
0 0.0209258 0.00410311 -0.00657634 0.00792843 0.000730576
-4.51751e-21 0.0213163 0.00115801 -0.00447369 0.00654586 0.000677707
2.25875e-21 -0.0213163 0.00115801 0.00238102 -0.000933625 -0.000911165
-1.35525e-20 0.0213762 3.47416e-16 0 0 0
0 -0.0213763 3.52781e-16 0 0 0
-2.25875e-21 0.0212885 0.0023263 -0.0106035 0.011516 0.000889108
-1.12938e-21 -0.0212885 0.00232628 0.00482501 -0.0019177 -0.00195679
-2.25875e-21 -0.021208 0.00309795 0.00473589 -0.00180053 -0.00192689
2.82344e-21 0.021208 0.00309804 -0.0110488 0.0117739 0.000725666
0 0.0214867 0.000108918 0.000198754 0.000474979 7.93279e-05
0 -0.0214868 0.000108929 0.0001832 -7.80171e-05 -2.46621e-05
0 0.021494 4.39082e-16 0 0 0
1.35525e-20 -0.0214941 4.44414e-16 0 0 0
0 -0.0209342 0.00494631 0 0 0
-1.35525e-20 0.0209345 0.00494647 0 0 0
0 -0.0212468 0.00376747 0.00375713 -0.00136144 -0.00151259
-2.77403e-20 0.0212469 0.00376434 -0.00889041 0.0100412 0.000750795
2.71051e-20 -0.0210473 0.00500657 0 0 0
1.35525e-20 0.0210475 0.00500662 0 0 0
1.35525e-20 -0.0210904 0.00488635 0.000458114 -0.000117752 -0.000194592
1.35525e-20 0.0210904 0.00488661 -0.00117363 0.00195072 0.00040066
-2.25875e-21 -0.021209 0.00450257 0.00191062 -0.000621029 -0.000746634
1.8823e-21 0.021209 0.00450263 -0.00453731 0.00618614 0.00091541
0 -0.0216448 0.00289598 0.00637225 -0.00288078 -0.00245342
0 0.0216448 0.00289599 -0.0121324 0.0129657 0.00111193
0 0.0212499 0.0051145 0 0 0
-1.69407e-20 -0.0212502 0.00511463 0 0 0
3.38813e-21 -0.0212808 0.00513096 0 0 0
0 0.0212811 0.00513109 0 0 0
5.42101e-20 -0.0216428 0.0033368 0.00601704 -0.0027252 -0.00230421
-2.71051e-20 0.0216428 0.00333687 -0.0114525 0.0124241 0.00100986
0 -0.0213032 0.00509534 0.000166365 -5.27737e-05 -5.72808e-05
0 0.0213038 0.00509491 -0.000341331 0.000698337 0.000168258
2.71051e-20 -0.0215146 0.00414921 0.00399906 -0.00147309 -0.00154815
0 0.0215147 0.00414931 -0.00869064 0.0101125 0.000800428
-3.38813e-21 -0.0213149 0.00514909 0 0 0
0 0.0213156 0.0051495 0 0 0
-5.42101e-20 0.0219709 0.000580197 0.000331173 0.00314443 0.000453818
0 -0.0219709 0.000580199 0.000962193 -0.000664651 -0.000209492
-4.51751e-21 -0.0214405 0.004897 0.00116121 -0.000377382 -0.00041129
1.50584e-21 0.0214407 0.00489715 -0.00242303 0.00443033 0.000988314
0 -0.0219196 0.00179912 0.00522395 -0.00283954 -0.00203219
0 0.0219196 0.00179913 -0.00912063 0.0107835 0.0013173
1.41172e-22 -0.0218787 0.00244236 0.00621908 -0.00308104 -0.00235722
7.05861e-23 0.0218787 0.00244239 -0.0112679 0.0124383 0.00124852
-2.71051e-20 -0.0218432 0.00311327 0.0066567 -0.00314602 -0.00250956
0 0.0218433 0.0031133 -0.0121113 0.0130476 0.0011356
7.52918e-22 -0.0218301 0.0038218 0.0056317 -0.00245581 -0.00210797
-1.50584e-21 0.0218301 0.00382182 -0.0105933 0.0118498 0.000933155
0 -0.0215576 0.00527841 0 0 0
0 0.021558 0.0052786 0 0 0
-2.71051e-20 -0.0216182 0.00521393 0.000372182 -0.000133165 -0.000110283
-1.35525e-20 0.0216184 0.00521423 -0.000803776 0.00155637 0.000470043
2.71051e-20 -0.0220639 0.00288704 0.00741972 -0.00375745 -0.00275442
0 0.022064 0.00288704 -0.0126055 0.0135921 0.00131631
-2.25875e-21 -0.0217938 0.00451153 0.00369703 -0.00151314 -0.00135597
3.76158e-37 0.0217939 0.00451169 -0.00699278 0.00880486 0.000987232
-2.71051e-20 -0.0220345 0.00332363 0.00719099 -0.0034726 -0.00269084
-2.71051e-20 0.0220345 0.0033237 -0.0124291 0.0133445 0.0011277
2.71051e-20 -0.0216749 0.00534089 0 0 0
-2.71051e-20 0.021675 0.00534096 0 0 0
2.25875e-22 -0.0218357 0.0049688 0.00203743 -0.000804435 -0.000704854
-1.35525e-21 0.0218359 0.0049689 -0.00378063 0.00598275 0.00121407
1.35525e-20 -0.0225 -1.52821e-17 0 0 0
0 0.0225 -1.57465e-17 0 0 0
0 -0.0225 8.45373e-05 0.000142178 -6.05474e-05 -1.91397e-05
0 0.0225 8.45231e-05 0.000154238 0.000368596 6.15605e-05
0 -0.0221466 0.00413235 0.00643056 -0.00288237 -0.00234181
0 0.0221467 0.00413241 -0.011125 0.0125401 0.000926624
6.77626e-21 0.0218749 0.00544743 0 0 0
-1.35525e-20 -0.0218752 0.00544758 0 0 0
1.35525e-20 0.0225909 4.65266e-17 0 0 0
0 -0.0225909 4.69287e-17 0 0 0
1.12938e-21 0.0225622 0.00117125 -0.00399881 0.00717575 0.00109424
-5.64689e-21 -0.0225622 0.00117125 0.00356599 -0.00256629 -0.00121443
-3.38813e-21 -0.0219451 0.00548483 0 0 0
1.01644e-20 0.0219457 0.00548514 0 0 0
-4.51751e-21 -0.0220187 0.00530662 0.00104173 -0.000388943 -0.000347279
-4.51751e-21 0.0220188 0.00530685 -0.00172024 0.00349494 0.00111069
-2.71051e-20 -0.0221547 0.00476019 0.00405081 -0.00173181 -0.00141876
-2.71051e-20 0.0221548 0.0047603 -0.00723197 0.00957187 0.00117647
0 0.0226735 8.15432e-05 0.000354052 0.000338384 9.06076e-05
0 -0.0226735 8.15576e-05 0.000219384 -0.000221984 -3.62173e-05
0 0.0226781 2.50202e-17 0 0 0
1.35525e-20 -0.0226781 2.52055e-17 0 0 0
3.38813e-21 -0.0225519 0.00239249 0.00733239 -0.00430668 -0.00260804
1.12938e-21 0.0225519 0.00239251 -0.0110727 0.0128542 0.00166777
-5.64689e-22 -0.0224875 0.00303825 0.00805118 -0.00433006 -0.00284364
0 0.0224874 0.00303838 -0.0125477 0.0139234 0.00155663
1.27055e-21 -0.0224629 0.00366675 0.00770013 -0.00385623 -0.0027057
0 -0.0225 0.00357657 0.00787637 -0.00400134 -0.00276262
3.5293e-22 0.0224954 0.00364647 -0.0122237 0.01373 0.00127694
4.23516e-22 -0.0225054 0.00366219 0.00783112 -0.00394409 -0.00274391
1.69407e-21 -0.0225 0.00370544 0.00773979 -0.00388511 -0.00271064
-1.35525e-20 -0.0221583 0.00559842 0 0 0
1.35525e-20 0.0221586 0.00559854 0 0 0
8.47033e-22 -0.0225595 0.00366878 0.008033 -0.00408719 -0.00279099
-4.51751e-21 -0.0224493 0.00445918 0.00632589 -0.00295087 -0.002197
3.38813e-21 0.0224493 0.00445926 -0.0102095 0.0121904 0.0011381