# U  POINT_DATA 52043
# x  y  z  U_x  U_y  U_z
0.014142 -1.35525e-20 8.40343e-08 0 0 0
-0.014142 1.35525e-20 8.40343e-08 0 0 0
-0.014142 -6.77626e-21 0.000246014 0 0 0
0.014142 0 0.000246007 0 0 0
-0.014142 6.77626e-21 0.000413822 0 0 0
0.014142 -6.77626e-21 0.000413834 0 0 0
-0.014142 -1.35525e-20 0.000659755 0 0 0
0.014142 0 0.000659755 0 0 0
-0.014142 3.38813e-21 0.000918791 0 0 0
0.014142 6.77626e-21 0.000918788 0 0 0
0.014142 0 0.00109554 0 0 0
-0.014142 1.01644e-20 0.00109555 0 0 0
0.014142 1.35525e-20 0.00135458 0 0 0
-0.014142 1.35525e-20 0.00135458 0 0 0
0.014142 -1.01644e-20 0.00162764 0 0 0
-0.014142 3.38813e-21 0.00162762 0 0 0
-0.014252 0 0.000123103 -5.20281e-06 5.1339e-06 8.43203e-07
0.014252 -1.35525e-20 0.00012308 -5.15906e-06 7.30085e-06 -1.7363e-06
-0.0142534 0 8.87869e-08 0 0 0
0.0142534 -1.35525e-20 8.87839e-08 0 0 0
0.014142 3.38813e-21 0.00181395 0 0 0
-0.014142 0 0.00181396 0 0 0
-0.014252 0 0.000530071 -5.20298e-06 5.13406e-06 8.43229e-07
0.014252 0 0.000530089 -5.15898e-06 7.30073e-06 -1.73628e-06
-0.0142482 0 0.00077532 -0.000583609 0.000600124 -2.32047e-06
0.0142482 1.35525e-20 0.00077531 -0.000464182 0.000474331 9.98962e-07
0.014142 -1.35525e-20 0.002087 0 0 0
-0.014142 1.35525e-20 0.002087 0 0 0
-0.0142482 0 0.00119849 -0.000583582 0.000600096 -2.32036e-06
0.0142482 0 0.00119848 -0.000464209 0.000474358 9.99019e-07
0.0142438 0 0.00144431 -0.000509066 0.000505102 -1.7463e-06
-0.0142438 1.35525e-20 0.00144431 -0.000601128 0.0006118 -1.3428e-05
0.0142438 1.35525e-20 0.00188165 -0.000509045 0.000505081 -1.74623e-06
-0.0142438 0 0.00188166 -0.000601137 0.000611809 -1.34282e-05
0.014376 -1.35525e-20 9.02284e-08 0 0 0
-0.014376 0 9.023e-08 0 0 0
0.0143755 1.35525e-20 0.000639268 -0.00042543 0.000430841 -2.79352e-06
-0.0143755 0 0.000639267 -0.000683412 0.000679731 4.51934e-06
-0.0142629 6.77626e-21 0.00213232 0 0 0
0.0142629 6.77626e-21 0.00213231 0 0 0
-0.0143002 -1.35525e-20 0.00203592 -0.000614881 0.000634497 6.1629e-07
0.0143002 0 0.00203591 -0.000543185 0.00057044 7.56283e-06
-0.0144129 -1.35525e-20 0.000955929 -0.00153739 0.00151117 -3.38572e-06
0.0144129 0 0.000955927 -0.00118868 0.00119751 -6.77262e-06
0.0143941 1.35525e-20 0.00157783 -0.00125008 0.00124702 -1.54437e-06
-0.0143941 1.35525e-20 0.00157784 -0.00153222 0.00150375 9.64754e-06
-0.0143749 6.77626e-21 0.00187281 -0.00121946 0.00120746 4.11261e-07
0.0143749 6.77626e-21 0.0018728 -0.000885748 0.000873199 -3.9976e-06
-0.0144696 -4.51751e-21 0.00124267 -0.00190518 0.00186636 1.31788e-05
0.0144696 4.51751e-21 0.00124266 -0.00129007 0.00128581 -1.05893e-05
-0.014375 0 0.00217431 0 0 0
0.014375 0 0.00217432 0 0 0
-0.0145418 0 0.000318554 -0.000231337 0.000231226 3.65699e-06
0.0145418 -6.77626e-21 0.000318551 -0.000131133 0.000128719 4.30517e-06
-0.0145497 1.35525e-20 9.54658e-08 0 0 0
0.0145497 -1.35525e-20 9.54632e-08 0 0 0
-0.0145347 -1.35525e-20 0.000782523 -0.00153276 0.00148924 4.35935e-06
0.0145347 1.35525e-20 0.000782537 -0.00105765 0.00106137 -1.00528e-05
-0.0145148 1.35525e-20 0.00222669 0 0 0
0.0145148 -1.35525e-20 0.00222669 0 0 0
0.0146121 1.93608e-21 0.00162981 -0.00173953 0.00171872 -5.56754e-06
-0.0146121 7.7443e-21 0.00162982 -0.00237893 0.00233633 1.6295e-05
-0.0145852 1.05879e-22 0.00194555 -0.00175326 0.00160727 4.2858e-05
0.0145837 -4.87044e-21 0.00194477 -0.00164145 0.00153806 -1.61599e-05
-0.0147196 0 1.04732e-07 0 0 0
0.0147196 0 1.0473e-07 0 0 0
0.0146004 -1.27055e-21 0.00194655 -0.00166907 0.00156819 -1.57021e-05
-0.0146005 2.0117e-21 0.00194659 -0.0017919 0.00164486 4.36311e-05
-0.0147092 0 0.000900995 -0.00250325 0.00233813 -2.63531e-05
0.0147092 4.51751e-21 0.000900993 -0.00158845 0.00157369 7.63177e-06
-0.0145873 -8.13152e-20 0.00225387 0 0 0
0.0145873 0 0.00225387 0 0 0
-0.0146975 -2.25875e-21 0.00143127 -0.00296851 0.00278075 6.46271e-05
0.0146975 2.25875e-21 0.00143126 -0.00192133 0.00187924 -2.89364e-05
-0.0148082 0 0.000136903 -0.000178134 0.000125297 2.0844e-05
0.0148083 -1.35525e-20 0.000136875 -1.61239e-05 1.24619e-05 1.03814e-05
-0.0148167 2.71051e-20 9.37179e-08 0 0 0
0.0148167 0 9.37183e-08 0 0 0
-0.0148641 -1.35525e-20 8.83354e-08 0 0 0
0.0148641 -1.35525e-20 8.83376e-08 0 0 0
-0.0148598 -1.29072e-21 0.000624026 -0.0018755 0.00179694 3.00685e-05
0.0148598 -2.58143e-21 0.000624027 -0.00115717 0.00114866 5.37014e-06
-0.0148447 3.26265e-21 0.00116603 -0.00325632 0.00316431 3.86042e-05
0.0148447 -2.25875e-21 0.00116603 -0.00214135 0.00210726 -7.2853e-06
0.0147327 4.06576e-20 0.00230835 0 0 0
-0.0147327 0 0.00230836 0 0 0
0.0148335 7.52918e-21 0.0015921 -0.00233251 0.00226177 -1.71381e-05
-0.0148335 -3.01167e-21 0.00159211 -0.00329737 0.00318021 3.97344e-05
0.015 1.35525e-20 7.4908e-08 0 0 0
-0.015 -1.35525e-20 7.49029e-08 0 0 0
-0.0149884 1.50584e-21 0.00205342 -0.00251929 0.00237027 5.61961e-05
0.0149884 1.22349e-21 0.00205341 -0.00211167 0.00208218 -3.41521e-06
-0.015176 2.25875e-21 0.000230687 -0.000612648 0.000573877 1.91733e-05
0.015176 6.77626e-21 0.000230679 -0.000125705 0.000122291 6.41752e-07
0.015 -3.38813e-21 0.00240854 0 0 0
-0.015 0 0.00240855 0 0 0
-0.0152021 -4.51751e-21 0.000843378 -0.00349582 0.00337603 9.11774e-05
0.0152021 4.51751e-21 0.000843372 -0.00234475 0.00238316 1.42813e-05
-0.0150379 0 0.00242273 0 0 0
0.0150379 -3.38813e-21 0.00242272 0 0 0
-0.0152016 4.51751e-21 0.0014348 -0.00454268 0.00440124 6.88728e-05
0.0152016 -4.51751e-21 0.00143479 -0.00320011 0.00316688 -1.12214e-05
-0.0152989 0 2.20825e-08 0 0 0
0.015299 0 2.20806e-08 0 0 0
0.0151247 0 0.00245524 0 0 0
-0.0151247 -3.38813e-21 0.00245526 0 0 0
0.0153962 -2.71051e-20 0.000531794 -0.00127122 0.00125659 8.43252e-06
-0.0153962 -2.71051e-20 0.000531794 -0.00215436 0.00208202 3.52564e-05
-0.0154492 -1.35525e-20 8.76993e-09 0 0 0
0.0154492 -2.71051e-20 8.76964e-09 0 0 0
0.0154139 0 0.00109981 -0.00299317 0.0029097 -1.0614e-06
-0.0154139 -2.71051e-20 0.00109982 -0.00447089 0.00433303 6.92828e-05
-0.0152781 0 0.00251266 0 0 0
0.0152781 6.77626e-21 0.00251265 0 0 0
0.015387 -2.71051e-20 0.00178913 -0.00312044 0.00301098 -1.31726e-05
-0.015387 2.71051e-20 0.00178913 -0.00419768 0.0040335 7.82415e-05
-0.0153098 0 0.00239462 -0.00117127 0.00103698 3.6063e-05
0.0153098 3.38813e-21 0.00239458 -0.00110885 0.000994972 -1.55498e-05
-0.015387 -2.25875e-21 0.00225338 -0.00258096 0.00230915 7.57767e-05
0.015387 0 0.00225337 -0.00238864 0.00217222 -3.01407e-05
0.0156089 -1.35525e-20 7.21547e-09 0 0 0
-0.0156089 0 7.21529e-09 0 0 0
0.0154678 0 0.00258382 0 0 0
-0.0154678 -1.35525e-20 0.00258382 0 0 0
-0.0156827 6.77626e-21 0.00072818 -0.00389694 0.00371827 -7.88464e-05
0.0156827 -6.77626e-21 0.000728171 -0.00255154 0.00249038 0.000120439
0.0157226 -1.12938e-21 0.000233621 -0.00018718 0.00018466 -2.89481e-05
-0.0157226 -3.38813e-21 0.000233615 -0.000786554 0.000760853 -8.36303e-06
0.0157188 4.51751e-21 0.00143117 -0.00430015 0.00407422 -2.14349e-05
-0.0157188 1.12938e-20 0.00143117 -0.00594668 0.00573185 0.000115393
-0.0156648 -1.69407e-21 0.00226708 -0.00327342 0.00305097 8.85864e-05
0.0156648 0 0.00226708 -0.0026681 0.00260374 -4.6041e-06
-0.015625 1.35525e-20 0.00254192 -0.00103007 0.000942433 3.48314e-05
0.0156251 0 0.00254193 -0.000862969 0.000850178 1.91191e-06
-0.015625 -2.03288e-20 0.00264258 0 0 0
0.015625 1.35525e-20 0.00264259 0 0 0
-0.015761 -9.03502e-21 0.00197935 -0.00493922 0.00466791 0.000117449
0.0157611 0 0.00197935 -0.00371747 0.00358802 -1.2675e-06
0.0159582 0 4.57718e-09 0 0 0
-0.0159583 -1.35525e-20 4.57567e-09 0 0 0
-0.0157606 0 0.00269322 0 0 0
0.0157606 -4.06576e-20 0.00269323 0 0 0
-0.0158055 -2.71051e-21 0.0025037 -0.00212044 0.00196861 6.59585e-05
0.0158056 2.71051e-21 0.00250371 -0.00175576 0.00177087 4.96804e-06
-0.0160275 -4.06576e-20 0.000416984 -0.00232464 0.00213633 -1.69516e-05
0.0160275 6.77626e-21 0.000416987 -0.00110943 0.00105491 -1.99588e-05
0.0160955 -1.35525e-20 3.28682e-09 0 0 0
-0.0160956 0 3.28517e-09 0 0 0
0.0161395 -1.35525e-20 0.000104149 -0.000274129 0.0002385 -2.01667e-05
-0.0161396 0 0.000104133 -0.000768782 0.000672391 -1.93961e-05
0.0160615 0 0.00176843 -0.00434762 0.00404972 -2.7933e-05
-0.0160615 0 0.00176842 -0.00608985 0.00580073 0.000136816
-0.0161376 1.50584e-21 0.000847369 -0.00477037 0.0045439 4.76398e-05
0.0161376 -9.78794e-21 0.000847386 -0.00312143 0.00296337 -6.63836e-06
0.01616 -1.35525e-20 3.02629e-09 0 0 0
-0.01616 -1.35525e-20 3.02459e-09 0 0 0
-0.0159592 2.71051e-20 0.00276747 0 0 0
0.0159593 -2.71051e-20 0.00276748 0 0 0
-0.0160632 -1.35525e-20 0.00225586 -0.00458201 0.00427976 0.000133153
0.0160632 -1.35525e-20 0.00225589 -0.00345359 0.00326529 -1.19447e-05
0.0162499 0 2.49196e-09 0 0 0
-0.01625 -1.35525e-20 2.49049e-09 0 0 0
0.0163213 8.13152e-21 0.00143843 -0.0049265 0.00452701 -4.37306e-05
-0.0163214 -1.0842e-20 0.0014384 -0.0072893 0.00700193 0.000140595
-0.0163246 0 0.0019752 -0.00676706 0.00639655 0.000182274
0.0163246 8.13152e-21 0.00197521 -0.00474054 0.00435291 -3.30268e-05
-0.01625 1.69407e-20 0.00287738 0 0 0
0.0162501 -3.38813e-20 0.00287742 0 0 0
0.0165397 2.37169e-20 1.49551e-09 0 0 0
-0.0165398 1.01644e-20 1.49503e-09 0 0 0
0.0165485 0 0.000259443 -0.000934119 0.00104993 3.6985e-05
-0.0165486 0 0.00025939 -0.00189918 0.00179369 1.13456e-05
-0.0162993 2.03288e-20 0.00289583 0 0 0
0.0162996 -3.04932e-20 0.00289591 0 0 0
-0.0163628 -2.25875e-21 0.0026102 -0.00326808 0.003002 0.000117958
0.0163629 4.51751e-21 0.00261026 -0.00252896 0.00241143 -4.352e-06
0.016602 2.03288e-20 1.39857e-09 0 0 0
-0.0166022 -1.01644e-20 1.39777e-09 0 0 0
0.0167779 1.17455e-20 0.000788065 -0.00315134 0.00287057 -2.94144e-05
-0.0167779 -1.807e-21 0.000788044 -0.0051785 0.00495965 0.000102197
0.0168224 0 8.07643e-10 0 0 0
-0.0168225 -1.35525e-20 8.07608e-10 0 0 0
-0.016756 6.77626e-21 0.00167756 -0.00812684 0.00773625 0.000179183
0.016756 4.51751e-21 0.00167758 -0.00535278 0.00473566 -6.86208e-05
-0.0165907 0 0.00300593 0 0 0
0.0165909 -2.71051e-20 0.00300602 0 0 0
-0.0167321 -4.51751e-21 0.00229258 -0.00653264 0.00611178 0.000179437
0.0167321 -4.51751e-21 0.00229264 -0.00446475 0.00399853 -3.85787e-05
0.0169397 -1.35525e-20 0.000139012 -0.000175258 0.000212142 2.63072e-05
-0.0169397 0 0.000138902 -0.00108767 0.00110497 2.93704e-05
-0.0169619 -1.35525e-20 4.50845e-10 0 0 0
0.0169619 0 4.50833e-10 0 0 0
0.017069 -1.35525e-20 0.00034548 -0.000990339 0.000990006 6.28384e-05
-0.017069 1.35525e-20 0.000345515 -0.00291738 0.00284859 6.2256e-05
-0.0168154 2.71051e-20 0.00309174 0 0 0
0.0168157 2.03288e-20 0.00309186 0 0 0
-0.0170882 0 0.00125548 -0.00887102 0.00851235 0.000165752
0.0170883 -2.71051e-20 0.00125549 -0.00562673 0.00480503 -0.000119924
-0.016875 -1.01644e-20 0.00299682 -0.00135506 0.00121025 5.27964e-05
0.0168752 -1.01644e-20 0.00299705 -0.000971267 0.000902864 1.6235e-06
-0.016875 0 0.00311456 0 0 0
0.0168752 -3.38813e-21 0.00311463 0 0 0
-0.0169715 -3.38813e-21 0.0027608 -0.00425331 0.00382686 0.000156681
0.0169716 -3.38813e-21 0.00276088 -0.00302013 0.00277705 -4.46203e-06
-0.0170765 0 0.00207965 -0.00884515 0.00832617 0.000202736
0.0170765 2.71051e-20 0.00207967 -0.00569142 0.00489224 -7.39802e-05
-0.017311 -2.03288e-20 7.14894e-11 0 0 0
0.0173114 0 7.13597e-11 0 0 0
-0.0170892 -4.06576e-20 0.00319641 0 0 0
0.0170896 0 0.00319653 0 0 0
-0.0174107 -6.77626e-21 5.81532e-05 -0.000534659 0.000500041 8.25267e-06
0.0174108 0 5.80005e-05 -0.00028038 0.0002614 1.00266e-05
-0.0173964 4.51751e-21 0.000777676 -0.00598273 0.00568447 8.17867e-05
0.0173964 2.25875e-21 0.000777666 -0.00341101 0.00284839 -4.39768e-05
-0.0174228 0 5.17295e-11 0 0 0
0.0174229 0 5.16506e-11 0 0 0
0.0174572 6.77626e-21 4.88994e-11 0 0 0
-0.0174572 -6.77626e-21 4.89702e-11 0 0 0
-0.0174069 2.25875e-21 0.00167765 -0.00934781 0.00885662 0.00017368
0.017407 2.25875e-21 0.00167766 -0.00584895 0.00483783 -0.000112594
0.0175 0 4.74701e-11 0 0 0
0.0175 0 5.73648e-05 -0.000298936 0.000237603 -1.31679e-06
-0.0175001 0 4.75352e-11 0 0 0
-0.0175001 6.77626e-21 5.75034e-05 -0.000576337 0.000535053 3.35952e-06
-0.0172483 0 0.00325639 0 0 0
0.0172486 1.35525e-20 0.00325649 0 0 0
-0.0172998 -2.71051e-20 0.00306964 -0.00243231 0.00203269 0.00011064
0.0173001 0 0.00306981 -0.00191634 0.00158461 -3.93013e-05
-0.0174323 1.69407e-21 0.00258936 -0.00646295 0.00590941 0.000173102
0.0174324 -1.12938e-21 0.0025894 -0.00432153 0.00369848 -6.22417e-05
-0.0174579 0 0.00333599 0 0 0
0.0174583 1.69407e-21 0.00333616 0 0 0
-0.0177431 0 0.00123883 -0.00959651 0.00914023 0.000131754
0.0177432 -5.42101e-20 0.00123884 -0.00584302 0.00463312 -0.000114797
-0.0174808 1.69407e-21 0.00332482 -0.000234104 0.000195642 1.06488e-05
0.017481 0 0.00332506 -0.000183295 0.000151565 -3.75911e-06
-0.0174846 1.69407e-21 0.00334611 0 0 0
0.0174848 0 0.00334621 0 0 0
-0.0178054 0 0.000414179 -0.00395189 0.00365932 -7.44927e-06
0.0178055 0 0.000414187 -0.00200175 0.00160365 -4.5757e-05
-0.0175001 0 0.00332274 -0.000318626 0.000279532 1.03186e-05
0.0175002 0 0.00332299 -0.000226968 0.000201972 -1.51357e-06
-0.0175001 1.69407e-21 0.00334231 -0.000116571 0.000100122 4.67273e-06
0.0175002 3.38813e-21 0.00334243 -8.58481e-05 7.93138e-05 6.98229e-07
-0.0175001 0 0.00335193 0 0 0
0.0175002 0 0.00335199 0 0 0
0.0178186 3.38813e-21 2.6307e-11 0 0 0
-0.0178194 3.38813e-21 2.62871e-11 0 0 0
-0.0177187 2.71051e-20 0.00210757 -0.0101747 0.00954228 0.000193794
0.0177188 -2.71051e-20 0.0021076 -0.00625814 0.00502979 -0.000143563
-0.0176383 9.03502e-21 0.00303865 -0.00410033 0.00361934 0.000134995
0.0176385 0 0.00303873 -0.00289675 0.00271266 -7.64994e-06
-0.0176486 0 0.00304387 -0.00411385 0.00363615 0.00013393
0.0176488 0 0.00304395 -0.00289797 0.00272027 -6.31775e-06
-0.0177861 1.35525e-20 0.00345972 0 0 0
0.0177863 -1.35525e-20 0.00345982 0 0 0
0.0181318 0 5.25144e-05 -0.000232233 0.000187917 -1.07923e-05
-0.0181318 -6.77626e-21 5.23832e-05 -0.000472424 0.000436079 -5.29159e-06
0.0181327 0 7.40306e-12 0 0 0
-0.0181328 0 7.40812e-12 0 0 0
-0.0180579 -1.12938e-21 0.00168517 -0.0102364 0.00964979 0.000117437
0.018058 3.38813e-21 0.00168519 -0.00631341 0.00488166 -0.00020939
-0.0181177 -1.8823e-22 0.000826258 -0.00684397 0.00642327 4.45112e-05
0.0181178 -4.70574e-22 0.000826333 -0.00403474 0.0031126 -0.000104399
-0.0178474 -2.71051e-20 0.00337592 -0.00129498 0.00111224 5.19089e-05
0.0178475 -1.35525e-20 0.00337606 -0.00095951 0.000886477 7.80398e-06
-0.0181788 0 1.20998e-12 0 0 0
0.0181789 -6.77626e-21 1.20234e-12 0 0 0
-0.0180132 -9.03502e-21 0.0025453 -0.00813038 0.00748387 0.000136898
0.0180133 4.51751e-21 0.00254538 -0.00523808 0.00422459 -0.000159903
-0.018224 6.77626e-21 6.67961e-05 -0.000658374 0.000599644 3.8173e-07
0.0182242 0 6.69571e-05 -0.000303076 0.000231883 1.27735e-06
-0.0182303 0 9.60874e-13 0 0 0
0.0182306 0 9.55329e-13 0 0 0
-0.0179205 -2.71051e-20 0.00351035 0 0 0
0.0179207 0 0.00351043 0 0 0
-0.0180629 4.06576e-21 0.00308315 -0.00492456 0.00436061 0.000147795
0.0180631 9.03502e-22 0.00308322 -0.00339303 0.00291158 -6.57326e-05
-0.0184105 -2.71051e-20 0.00127258 -0.0101334 0.00956172 6.34566e-05
0.0184105 -5.42101e-20 0.00127259 -0.00629954 0.00470135 -0.000267047
-0.018125 -6.77626e-21 0.00358731 0 0 0
0.0181251 6.77626e-21 0.00358737 0 0 0
-0.0183578 5.42101e-20 0.0021071 -0.0110532 0.0103721 8.19662e-05
0.0183579 0 0.00210715 -0.00682895 0.00514288 -0.000308749
-0.018476 -2.71051e-20 0.000447745 -0.00454652 0.00414548 5.61354e-08
0.0184761 2.71051e-20 0.000447774 -0.00245115 0.00186935 6.05109e-06
-0.0182327 -3.38813e-20 0.00362784 0 0 0
0.0182331 -2.03288e-20 0.00362801 0 0 0
-0.0182772 -9.03502e-21 0.0034369 -0.00228881 0.00198322 0.000116098
0.0182774 1.807e-20 0.00343704 -0.00166712 0.00147841 -1.05465e-05
-0.018396 2.71051e-20 0.00281574 -0.00799835 0.00727062 0.000133602
0.0183961 0 0.00281581 -0.00517307 0.00417479 -0.000195059
0.01875 0 4.62891e-13 0 0 0
-0.0187501 0 4.6467e-13 0 0 0
0.01875 0 9.91689e-05 -0.000448879 0.000343437 1.89186e-06
-0.0187501 6.77626e-21 9.90278e-05 -0.000976064 0.000888995 5.65929e-07
-0.0187024 3.10579e-21 0.00167427 -0.0105798 0.00988813 2.3802e-05
0.0187024 -1.97641e-21 0.00167431 -0.00668727 0.00490666 -0.000378723
-0.0184518 -1.35525e-20 0.00371033 0 0 0
0.0184522 1.35525e-20 0.00371046 0 0 0
0.0188247 0 9.24778e-14 0 0 0
-0.0188248 -1.35525e-20 9.05194e-14 0 0 0
-0.0188281 -4.51751e-21 0.000901811 -0.0074921 0.00691937 1.67422e-05
0.0188281 0 0.000901813 -0.00472335 0.00347525 -0.000204403
-0.0188891 0 9.99751e-05 -0.000997627 0.000886878 2.69584e-06
0.0188891 0 0.000100089 -0.000645264 0.000478768 -1.55448e-05
-0.0187325 -2.82344e-22 0.00243398 -0.00972561 0.00899835 3.2757e-05
0.0187326 5.64689e-22 0.00243401 -0.00623994 0.00470735 -0.000372451
-0.0188926 0 7.49551e-14 0 0 0
0.0188926 -1.35525e-20 7.69428e-14 0 0 0
-0.0185639 1.35525e-20 0.00375412 0 0 0
0.0185642 2.71051e-20 0.00375424 0 0 0
-0.0185985 0 0.00364208 -0.00147941 0.00121371 7.00881e-05
0.0185987 -2.71051e-20 0.00364225 -0.00123341 0.000936779 -7.49114e-05
-0.0187022 0 0.00323478 -0.00535064 0.00480789 7.77803e-05
0.0187024 -1.12938e-21 0.00323486 -0.00371983 0.00300195 -0.000189792
-0.01875 0 0.00382122 0 0 0
0.0187502 0 0.00382131 0 0 0
0.0191944 6.77626e-21 6.30458e-14 0 0 0
-0.0191946 -6.77626e-21 6.21199e-14 0 0 0
-0.0192061 -2.71051e-20 0.000471782 -0.00480964 0.00424687 2.08031e-05
0.0192062 0 0.000471778 -0.00345051 0.00255362 -7.61338e-05
-0.0191595 -2.71051e-20 0.00145141 -0.0107579 0.00998021 -8.05879e-05
0.0191595 -2.71051e-20 0.00145142 -0.00717979 0.00509652 -0.000566015
-0.0188263 0 0.00385065 0 0 0
0.0188267 6.77626e-21 0.00385081 0 0 0
-0.0190077 -2.71051e-20 0.00284643 -0.00897677 0.008316 -5.00711e-05
0.0190078 5.42101e-20 0.0028465 -0.00590552 0.00443487 -0.000450767
-0.019139 0 0.00196722 -0.0114095 0.0105707 -0.000112297
0.019139 5.42101e-20 0.00196726 -0.00757549 0.00536612 -0.000633672
-0.0188699 0 0.00376892 -0.00115339 0.00104018 1.53422e-05
0.0188703 0 0.0037689 -0.000839889 0.00081624 -2.07384e-05
-0.0189588 0 0.00362259 -0.00320997 0.00288095 3.97452e-05
0.0189592 -6.02335e-21 0.00362275 -0.00240279 0.00219854 -8.97065e-05
-0.0189237 1.35525e-20 0.00389016 0 0 0
0.0189243 -1.35525e-20 0.00389043 0 0 0
-0.0193514 0 0.0017103 -0.0111888 0.0103455 -0.000127989
0.0193515 2.71051e-20 0.00171031 -0.00749159 0.00527762 -0.000666579
-0.0194092 0 0.000938181 -0.007646 0.00694772 -2.07667e-05
0.0194092 1.31761e-21 0.000938235 -0.00521587 0.00376979 -0.000312392
-0.0194666 0 1.03845e-13 0 0 0
0.0194668 0 1.03775e-13 0 0 0
-0.0194676 0 3.86909e-05 -0.000413503 0.000359836 3.2187e-06
0.0194678 0 3.88215e-05 -0.000360751 0.000265893 -6.80234e-06
-0.0193306 2.25875e-21 0.00249036 -0.0102396 0.00951149 -0.000151419
0.0193307 -7.52918e-22 0.00249038 -0.00676114 0.00479506 -0.000686249
-0.019126 0 0.00398495 0 0 0
0.0191265 0 0.00398518 0 0 0
-0.0192996 4.51751e-21 0.00322408 -0.00673089 0.00622292 -0.000101242
0.0192998 2.25875e-21 0.00322419 -0.00477772 0.00352764 -0.000502562
-0.0191703 -1.35525e-20 0.00393445 -0.000753282 0.000679285 1.36236e-05
0.0191707 0 0.00393471 -0.000625991 0.000534596 -2.38182e-05
-0.0195792 2.71051e-20 0.00146063 -0.0109349 0.0100535 -0.000153771
0.0195792 5.42101e-20 0.00146063 -0.00754934 0.00532983 -0.000698353
-0.0192183 1.35525e-20 0.00403232 0 0 0
0.0192187 0 0.00403252 0 0 0
-0.0195391 2.71051e-20 0.00196502 -0.0116783 0.0108131 -0.000224658
0.0195391 0 0.00196506 -0.00795431 0.0055259 -0.000829273
-0.0196412 0 8.2824e-14 0 0 0
0.0196418 0 8.26879e-14 0 0 0
-0.019692 -2.71051e-20 0.0005066 -0.00533249 0.00466457 1.77057e-05
0.019692 -2.71051e-20 0.000506622 -0.00401566 0.00304914 -6.73983e-05
-0.0193632 2.25875e-22 0.00368353 -0.00392985 0.00358379 -1.15143e-05
0.0193636 1.12938e-22 0.00368367 -0.00308723 0.00240172 -0.000284848
-0.0193748 -1.35525e-20 0.00398025 -0.00125075 0.00119359 2.11805e-06
0.0193751 1.35525e-20 0.00398046 -0.00110653 0.000873727 -8.8393e-05
-0.0193749 -6.77626e-21 0.00411562 0 0 0
0.0193752 -1.35525e-20 0.00411575 0 0 0
-0.0196516 0 0.00282164 -0.00998515 0.0093388 -0.000268249
0.0196518 2.71051e-20 0.0028217 -0.00663796 0.00453695 -0.000903232
-0.0196713 -2.71051e-20 0.00346867 -0.00628462 0.00589386 -0.000174248
0.0196715 -5.42101e-20 0.00346879 -0.00483398 0.00348034 -0.000642894
-0.0195416 1.35525e-20 0.00420424 0 0 0
0.0195422 2.03288e-20 0.00420454 0 0 0
-0.02 1.35525e-20 7.5021e-14 0 0 0
0.0200001 1.35525e-20 7.4999e-14 0 0 0
-0.02 -2.71051e-20 0.000219861 -0.00230242 0.00201759 4.14273e-06
0.0200001 -1.35525e-20 0.000219807 -0.00164196 0.00126195 -2.61448e-05
-0.0196486 2.71051e-21 0.00405876 -0.00186803 0.00175689 1.45221e-05
0.019649 -1.0842e-20 0.00405903 -0.00162147 0.00128554 -0.000128387
0.019997 1.41172e-22 0.00175126 -0.00786836 0.00545233 -0.000991557
-0.019997 0 0.00175132 -0.0113752 0.0103787 -0.000234428
0.0201205 0 2.66712e-14 0 0 0
-0.0201205 0 2.67431e-14 0 0 0
-0.0201124 0 0.00105022 -0.00830746 0.00735652 -8.29306e-05
0.0201124 -2.25875e-21 0.00105024 -0.00603309 0.00430222 -0.000541597
-0.0200024 -3.76459e-22 0.00235173 -0.0106801 0.00988466 -0.000346076
0.0200025 -9.41148e-23 0.0023518 -0.00736916 0.00497098 -0.00110566
-0.0197167 0 0.00429743 0 0 0
0.0197172 1.35525e-20 0.00429767 0 0 0
-0.0199625 1.12938e-21 0.00315688 -0.00842551 0.0079657 -0.000372547
0.0199626 1.12938e-21 0.00315696 -0.00614371 0.00409477 -0.00105174
-0.0198179 1.35525e-20 0.00435132 0 0 0
0.0198183 0 0.00435153 0 0 0
-0.0198553 -2.71051e-20 0.00424327 -0.00115225 0.0010676 -6.37001e-06
0.0198557 1.35525e-20 0.00424354 -0.00121088 0.000786857 -0.000187393
0.0203123 -2.71051e-20 6.21449e-15 0 0 0
-0.0203124 -2.71051e-20 6.14666e-15 0 0 0
0.0203177 0 0.000130802 -0.0010337 0.000739449 -2.49817e-05
-0.0203178 0 0.000130833 -0.00136316 0.00111763 1.37094e-05
-0.01997 -5.64689e-22 0.00385617 -0.00433261 0.00416162 -0.00015931
0.0199702 9.41148e-22 0.00385631 -0.003681 0.00256386 -0.000590928
-0.0202712 2.71051e-20 0.00281169 -0.0102879 0.00966627 -0.000584644
0.0202713 2.71051e-20 0.00281174 -0.00725165 0.00461341 -0.00142663
-0.0199999 0 0.00444833 0 0 0
0.0200001 0 0.00444847 0 0 0
-0.0200605 0 0.00448064 0 0 0
0.0200609 0 0.00448086 0 0 0
-0.0202705 0 0.00349446 -0.0073402 0.00715209 -0.000481748
0.0202706 -2.71051e-20 0.00349456 -0.00596211 0.00380228 -0.00126801
-0.0201021 0 0.00441229 -0.000804121 0.000812989 -3.49836e-05
0.0201026 0 0.00441233 -0.000732134 0.000617238 -9.02351e-05
-0.0201274 1.35525e-20 0.00451629 0 0 0
0.020128 -6.77626e-21 0.00451661 0 0 0
-0.0202112 -3.76459e-21 0.00425016 -0.00265038 0.00267647 -0.000125267
0.0202116 0 0.00425037 -0.00250223 0.00196063 -0.000352249
-0.0206399 -5.42101e-20 0.00178222 -0.0117409 0.0104751 -0.00036679
0.0206399 -5.42101e-20 0.00178223 -0.00855411 0.00585219 -0.00149534
0.0207253 -5.42101e-20 0.000539941 -0.00467124 0.00340435 -0.000175407
-0.0207253 -5.42101e-20 0.000539939 -0.00577741 0.00466493 8.31129e-05
-0.0206015 0 0.00245364 -0.0108613 0.0100426 -0.000552007
0.0206016 -3.38813e-22 0.00245367 -0.00778278 0.00498131 -0.00177297
-0.0205843 1.12938e-21 0.00315111 -0.00915184 0.00877526 -0.000613183
0.0205844 1.12938e-21 0.00315116 -0.00702399 0.00430833 -0.00179569
-0.0203417 1.35525e-20 0.00463048 0 0 0
0.0203423 1.35525e-20 0.00463076 0 0 0
-0.0203949 -1.35525e-20 0.00457254 -0.000729059 0.000753033 -3.43963e-05
0.0203954 0 0.00457285 -0.000779645 0.000557403 -0.000108918
-0.0205502 0 0.00386547 -0.00562121 0.00565323 -0.000423263
0.0205503 -2.25875e-21 0.00386562 -0.00507465 0.00309571 -0.00127237
-0.0204458 0 0.00468592 0 0 0
0.0204463 0 0.00468616 0 0 0
-0.0206078 -5.64689e-22 0.0043176 -0.00340002 0.00349416 -0.000220963
0.0206081 1.12938e-22 0.00431777 -0.00339976 0.00212878 -0.000755094
-0.0209209 5.42101e-20 0.00278889 -0.0108595 0.0101407 -0.000686377
0.020921 0 0.00278892 -0.00783053 0.00474316 -0.00234278
-0.0206248 6.77626e-21 0.0047813 0 0 0
0.0206252 6.77626e-21 0.00478146 0 0 0
-0.0208848 -2.71051e-20 0.00349061 -0.0082173 0.00821742 -0.000700374
0.0208849 -2.71051e-20 0.0034907 -0.00706815 0.00408229 -0.00214489
0.0212501 -1.35525e-20 5.88478e-15 0 0 0
-0.0212501 0 5.83891e-15 0 0 0
0.0212501 0 9.46703e-05 -0.000748155 0.000535188 -1.80809e-05
-0.0212501 0 9.4684e-05 -0.000986518 0.000808828 9.92147e-06
-0.0207397 -6.77626e-21 0.00484247 0 0 0
0.0207403 0 0.00484278 0 0 0
-0.0207851 4.51751e-21 0.00466127 -0.0015772 0.0017028 -8.96389e-05
0.0207854 -4.51751e-21 0.00466152 -0.0017446 0.00108263 -0.000338006
-0.0209257 -2.71051e-20 0.00410294 -0.00556803 0.00584328 -0.000518064
0.020926 0 0.00410307 -0.00546045 0.00305932 -0.00156558
-0.0213163 -1.12938e-21 0.001158 -0.00894542 0.00747537 -7.72702e-05
0.0213163 3.38813e-21 0.00115801 -0.0066727 0.004824 -0.00105093
0.0213763 1.35525e-20 3.47593e-16 0 0 0
-0.0213764 0 3.5283e-16 0 0 0
-0.0212885 1.12938e-21 0.00232627 -0.0112873 0.0102632 -0.000502615
0.0212886 1.12938e-21 0.00232629 -0.00840043 0.00544837 -0.0023572
-0.021208 -2.82344e-22 0.00309796 -0.00991035 0.0094593 -0.000646384
0.021208 1.69407e-21 0.00309802 -0.007877 0.00470562 -0.00254092
0.0214867 0 0.000108836 -0.000863828 0.00063875 -4.83509e-05
-0.0214868 1.35525e-20 0.000108849 -0.00116781 0.000861648 2.57503e-05
0.021494 1.35525e-20 4.39192e-16 0 0 0
-0.0214941 0 4.44401e-16 0 0 0
-0.0209343 1.35525e-20 0.00494614 0 0 0
0.0209347 0 0.00494637 0 0 0
-0.0212499 0 0.00376412 -0.00732231 0.00748258 -0.00061726
0.021247 -2.75286e-21 0.00376429 -0.00680722 0.00374286 -0.00230095
-0.0210472 -1.35525e-20 0.00500632 0 0 0
0.0210476 -1.35525e-20 0.00500653 0 0 0
-0.0210903 0 0.00488625 -0.00120901 0.00124797 -5.7916e-05
0.0210906 -2.71051e-20 0.0048865 -0.0015512 0.000766969 -0.000426224
-0.0212089 4.51751e-21 0.00450243 -0.00397999 0.00426991 -0.000338349
0.0212092 -1.12938e-21 0.00450256 -0.00429873 0.00228059 -0.00132842
-0.0216448 0 0.00289595 -0.0108069 0.010229 -0.00060732
0.0216449 2.71051e-20 0.00289597 -0.00889235 0.00544123 -0.00319382
-0.0212498 3.38813e-21 0.00511424 0 0 0
0.0212501 3.38813e-21 0.00511439 0 0 0
-0.0212808 0 0.00513076 0 0 0
0.0212812 0 0.00513096 0 0 0
-0.0216428 0 0.00333678 -0.00953183 0.00934368 -0.000574181
0.0216429 0 0.00333683 -0.00852284 0.00494527 -0.00329558
-0.0213035 0 0.00509474 -0.000407008 0.000453905 -3.18322e-05
0.0213039 3.38813e-21 0.00509481 -0.000454748 0.000292631 -0.000116196
-0.0215146 2.71051e-20 0.00414914 -0.0066694 0.00724283 -0.000718625
0.0215148 0 0.00414925 -0.00698343 0.00338607 -0.00264658
-0.0213152 -6.77626e-21 0.00514909 0 0 0
0.0213157 0 0.00514937 0 0 0
0.0219709 0 0.000580194 -0.00490606 0.00380512 -0.00032349
-0.021971 5.42101e-20 0.000580199 -0.00635739 0.00466095 0.000172271
-0.0214405 -9.03502e-21 0.00489685 -0.00258936 0.0028732 -0.000202356
0.0214409 -3.01167e-21 0.00489705 -0.00301727 0.00175981 -0.000841773
-0.0219196 0 0.00179911 -0.0121164 0.0103308 -0.000232588
0.0219197 0 0.00179912 -0.00871593 0.00631802 -0.00228061
-0.0218787 -2.82344e-22 0.00244234 -0.0113674 0.0103114 -0.000457645
0.0218787 7.05861e-23 0.00244237 -0.00880858 0.00574229 -0.00301356
-0.0218432 -2.71051e-20 0.00311325 -0.0103523 0.00994661 -0.000568419
0.0218433 0 0.00311327 -0.00887482 0.0052943 -0.0035021
-0.0218301 1.50584e-21 0.00382172 -0.00820523 0.00851259 -0.00062044
0.0218302 -7.52918e-22 0.00382177 -0.00809211 0.00407564 -0.00339551
-0.0215576 1.35525e-20 0.00527824 0 0 0
0.0215581 1.35525e-20 0.00527848 0 0 0
-0.0216181 1.35525e-20 0.00521384 -0.000814793 0.000896025 -4.73084e-05
0.0216185 -1.35525e-20 0.0052141 -0.0010449 0.00054937 -0.000277245
-0.022064 0 0.00288701 -0.0110364 0.0104111 -0.000491781
0.022064 2.71051e-20 0.00288702 -0.00931117 0.00582603 -0.0038235
-0.0217938 2.25875e-21 0.00451147 -0.00543486 0.00594542 -0.000450023
0.021794 -2.25875e-21 0.00451161 -0.00619715 0.00280493 -0.00254854
-0.0220345 -2.71051e-20 0.00332361 -0.0100405 0.00991032 -0.000565797
0.0220346 -2.71051e-20 0.00332366 -0.00920411 0.0053147 -0.00392589
-0.0216748 2.71051e-20 0.00534064 0 0 0
0.0216752 2.71051e-20 0.00534085 0 0 0
-0.0218358 -2.25875e-22 0.00496865 -0.00337308 0.00370105 -0.000230869
0.0218361 1.35525e-21 0.0049688 -0.00420627 0.00187809 -0.00155665
0.0225 -1.35525e-20 -1.57376e-17 0 0 0
-0.0225 0 -1.52709e-17 0 0 0
0.0225 -1.35525e-20 8.44889e-05 -0.000670583 0.000495857 -3.75344e-05
-0.0225 0 8.44943e-05 -0.000906514 0.000668855 1.99887e-05
-0.0221466 0 0.00413228 -0.00803298 0.00864339 -0.000563509
0.0221467 0 0.00413235 -0.0086209 0.00382178 -0.00404044
-0.0218748 -6.77626e-21 0.00544721 0 0 0
0.0218751 1.01644e-20 0.00544736 0 0 0
0.0225909 -1.35525e-20 4.65091e-17 0 0 0
-0.0225909 0 4.69172e-17 0 0 0
-0.0225623 0 0.00117125 -0.00921559 0.00726158 0.000121934
0.0225623 5.64689e-21 0.00117125 -0.00667623 0.00533623 -0.00138775
-0.0219453 1.69407e-20 0.00548473 0 0 0
0.0219458 1.69407e-20 0.00548498 0 0 0
-0.0220186 4.51751e-21 0.0053065 -0.0017371 0.00191082 -9.31948e-05
0.0220189 -1.35525e-20 0.00530671 -0.00235389 0.000987575 -0.000780098
-0.0221547 2.71051e-20 0.00476009 -0.00551858 0.00613154 -0.000414486
0.0221549 2.71051e-20 0.00476021 -0.00686151 0.00271693 -0.00306549
0.0226735 0 8.15118e-05 -0.000603846 0.000505377 -4.99999e-05
-0.0226735 0 8.15168e-05 -0.00088675 0.000587268 3.16227e-05
0.0226781 0 2.50124e-17 0 0 0
-0.0226781 0 2.52005e-17 0 0 0
-0.0225519 -1.12938e-21 0.00239247 -0.0116113 0.010358 -6.61592e-05
0.0225519 4.51751e-21 0.00239248 -0.00928077 0.00657335 -0.00341105
-0.0224875 -5.64689e-22 0.00303827 -0.01085 0.0103131 -0.00023023
0.0224875 5.64689e-22 0.00303832 -0.00954511 0.00608142 -0.00408811
-0.0224955 -7.05861e-23 0.00364649 -0.00933602 0.0095247 -0.00032626
0.0224956 7.05861e-23 0.00364646 -0.00946381 0.00499594 -0.00447369
-0.0221583 1.35525e-20 0.00559821 0 0 0
0.0221587 -1.35525e-20 0.00559841 0 0 0
-0.0224493 -2.25875e-21 0.00445911 -0.00731018 0.00792507 -0.000385972
0.0224494 0 0.00445919 -0.0086127 0.00356324 -0.00427119
-0.0222812 1.35525e-20 0.00566371 0 0 0
0.0222816 -2.71051e-20 0.00566387 0 0 0
-0.0223282 1.35525e-20 0.00553377 -0.00137762 0.00139131 -1.32646e-05
0.0223285 2.71051e-20 0.00553397 -0.00216858 0.000670474 -0.000940309