# Moment      
# CofR        : (0.000000e+00 0.000000e+00 0.000000e+00)
#
# Time        	(total_x total_y total_z)	(pressure_x pressure_y pressure_z)	(viscous_x viscous_y viscous_z)
1             	(2.214495e+02 -7.554859e+00 3.803923e+01)	(2.214500e+02 -7.556307e+00 3.804944e+01)	(-4.607803e-04 1.447726e-03 -1.020082e-02)
2             	(2.215236e+02 -7.613650e+00 3.861282e+01)	(2.215239e+02 -7.614977e+00 3.861941e+01)	(-3.801567e-04 1.326294e-03 -6.590848e-03)
3             	(2.217169e+02 -7.743027e+00 3.997048e+01)	(2.217172e+02 -7.744206e+00 3.997419e+01)	(-2.632064e-04 1.178219e-03 -3.715750e-03)
4             	(2.219880e+02 -7.885160e+00 4.159067e+01)	(2.219880e+02 -7.886170e+00 4.159310e+01)	(-1.465200e-06 1.010084e-03 -2.430443e-03)
5             	(2.223015e+02 -7.984075e+00 4.301921e+01)	(2.223012e+02 -7.984918e+00 4.302151e+01)	(3.772207e-04 8.422589e-04 -2.303556e-03)
6             	(2.224615e+02 -8.046355e+00 4.382679e+01)	(2.224608e+02 -8.047038e+00 4.382964e+01)	(6.924715e-04 6.826590e-04 -2.847695e-03)
7             	(2.224526e+02 -8.064735e+00 4.396670e+01)	(2.224517e+02 -8.065302e+00 4.397045e+01)	(9.362800e-04 5.672905e-04 -3.753205e-03)
8             	(2.223387e+02 -8.049591e+00 4.365834e+01)	(2.223377e+02 -8.050095e+00 4.366286e+01)	(1.077157e-03 5.037205e-04 -4.523181e-03)
9             	(2.221615e+02 -8.014300e+00 4.308280e+01)	(2.221604e+02 -8.014801e+00 4.308775e+01)	(1.075674e-03 5.010401e-04 -4.957295e-03)
10            	(2.219862e+02 -7.972655e+00 4.247299e+01)	(2.219852e+02 -7.973199e+00 4.247795e+01)	(9.111752e-04 5.435584e-04 -4.960010e-03)
11            	(2.218628e+02 -7.937117e+00 4.200989e+01)	(2.218622e+02 -7.937705e+00 4.201446e+01)	(6.637055e-04 5.875876e-04 -4.562332e-03)
12            	(2.218134e+02 -7.916094e+00 4.177527e+01)	(2.218129e+02 -7.916705e+00 4.177923e+01)	(4.818863e-04 6.110771e-04 -3.956750e-03)
13            	(2.218237e+02 -7.910583e+00 4.174837e+01)	(2.218233e+02 -7.911194e+00 4.175170e+01)	(3.855402e-04 6.106032e-04 -3.334828e-03)
14            	(2.218744e+02 -7.915064e+00 4.185018e+01)	(2.218741e+02 -7.915656e+00 4.185301e+01)	(3.824654e-04 5.915528e-04 -2.834552e-03)
15            	(2.219488e+02 -7.927395e+00 4.203859e+01)	(2.219483e+02 -7.927950e+00 4.204111e+01)	(4.651096e-04 5.543592e-04 -2.527248e-03)
16            	(2.220199e+02 -7.942033e+00 4.223717e+01)	(2.220193e+02 -7.942539e+00 4.223958e+01)	(6.086224e-04 5.058295e-04 -2.405330e-03)
17            	(2.220662e+02 -7.954096e+00 4.238639e+01)	(2.220655e+02 -7.954553e+00 4.238881e+01)	(7.711840e-04 4.567797e-04 -2.416815e-03)
18            	(2.220843e+02 -7.961343e+00 4.246457e+01)	(2.220833e+02 -7.961759e+00 4.246707e+01)	(9.102550e-04 4.158852e-04 -2.501468e-03)
19            	(2.220785e+02 -7.963265e+00 4.247301e+01)	(2.220775e+02 -7.963654e+00 4.247561e+01)	(1.006527e-03 3.887093e-04 -2.603860e-03)
20            	(2.220574e+02 -7.961577e+00 4.243984e+01)	(2.220563e+02 -7.961951e+00 4.244252e+01)	(1.063285e-03 3.742746e-04 -2.680671e-03)
21            	(2.220294e+02 -7.957670e+00 4.238496e+01)	(2.220283e+02 -7.958040e+00 4.238767e+01)	(1.085795e-03 3.698587e-04 -2.703354e-03)
22            	(2.220007e+02 -7.952983e+00 4.232593e+01)	(2.219997e+02 -7.953355e+00 4.232860e+01)	(1.080534e-03 3.717037e-04 -2.666802e-03)
23            	(2.219756e+02 -7.948484e+00 4.227273e+01)	(2.219745e+02 -7.948860e+00 4.227531e+01)	(1.053379e-03 3.765675e-04 -2.583767e-03)
24            	(2.219648e+02 -7.945695e+00 4.224538e+01)	(2.219638e+02 -7.946073e+00 4.224785e+01)	(1.026559e-03 3.782684e-04 -2.470303e-03)
25            	(2.219631e+02 -7.944613e+00 4.223765e+01)	(2.219621e+02 -7.944989e+00 4.224000e+01)	(1.009958e-03 3.752355e-04 -2.349249e-03)
26            	(2.219668e+02 -7.944814e+00 4.224278e+01)	(2.219658e+02 -7.945181e+00 4.224502e+01)	(1.004913e-03 3.674002e-04 -2.237623e-03)
27            	(2.219737e+02 -7.946039e+00 4.225546e+01)	(2.219727e+02 -7.946394e+00 4.225761e+01)	(1.011163e-03 3.556795e-04 -2.147551e-03)
28            	(2.219824e+02 -7.947645e+00 4.227226e+01)	(2.219813e+02 -7.947986e+00 4.227434e+01)	(1.027467e-03 3.413745e-04 -2.080600e-03)
29            	(2.219891e+02 -7.949199e+00 4.228723e+01)	(2.219880e+02 -7.949526e+00 4.228927e+01)	(1.049978e-03 3.266282e-04 -2.034885e-03)
30            	(2.219926e+02 -7.950324e+00 4.229701e+01)	(2.219916e+02 -7.950637e+00 4.229901e+01)	(1.074250e-03 3.130059e-04 -2.004990e-03)
31            	(2.219938e+02 -7.950912e+00 4.230145e+01)	(2.219927e+02 -7.951213e+00 4.230343e+01)	(1.098010e-03 3.012065e-04 -1.983948e-03)
32            	(2.219921e+02 -7.950970e+00 4.230026e+01)	(2.219910e+02 -7.951261e+00 4.230223e+01)	(1.118951e-03 2.915950e-04 -1.966082e-03)
33            	(2.219907e+02 -7.950811e+00 4.229840e+01)	(2.219895e+02 -7.951095e+00 4.230034e+01)	(1.139719e-03 2.839014e-04 -1.947069e-03)
34            	(2.219890e+02 -7.950495e+00 4.229530e+01)	(2.219879e+02 -7.950773e+00 4.229722e+01)	(1.158572e-03 2.771716e-04 -1.922072e-03)
35            	(2.219873e+02 -7.950161e+00 4.229241e+01)	(2.219861e+02 -7.950433e+00 4.229430e+01)	(1.175834e-03 2.713020e-04 -1.891827e-03)
36            	(2.219862e+02 -7.949889e+00 4.229018e+01)	(2.219850e+02 -7.950155e+00 4.229204e+01)	(1.190903e-03 2.660861e-04 -1.857793e-03)
37            	(2.219850e+02 -7.949809e+00 4.228904e+01)	(2.219838e+02 -7.950070e+00 4.229086e+01)	(1.205007e-03 2.611781e-04 -1.822781e-03)
38            	(2.219855e+02 -7.949682e+00 4.228800e+01)	(2.219843e+02 -7.949939e+00 4.228979e+01)	(1.215227e-03 2.565575e-04 -1.787286e-03)
39            	(2.219856e+02 -7.949727e+00 4.228776e+01)	(2.219844e+02 -7.949979e+00 4.228952e+01)	(1.224243e-03 2.521813e-04 -1.755429e-03)
40            	(2.219861e+02 -7.949795e+00 4.228784e+01)	(2.219849e+02 -7.950043e+00 4.228957e+01)	(1.231732e-03 2.477514e-04 -1.726101e-03)
41            	(2.219871e+02 -7.949886e+00 4.228807e+01)	(2.219858e+02 -7.950130e+00 4.228977e+01)	(1.238183e-03 2.433993e-04 -1.700069e-03)
42            	(2.219880e+02 -7.949988e+00 4.228832e+01)	(2.219867e+02 -7.950227e+00 4.229000e+01)	(1.244173e-03 2.391446e-04 -1.677002e-03)
43            	(2.219884e+02 -7.950099e+00 4.228830e+01)	(2.219872e+02 -7.950334e+00 4.228996e+01)	(1.250123e-03 2.350021e-04 -1.656441e-03)
44            	(2.219888e+02 -7.950209e+00 4.228836e+01)	(2.219876e+02 -7.950440e+00 4.229000e+01)	(1.256662e-03 2.308753e-04 -1.637256e-03)
45            	(2.219891e+02 -7.950327e+00 4.228845e+01)	(2.219879e+02 -7.950553e+00 4.229007e+01)	(1.264313e-03 2.267568e-04 -1.618789e-03)
46            	(2.219894e+02 -7.950442e+00 4.228870e+01)	(2.219881e+02 -7.950664e+00 4.229030e+01)	(1.273477e-03 2.226607e-04 -1.600677e-03)
47            	(2.219897e+02 -7.950547e+00 4.228917e+01)	(2.219884e+02 -7.950766e+00 4.229076e+01)	(1.284147e-03 2.186124e-04 -1.582809e-03)
48            	(2.219899e+02 -7.950643e+00 4.228978e+01)	(2.219886e+02 -7.950858e+00 4.229135e+01)	(1.295854e-03 2.146584e-04 -1.565468e-03)
49            	(2.219902e+02 -7.950720e+00 4.229055e+01)	(2.219889e+02 -7.950931e+00 4.229210e+01)	(1.308132e-03 2.108750e-04 -1.548914e-03)
50            	(2.219904e+02 -7.950774e+00 4.229138e+01)	(2.219891e+02 -7.950982e+00 4.229291e+01)	(1.320420e-03 2.073360e-04 -1.533366e-03)
51            	(2.219906e+02 -7.950807e+00 4.229217e+01)	(2.219893e+02 -7.951011e+00 4.229368e+01)	(1.332080e-03 2.040788e-04 -1.518914e-03)
52            	(2.219908e+02 -7.950821e+00 4.229284e+01)	(2.219895e+02 -7.951022e+00 4.229434e+01)	(1.342591e-03 2.011231e-04 -1.505533e-03)
53            	(2.219910e+02 -7.950821e+00 4.229336e+01)	(2.219896e+02 -7.951019e+00 4.229486e+01)	(1.351515e-03 1.984487e-04 -1.493246e-03)
54            	(2.219911e+02 -7.950812e+00 4.229374e+01)	(2.219898e+02 -7.951008e+00 4.229522e+01)	(1.358637e-03 1.960445e-04 -1.482045e-03)
55            	(2.219912e+02 -7.950797e+00 4.229397e+01)	(2.219899e+02 -7.950990e+00 4.229544e+01)	(1.363904e-03 1.939215e-04 -1.471842e-03)
56            	(2.219914e+02 -7.950777e+00 4.229407e+01)	(2.219900e+02 -7.950969e+00 4.229554e+01)	(1.367268e-03 1.920717e-04 -1.462447e-03)
57            	(2.219915e+02 -7.950753e+00 4.229406e+01)	(2.219901e+02 -7.950944e+00 4.229552e+01)	(1.368769e-03 1.905098e-04 -1.453716e-03)
58            	(2.219916e+02 -7.950725e+00 4.229396e+01)	(2.219903e+02 -7.950915e+00 4.229540e+01)	(1.368474e-03 1.892695e-04 -1.445582e-03)
59            	(2.219918e+02 -7.950694e+00 4.229379e+01)	(2.219904e+02 -7.950882e+00 4.229523e+01)	(1.366685e-03 1.884291e-04 -1.438035e-03)
60            	(2.219920e+02 -7.950659e+00 4.229358e+01)	(2.219906e+02 -7.950847e+00 4.229501e+01)	(1.363821e-03 1.879874e-04 -1.431244e-03)
61            	(2.219922e+02 -7.950623e+00 4.229336e+01)	(2.219908e+02 -7.950811e+00 4.229479e+01)	(1.360107e-03 1.879382e-04 -1.425488e-03)
62            	(2.219929e+02 -7.950583e+00 4.229338e+01)	(2.219916e+02 -7.950771e+00 4.229480e+01)	(1.355640e-03 1.882997e-04 -1.420743e-03)
63            	(2.219933e+02 -7.950563e+00 4.229320e+01)	(2.219919e+02 -7.950753e+00 4.229462e+01)	(1.350614e-03 1.891844e-04 -1.417670e-03)
64            	(2.219943e+02 -7.950535e+00 4.229338e+01)	(2.219929e+02 -7.950726e+00 4.229480e+01)	(1.345402e-03 1.905110e-04 -1.415783e-03)
65            	(2.219946e+02 -7.950525e+00 4.229330e+01)	(2.219933e+02 -7.950717e+00 4.229472e+01)	(1.340104e-03 1.922320e-04 -1.415292e-03)
66            	(2.219956e+02 -7.950505e+00 4.229364e+01)	(2.219942e+02 -7.950699e+00 4.229506e+01)	(1.335029e-03 1.942005e-04 -1.415353e-03)
67            	(2.219958e+02 -7.950496e+00 4.229364e+01)	(2.219945e+02 -7.950692e+00 4.229506e+01)	(1.329863e-03 1.963413e-04 -1.416049e-03)
68            	(2.219965e+02 -7.950479e+00 4.229390e+01)	(2.219951e+02 -7.950678e+00 4.229531e+01)	(1.324929e-03 1.985115e-04 -1.416910e-03)
69            	(2.219967e+02 -7.950469e+00 4.229390e+01)	(2.219954e+02 -7.950670e+00 4.229532e+01)	(1.319829e-03 2.007616e-04 -1.418468e-03)
70            	(2.219970e+02 -7.950456e+00 4.229394e+01)	(2.219956e+02 -7.950659e+00 4.229536e+01)	(1.314710e-03 2.030190e-04 -1.420732e-03)
71            	(2.219973e+02 -7.950440e+00 4.229405e+01)	(2.219960e+02 -7.950645e+00 4.229547e+01)	(1.309249e-03 2.053531e-04 -1.423474e-03)
72            	(2.219976e+02 -7.950420e+00 4.229418e+01)	(2.219963e+02 -7.950628e+00 4.229560e+01)	(1.303669e-03 2.076979e-04 -1.426400e-03)
73            	(2.219976e+02 -7.950399e+00 4.229419e+01)	(2.219963e+02 -7.950609e+00 4.229562e+01)	(1.298021e-03 2.101655e-04 -1.429317e-03)
74            	(2.219976e+02 -7.950376e+00 4.229421e+01)	(2.219964e+02 -7.950589e+00 4.229564e+01)	(1.292441e-03 2.126996e-04 -1.432194e-03)
75            	(2.219978e+02 -7.950349e+00 4.229434e+01)	(2.219965e+02 -7.950564e+00 4.229577e+01)	(1.287245e-03 2.150894e-04 -1.434798e-03)
76            	(2.219977e+02 -7.950324e+00 4.229436e+01)	(2.219964e+02 -7.950541e+00 4.229580e+01)	(1.282182e-03 2.174035e-04 -1.437264e-03)
77            	(2.219977e+02 -7.950297e+00 4.229439e+01)	(2.219964e+02 -7.950517e+00 4.229583e+01)	(1.277280e-03 2.196472e-04 -1.439445e-03)
78            	(2.219975e+02 -7.950268e+00 4.229442e+01)	(2.219963e+02 -7.950490e+00 4.229586e+01)	(1.272654e-03 2.217749e-04 -1.441287e-03)
79            	(2.219974e+02 -7.950236e+00 4.229445e+01)	(2.219961e+02 -7.950460e+00 4.229590e+01)	(1.268477e-03 2.237234e-04 -1.442658e-03)
80            	(2.219972e+02 -7.950201e+00 4.229449e+01)	(2.219959e+02 -7.950426e+00 4.229594e+01)	(1.264774e-03 2.255224e-04 -1.443381e-03)
81            	(2.219970e+02 -7.950157e+00 4.229459e+01)	(2.219957e+02 -7.950385e+00 4.229603e+01)	(1.261498e-03 2.271710e-04 -1.443219e-03)
82            	(2.219967e+02 -7.950111e+00 4.229462e+01)	(2.219955e+02 -7.950339e+00 4.229606e+01)	(1.258592e-03 2.286861e-04 -1.442211e-03)
83            	(2.219964e+02 -7.950058e+00 4.229464e+01)	(2.219952e+02 -7.950288e+00 4.229608e+01)	(1.256179e-03 2.299645e-04 -1.440288e-03)
84            	(2.219960e+02 -7.949999e+00 4.229464e+01)	(2.219948e+02 -7.950230e+00 4.229608e+01)	(1.254252e-03 2.308745e-04 -1.437367e-03)
85            	(2.219956e+02 -7.949931e+00 4.229463e+01)	(2.219944e+02 -7.950163e+00 4.229606e+01)	(1.252439e-03 2.314360e-04 -1.433524e-03)
86            	(2.219952e+02 -7.949856e+00 4.229461e+01)	(2.219940e+02 -7.950088e+00 4.229603e+01)	(1.250471e-03 2.317179e-04 -1.428977e-03)
87            	(2.219947e+02 -7.949773e+00 4.229457e+01)	(2.219935e+02 -7.950005e+00 4.229599e+01)	(1.248174e-03 2.318139e-04 -1.423885e-03)
88            	(2.219942e+02 -7.949683e+00 4.229451e+01)	(2.219930e+02 -7.949915e+00 4.229593e+01)	(1.245452e-03 2.318485e-04 -1.418412e-03)
