# omega  POINT_DATA 27269
# x  y  z  omega
-2.71051e-20 0.0101542 1.02364e-07 991.929
2.71051e-20 -0.0101542 1.02364e-07 991.76
1.35525e-20 0.0101542 0.000172997 987.842
1.35525e-20 -0.0101542 0.000173027 987.659
-1.35525e-20 0.0101542 0.000494703 1069.39
-1.35525e-20 -0.0101542 0.00049479 1069.2
0 0.0101542 0.000670046 1154.26
0 -0.0101542 0.000670165 1154.08
-1.35525e-20 0.0101542 0.000852458 1227.31
0 -0.0101542 0.000852581 1227.09
-2.71051e-20 0.0101542 0.00118307 1373.23
0 -0.0101542 0.00118319 1372.95
0 0.0101542 0.00136546 1446.05
1.35525e-20 -0.0101542 0.00136559 1445.78
1.35525e-20 0.0102699 0.000142056 991.696
0 -0.0102699 0.000142083 991.517
-1.35525e-20 0.0101542 0.00155417 1495.89
0 -0.0101542 0.00155427 1495.55
-1.35525e-20 0.0102737 9.61398e-08 991.457
0 -0.0102737 9.61398e-08 991.278
-1.35525e-20 0.0102733 0.000515395 1086.69
-2.71051e-20 -0.0102733 0.000515488 1086.5
1.35525e-20 0.0102675 0.000807102 1221.08
1.35525e-20 -0.0102675 0.000807226 1220.87
0 0.0101542 0.00190096 1394.66
-1.35525e-20 -0.0101542 0.00190099 1394.44
0 0.0102675 0.00119418 1391.93
0 -0.0102675 0.00119431 1391.64
0 0.0102594 0.00147516 1495.62
1.35525e-20 -0.0102594 0.00147528 1495.28
2.71051e-20 0.0101542 0.002087 1252.34
-2.71051e-20 -0.0101542 0.002087 1252.31
1.35525e-20 0.0104134 0.000325112 994.846
0 -0.0104134 0.000325171 994.669
0 0.0102564 0.00187922 1378.34
-1.35525e-20 -0.0102564 0.00187925 1378.16
-1.35525e-20 0.010404 0.000979244 1327.03
1.35525e-20 -0.010404 0.000979366 1326.8
-1.35525e-20 0.0102712 0.00214806 1131.91
0 -0.0102712 0.00214806 1131.98
1.35525e-20 0.0103833 0.00161107 1577.57
1.35525e-20 -0.0103834 0.00161115 1577.18
0 0.0103536 0.00205867 1150.55
0 -0.0103536 0.00205869 1150.61
0 0.0105837 0.000111815 936.819
0 -0.0105837 0.00011184 936.595
0 -0.0105846 8.37326e-08 936.774
-6.77626e-21 0.0105846 8.37325e-08 936.998
1.35525e-20 -0.0106742 7.93306e-08 914.82
1.35525e-20 0.0106742 7.93306e-08 915.055
1.12938e-21 0.0106592 0.000632596 859.373
5.64689e-21 -0.0106592 0.000632707 858.212
2.25875e-21 0.0106427 0.00125874 879.42
0 -0.0106428 0.00125887 876.999
-1.35525e-20 0.0107479 8.57773e-05 895.435
1.35525e-20 -0.0107479 8.57999e-05 895.172
0 0.0107513 7.04944e-08 894.845
1.35525e-20 -0.0107513 7.04935e-08 894.583
6.02335e-21 0.0106335 0.0017164 983.127
9.03502e-21 -0.0106336 0.00171649 981.444
0 -0.0105533 0.0022953 1104.67
0 0.0105533 0.0022953 1104.45
0 0.0106374 0.00201561 980.196
0 -0.0106374 0.00201565 980.416
0 0.0106443 0.00223442 1117.42
1.35525e-20 -0.0106443 0.00223443 1117.64
-1.35525e-20 -0.0106478 0.00234462 1183.67
0 0.0106478 0.00234461 1183.46
2.71051e-20 0.0109358 0.000311572 824.305
0 -0.0109358 0.000311625 823.986
0 0.010923 0.000931193 253.024
0 -0.0109231 0.0009313 248.962
0 0.0107254 0.0023851 1246.5
-1.35525e-20 -0.0107254 0.0023851 1246.72
-1.35525e-20 0.0107633 0.00232236 1243.12
1.35525e-20 -0.0107633 0.00232237 1243.34
0 0.0109068 0.00151922 271.699
0 -0.0109068 0.00151932 266.434
0 -0.0111547 5.04028e-09 840.183
6.77626e-21 0.0111547 5.0392e-09 840.473
0 -0.0111547 6.05199e-05 840.284
0 0.0111547 6.04978e-05 840.574
-6.77626e-21 -0.0112084 -1.45754e-09 844.184
-6.77626e-21 0.0112084 -1.45745e-09 844.463
0 0.0112024 0.000609609 528.786
0 -0.0112025 0.000609713 527.337
0 0.0111846 0.00122679 202.859
0 -0.0111846 0.00122692 199.611
0 0.0110963 0.00189314 642.207
-4.06576e-21 -0.0110963 0.00189321 639.831
2.71051e-20 0.0110268 0.00227109 1393.94
2.71051e-20 -0.0110268 0.00227111 1394.16
0 0.0112589 5.31436e-05 848.889
-6.77626e-21 -0.0112589 5.31587e-05 848.612
6.77626e-21 0.0112597 -1.25003e-09 848.962
0 -0.0112597 -1.25006e-09 848.685
0 -0.0110601 0.00255975 1629.29
-6.77626e-21 0.0110601 0.00255975 1629.08
6.77626e-21 -0.0110979 0.00251647 1636.85
0 0.0110979 0.00251647 1636.64
0 -0.011119 0.00259052 1707.08
0 0.011119 0.00259052 1706.87
-6.77626e-21 0.0111709 0.00261751 1770.65
6.77626e-21 -0.0111709 0.00261751 1770.85
0 0.0111908 0.0025787 1768.2
0 -0.0111908 0.0025787 1768.41
-2.71051e-20 0.0114906 0.00030393 866.099
2.71051e-20 -0.0114906 0.000303965 865.854
2.71051e-20 0.0114869 0.000915903 157.541
0 -0.0114869 0.000915995 156.387
-7.52918e-22 0.0113199 0.00230432 1260.99
7.52918e-22 -0.0113199 0.00230434 1259.5
0 0.0114565 0.00155255 120.844
0 -0.0114565 0.00155262 118.537
5.42101e-20 0.0114952 0.0020852 328.997
0 -0.0114952 0.00208524 324.028
2.71051e-20 0.0114493 0.00253745 2024.6
0 -0.0114493 0.00253746 2024.79
0 -0.0117381 7.69852e-10 888.122
0 0.0117382 7.69955e-10 888.344
0 -0.0117389 3.73393e-05 888.176
0 0.0117389 3.7321e-05 888.398
0 -0.011774 9.15423e-10 891.665
0 0.011774 9.15457e-10 891.881
-2.25875e-21 0.0117853 0.000597818 527.512
-5.64689e-22 -0.0117853 0.000597882 526.913
0 0.0118096 8.62839e-10 895.604
0 -0.0118096 8.62786e-10 895.389
-6.77626e-21 0.0118103 3.42421e-05 895.566
-6.77626e-21 -0.0118103 3.42581e-05 895.351
0 0.0117814 0.00122177 127.528
1.12938e-21 -0.0117814 0.00122186 126.154
0 -0.0115287 0.00280389 1602.71
6.77626e-21 0.0115287 0.00280391 1602.58
-6.77626e-21 -0.0115503 0.00277303 1598.46
0 0.0115503 0.00277304 1598.33
-6.77626e-21 -0.0115729 0.0028269 1510.2
0 0.0115729 0.00282691 1510.09
-1.12938e-21 0.0117842 0.00183862 180.387
1.12938e-21 -0.0117842 0.00183867 177.639
0 -0.0116142 0.00284883 1415.88
6.77626e-21 0.0116142 0.00284884 1415.78
0 -0.0116389 0.00280422 1422.27
0 0.0116389 0.00280423 1422.18
-1.69407e-21 0.0117437 0.00238065 919.791
2.25875e-21 -0.0117437 0.00238067 918.113
0 0.0120804 0.000295148 918.505
2.71051e-20 -0.0120804 0.00029517 918.315
0 0.0120943 0.000900326 150.769
0 -0.0120943 0.00090037 149.97
0 0.0121033 0.00152696 79.9141
0 -0.0121033 0.001527 78.6568
0 -0.0119447 0.00270132 993.098
0 0.0119447 0.00270132 993.065
0 -0.0120973 0.00216163 172.234
2.71051e-20 0.0120973 0.00216161 174.44
0 -0.0123534 7.40895e-11 976.658
3.38813e-21 0.0123534 7.40735e-11 976.794
-3.38813e-21 -0.0123542 2.17307e-05 976.693
3.38813e-21 0.0123542 2.17129e-05 976.83
0 -0.0119749 0.00303994 1134.94
0 0.011975 0.00303995 1134.94
6.77626e-21 -0.0120031 0.003 1137.38
0 0.0120032 0.00300001 1137.38
-3.38813e-21 -0.0123759 4.08364e-11 981.622
-3.38813e-21 0.0123759 4.08439e-11 981.748
0 -0.012014 0.00306072 1166.42
6.77626e-21 0.0120141 0.00306073 1166.42
-3.38813e-21 0.0123981 3.93563e-11 987.38
3.38813e-21 -0.0123981 3.9348e-11 987.264
0 0.0123987 1.92171e-05 987.409
3.38813e-21 -0.0123988 1.92316e-05 987.292
5.64689e-22 0.0124007 0.000576143 574.602
0 -0.0124007 0.000576167 574.253
6.77626e-21 -0.0120517 0.00308065 1193.56
-6.77626e-21 0.0120518 0.00308066 1193.57
0 -0.0120702 0.00304383 1192.55
0 0.0120702 0.00304384 1192.56
8.47033e-22 0.0124207 0.00119161 114.518
-5.64689e-22 -0.0124207 0.00119164 113.997
5.64689e-22 0.0124235 0.0018465 102.956
-8.47033e-22 -0.0124235 0.00184652 101.419
1.807e-21 -0.0123834 0.00256028 608.329
-1.12938e-21 0.0123834 0.00256028 610.735
-2.71051e-20 0.0126967 0.000276523 1046.96
2.71051e-20 -0.0126967 0.000276524 1046.9
-2.71051e-20 -0.0123512 0.00296169 1341.98
-2.71051e-20 0.0123512 0.0029617 1341.99
-2.71051e-20 0.0127273 0.00085768 163.714
0 -0.0127273 0.000857696 163.36
0 -0.0124094 0.00326998 1565.91
0 0.0124094 0.00326999 1566
-2.71051e-20 0.0127511 0.0014915 62.842
-2.71051e-20 -0.0127511 0.00149152 63.1696
-6.77626e-21 -0.0124312 0.00323672 1569.18
0 0.0124312 0.00323674 1569.28
-6.77626e-21 -0.0124456 0.00328913 1612.96
6.77626e-21 0.0124456 0.00328914 1613.06
0 -0.0124806 0.00330747 1652.96
0 0.0124806 0.00330748 1653.09
0 -0.012495 0.00327722 1651.39
-6.77626e-21 0.012495 0.00327723 1651.51
-2.71051e-20 -0.0127411 0.00217416 89.1133
-2.71051e-20 0.0127411 0.00217415 92.0563
-7.52918e-22 -0.0126308 0.00298512 1191.26
2.63521e-21 0.0126308 0.00298513 1193.64
-8.47033e-22 0.0130206 3.20561e-06 1226.55
8.47033e-22 -0.0130119 3.91712e-06 1226.52
5.64689e-22 0.0130338 0.000526399 717.101
-2.82344e-22 -0.0130338 0.000526404 717.343
-2.71051e-20 -0.0127926 0.00274398 303.576
2.71051e-20 0.0127927 0.00274399 310.675
3.5293e-22 0.0130479 0.00109195 150.608
-7.05861e-23 -0.0130502 0.0010895 150.684
0 0.0131039 1.35816e-12 1221.18
-1.69407e-21 -0.0131042 1.35716e-12 1221.13
2.71051e-20 -0.0127558 0.00321824 1883.06
-2.71051e-20 0.0127559 0.00321826 1883.27
1.8823e-22 0.0130771 0.00181208 76.2239
3.5293e-22 -0.0130771 0.00181207 73.7715
6.77626e-21 -0.012831 0.00349155 1476.82
6.77626e-21 0.0128311 0.00349157 1476.95
6.77626e-21 -0.0128493 0.0034632 1473.33
6.77626e-21 0.0128494 0.00346322 1473.46
2.82344e-22 -0.0130837 0.00247343 156.726
-2.82344e-22 0.0130837 0.00247343 163.625
0 0.0133274 0.000238487 1412.76
-2.71051e-20 -0.0133275 0.000238484 1412.74
-6.77626e-21 -0.0128661 0.00350997 1401.77
0 0.0128662 0.00350999 1401.88
0 -0.0129007 0.00352804 1322.6
-6.77626e-21 0.0129008 0.00352806 1322.71
6.77626e-21 -0.0129237 0.00348635 1329.21
6.77626e-21 0.0129238 0.00348637 1329.32
0 -0.0130385 0.00304627 858.389
0 0.0130385 0.00304628 862.953
2.71051e-20 0.013369 0.00076234 216.546
2.71051e-20 -0.013369 0.000762345 217.873
2.71051e-20 0.013433 0.00137815 61.4828
2.71051e-20 -0.013433 0.00137815 60.9937
0 0.0134155 0.00211071 61.3001
-2.71051e-20 -0.0134155 0.00211071 55.764
2.71051e-20 -0.0132269 0.0033667 931.975
0 0.013227 0.00336671 932.029
-1.97641e-21 -0.0136582 0.000454838 797.553
-1.97641e-21 0.0136582 0.000454825 796.573
2.71051e-20 -0.0133905 0.00280403 158.018
-5.42101e-20 0.0133905 0.00280404 169.909
0 0.0137199 1.34254e-13 1196.37
-3.38813e-21 -0.01372 1.34237e-13 1196.28
0 0.0137206 2.20322e-05 1195.82
0 -0.0137207 2.20681e-05 1195.73
-3.38813e-21 0.0137216 0.000180456 1048.03
3.38813e-21 -0.0137217 0.000180602 1048.26
0 0.0137515 1.02843e-14 1191.04
0 -0.0137517 1.00455e-14 1190.93
0 -0.013245 0.00370834 1084.66
0 0.0132451 0.00370836 1084.75
6.77626e-21 -0.0132718 0.0036714 1087.48
6.77626e-21 0.0132719 0.00367143 1087.57
0 0.0137721 1.60801e-05 1216.29
3.38813e-21 -0.0137723 1.61064e-05 1216.22
0 0.0137737 6.1425e-15 1217.8
0 -0.0137739 5.90542e-15 1217.74
0 -0.0132782 0.00372571 1112.94
0 0.0132783 0.00372573 1113.02
-3.38813e-21 0.0137944 0.0008866 265.961
3.38813e-21 -0.0137944 0.000886594 267.236
0 -0.0133096 0.00374322 1138.56
6.77626e-21 0.0133097 0.00374323 1138.65
-3.38813e-21 0.0138291 2.83676e-15 1205.02
0 -0.0138293 2.61637e-15 1204.93
0 -0.0133282 0.00371043 1137.59
0 0.0133283 0.00371044 1137.67
0 0.0137533 0.00171115 60.1712
-5.64689e-22 -0.0137533 0.00171115 57.2285
-1.05879e-22 0.013671 0.00246354 100.097
0 -0.0136715 0.00246353 90.5718
1.05879e-22 0.0137215 0.00246193 94.6957
0 -0.0137202 0.00246202 85.0127
-9.52912e-22 -0.0137187 0.00249021 103.271
1.05879e-22 0.0137187 0.00249051 113.031
2.25875e-22 -0.0136619 0.00322325 587.888
-9.03502e-22 0.0136619 0.00322326 594.314
0 -0.013613 0.00362485 1301.18
0 0.013613 0.00362486 1301.28
-2.82344e-22 0.0141363 0.000319418 822.057
1.41172e-21 -0.0141363 0.000319427 822.087
5.42101e-20 0.0140903 0.00128026 70.1618
0 -0.0140903 0.00128025 71.6166
-2.71051e-20 0.0140598 0.00206638 49.077
0 -0.0140598 0.00206638 42.1398
0 -0.0136636 0.00393548 1515.25
-3.38813e-21 0.0136637 0.00393551 1515.35
0 -0.0136786 0.00391516 1517.4
0 0.0136787 0.00391521 1517.5
1.35525e-20 0.0142378 8.24085e-16 949.896
0 -0.0142379 7.74981e-16 949.732
-3.38813e-21 -0.0136842 0.00394696 1538.36
0 0.0136843 0.00394697 1538.44
3.38813e-21 -0.0137015 0.00395978 1555.17
0 0.0137016 0.00395978 1555.23
0 -0.0137142 0.00394396 1554.84
-3.38813e-21 0.0137143 0.00394398 1554.91
2.71051e-20 -0.0140217 0.00281655 81.152
0 0.0140217 0.00281656 95.3152
5.64689e-22 -0.013895 0.00367137 1140.96
-1.8823e-22 0.013895 0.00367138 1143.55
4.07831e-22 -0.0144241 0.000793247 332.642
-7.8429e-23 0.0144242 0.00079323 328.108
-1.35525e-20 0.014454 1.47583e-16 972.801
1.35525e-20 -0.014454 1.45358e-16 972.672
-7.05861e-22 0.0143969 0.00165239 59.77
-2.82344e-22 -0.0143969 0.00165239 58.5715
0 -0.0140801 0.00343826 299.647
2.71051e-20 0.0140802 0.00343827 307.441
-5.42101e-20 -0.0140066 0.00392192 1796.86
-5.42101e-20 0.0140066 0.00392193 1796.88
0 0.0143667 0.00242472 63.1736
-3.49401e-20 -0.0143633 0.0024249 51.7247
2.11758e-22 -0.0143624 0.00267802 84.5895
2.11758e-22 0.0143624 0.00267914 97.4721
0 -0.0140362 0.00420868 1875.82
0 0.0140362 0.00420869 1875.94
0 -0.014043 0.00420183 1876.49
0 0.014043 0.00420185 1876.61
-1.69407e-21 -0.0140443 0.00421476 1882.05
1.69407e-21 0.0140444 0.00421477 1882.17
0 0.0140522 0.00422058 1884.6
0 -0.0140522 0.00422057 1884.47
-1.69407e-21 0.0140564 0.00421301 1884.77
0 -0.0140564 0.004213 1884.65
-2.71051e-20 -0.0146848 -3.36519e-17 741.937
1.35525e-20 0.0146849 -3.19561e-17 741.952
4.23516e-22 -0.0143543 0.00313092 143.602
0 0.0143544 0.00313093 158.653
-4.23516e-22 -0.0143609 0.00313028 144.268
1.82112e-20 0.014361 0.00313028 159.349
-2.71051e-21 0.0147048 0.000271709 714.359
8.13152e-21 -0.0147048 0.000271669 714.353
4.23516e-22 -0.014356 0.00330023 350.27
8.47033e-22 0.014356 0.00329998 365.408
2.71051e-20 0.0147336 0.0012417 75.9252
0 -0.0147336 0.0012417 84.2424
0 -0.0146216 0.00238757 48.1758
0 0.0146232 0.00238733 59.2912
5.42101e-20 0.0146912 0.002036 44.5327
-2.71051e-20 -0.0146912 0.002036 37.2837
6.85693e-22 0.0143356 0.00382207 1058.46
-2.82344e-22 -0.0143356 0.00382206 1043.14
0 -0.0143244 0.00417019 1980.05
-2.71051e-20 0.0143244 0.0041702 1980.25
8.47033e-22 -0.014279 0.00438886 2087.99
-8.47033e-22 0.014279 0.00438882 2088.15
0 -0.0146906 0.00275582 47.4545
0 0.0146906 0.00275582 64.7689
-1.41172e-22 0.0149591 0.00165211 57.2106
0 -0.0149613 0.00165074 57.5045
2.71051e-20 -0.0146586 0.00346816 129.723
2.71051e-20 0.0146586 0.00346817 151.352
8.47033e-22 -0.0144053 0.00448257 2195.43
8.47033e-22 0.0144084 0.00447896 2195.68
1.69407e-20 -0.0151193 -3.98497e-17 569.081
0 0.0151197 -3.92978e-17 569.054
0 -0.0144514 0.00451673 2122.91
-4.23516e-21 0.0144515 0.00451673 2123.13
0 -0.0151611 3.47553e-05 553.281
0 0.0151612 3.45389e-05 553.351
0 -0.0151665 -1.47742e-17 554.702
-3.38813e-21 0.0151666 -1.46568e-17 554.763
-2.63521e-21 -0.0145673 0.00422607 1621.07
1.12938e-21 0.0145673 0.00422607 1640.28
-3.38813e-21 0.0151843 -9.97863e-18 558.362
0 -0.0151843 -1.00127e-17 558.322
3.38813e-21 -0.015166 0.000867971 317.419
-2.25875e-21 0.015166 0.000867969 313.087
0 0.0152149 -1.00721e-17 555.162
3.38813e-21 0.0152149 2.26676e-05 555.101
0 -0.0152151 -1.0106e-17 555.101
0 -0.0152152 2.28123e-05 555.04
2.71051e-20 -0.0147125 0.00402551 419.298
2.71051e-20 0.0147125 0.00402552 477.72
4.23516e-22 -0.0150843 0.00231356 41.7108
7.19978e-21 0.0150843 0.00231357 52.2488
3.38813e-21 -0.0150902 0.00232073 41.7587
0 0.0150841 0.00232059 52.343
-2.82344e-22 -0.0149792 0.00312141 70.767
-2.82344e-22 0.0149792 0.00312141 89.5227
-2.71051e-20 -0.0146794 0.00445852 2437.1
0 0.0146795 0.00445852 2437.33
0 0.0149711 0.00367509 220.555
0 -0.0149711 0.00367531 189.651
1.10114e-20 0.0149684 0.0037778 244.783
0 -0.0149706 0.00377568 211.575
6.77626e-21 -0.0147268 0.00472094 1777.29
0 0.0147268 0.00472094 1777.43
0 -0.0147397 0.0047038 1773.43
-6.77626e-21 0.0147397 0.0047038 1773.58
6.77626e-21 -0.0147494 0.00473773 1717.21
6.77626e-21 0.0147494 0.00473773 1717.33
-8.47033e-22 -0.0150248 0.0037779 201.214
-2.11758e-22 0.0150249 0.0037779 233.542
-6.77626e-21 -0.0147753 0.00475693 1577.08
-6.77626e-21 0.0147753 0.00475692 1577.17
0 0.0147957 0.00471952 1601.08
6.77626e-21 -0.0147957 0.00471952 1600.98
4.23516e-22 0.0149238 0.00432823 1117.25
0 -0.0149238 0.00432823 1097.52
6.98802e-21 0.0149284 0.00431371 1098.32
-4.87044e-21 -0.0149308 0.00431431 1077.93
0 0.0153072 0.00276685 52.0453
0 -0.0153072 0.00276684 38.0855
-2.5411e-21 -0.0149537 0.00432327 1056.6
-3.17637e-21 0.0149537 0.00432327 1076.7
-2.71051e-20 -0.0152762 0.00345527 68.2166
0 0.0152762 0.00345527 90.1616
5.42101e-20 0.0156652 0.00170503 47.4015
0 -0.0156652 0.00170503 47.445
-2.71051e-20 0.0150898 0.00463314 992.231
-2.71051e-20 -0.0150898 0.00463315 992.217
-2.71051e-20 -0.0152566 0.00410558 195.277
5.42101e-20 0.0152566 0.00410558 223.79
0 0.0156482 0.00239976 46.1287
0 -0.0156482 0.00239976 39.3008
-6.77626e-21 0.0150378 0.00495165 1036.84
6.77626e-21 -0.0150378 0.00495167 1036.81
5.42101e-20 -0.0158313 0.000505744 312.83
0 0.0158313 0.000505741 312.842
0 0.0150929 0.00489487 1045.83
0 -0.0150929 0.0048949 1045.8
0 0.0150892 0.00498978 1112.09
0 -0.0150892 0.0049898 1112.04
0 -0.015606 0.00310341 46.6152
-2.82344e-22 0.015606 0.00310341 60.6088
-6.77626e-21 0.0151439 0.00503033 1097.93
6.77626e-21 -0.0151439 0.00503034 1097.86
-1.35525e-20 -0.0151784 0.00496291 1097.82
-1.35525e-20 0.0151784 0.0049629 1097.88
4.51751e-22 0.0155884 0.00378776 120.996
5.64689e-22 -0.0155884 0.00378777 97.5906
-1.12938e-21 0.0155033 0.00450865 593.41
-6.77626e-22 -0.0155033 0.00450866 579.351
2.71051e-20 0.0154178 0.0049056 1171.05
-2.71051e-20 -0.0154178 0.0049056 1170.96
2.71051e-20 -0.0159469 0.00273843 35.5619
0 0.0159469 0.00273843 40.2999
6.77626e-21 0.0153971 0.00521817 1254.05
6.77626e-21 -0.0153971 0.00521817 1253.95
2.71051e-20 -0.015903 0.00343511 45.2401
-2.71051e-20 0.015903 0.0034351 60.4179
0 0.0154387 0.00517349 1262.35
-6.77626e-21 -0.0154387 0.00517349 1262.25
0 -0.0154377 0.00524826 1332.29
-6.77626e-21 0.0154377 0.00524826 1332.37
2.11758e-21 0.0163333 -1.09536e-18 306.745
-4.23516e-22 -0.0163358 -1.0789e-18 306.189
-6.77626e-21 0.0154764 0.00527696 1315.8
0 -0.0154764 0.00527696 1315.72
0 0.0155053 0.00524155 1315.3
0 -0.0155053 0.00524155 1315.22
2.11758e-22 0.0163532 0.0011213 166.371
6.35275e-22 -0.0163537 0.00112142 168.24
2.71051e-20 0.0158756 0.0041209 117.458
0 -0.0158756 0.00412091 87.6313
0 0.0163769 0.00112769 163.307
1.48231e-21 -0.0163768 0.00112766 165.204
0 -0.0156933 0.00495313 977.626
0 0.0156933 0.00495313 982.79
-4.23516e-22 0.0164702 3.17491e-06 276.458
0 -0.0164637 2.59852e-06 276.467
-2.25875e-21 0.0163214 0.00227444 40.1883
-1.12938e-21 -0.0163214 0.00227444 40.8265
-1.12938e-22 -0.0162376 0.0030774 39.6213
-6.77626e-22 0.0162376 0.0030774 45.6168
-2.71051e-20 0.0159046 0.00473208 295.25
-2.71051e-20 -0.0159046 0.00473208 279.658
5.42101e-20 0.0157801 0.0052058 1431.94
-2.71051e-20 -0.0157801 0.00520581 1431.86
-1.12938e-21 0.0162469 0.00372972 69.9378
-5.64689e-22 -0.0162469 0.00372972 56.6818
0 -0.0157746 0.00549809 1508.18
0 0.0157746 0.00549809 1508.34
0 -0.0158015 0.00547415 1510.76
6.77626e-21 0.0158015 0.00547415 1510.92
0 0.015805 0.00552064 1522.18
0 -0.015805 0.00552065 1522.01
6.77626e-21 0.0158347 0.00554269 1536.46
6.77626e-21 -0.0158347 0.00554271 1536.29
0 0.015853 0.00551418 1536.62
6.77626e-21 -0.015853 0.00551419 1536.46
6.77626e-22 -0.0161981 0.00441892 133.768
-3.38813e-22 0.0161981 0.00441892 152.796
2.71051e-20 0.0166697 0.00284041 32.9619
-5.42101e-20 -0.0166697 0.00284042 35.2953
0 -0.0161695 0.00510699 806.938
2.25875e-22 0.0161695 0.00510699 820.442
0 0.0166597 0.00328607 37.6194
0 -0.0166597 0.00328607 36.6144
-2.71051e-20 0.0165248 0.00409519 60.9485
0 -0.0165248 0.00409519 55.2025
0 0.0161207 0.00547662 1625.78
0 -0.0161207 0.00547663 1625.53
5.42101e-20 -0.0170334 0.000576917 240.55
1.0842e-19 0.0170334 0.000576922 240.52
0 -0.0168874 0.00239019 40.1452
1.48231e-21 0.0168876 0.00239023 35.2648
0 -0.0169716 0.00176737 49.9542
5.42101e-20 0.0169716 0.00176737 42.4015
-2.11758e-22 -0.0169179 0.00239498 40.108
0 0.0169179 0.00239499 35.0038
1.27055e-21 0.0169438 0.00239539 35.0637
-2.5411e-21 -0.016944 0.00239538 40.2636
0 0.0168719 0.00305894 33.0261
1.35525e-20 -0.0168719 0.00305894 35.7526
0 -0.0161674 0.00578952 1814.98
0 0.0161674 0.00578953 1815.21
0 0.0165034 0.00475626 144.751
2.71051e-20 -0.0165034 0.00475626 118.797
0 -0.0161836 0.0057701 1817.24
0 0.0161836 0.00577012 1817.46
6.77626e-21 -0.0161897 0.00580604 1838.11
0 0.0161897 0.00580604 1838.32
0 0.0162121 0.00582274 1864.51
0 -0.0162122 0.00582275 1864.32
0 0.0162243 0.00580495 1863.7
6.77626e-21 -0.0162243 0.00580495 1863.51
3.38813e-22 -0.0168523 0.00374134 44.2724
-9.03502e-22 0.0168523 0.00374134 44.3877
-4.23516e-22 0.0163973 0.00553969 1353.65
0 -0.0163973 0.00553969 1343.56
0 -0.0170978 0.00283719 35.4955
2.71051e-20 0.0170978 0.00283719 30.0534
0 -0.0170665 0.00327483 35.5902
5.42101e-20 0.0170665 0.00327483 31.206
5.42101e-20 0.0165625 0.00532761 402.778
0 -0.0165626 0.0053276 372.514
2.82344e-22 0.0168336 0.0044175 76.3295
0 -0.0168336 0.00441751 71.4121
0 0.0164976 0.00578806 2067.15
2.71051e-20 -0.0164976 0.00578806 2066.97
-2.25875e-22 0.0168265 0.00507001 225.84
-1.12938e-22 -0.0168265 0.00507001 212.437
0 0.0176289 1.51906e-05 238.054
3.38813e-21 -0.0176289 1.51556e-05 238.219
0 0.0176298 -8.15706e-23 238.054
0 -0.0176298 -8.11123e-23 238.219
-2.82344e-22 -0.0176062 0.00116021 147.046
-5.64689e-22 0.0176062 0.00116021 142.865
0 -0.0176451 -1.76813e-23 238.203
0 0.0176451 -1.755e-23 238.035
0 0.0171749 0.00405965 37.3037
0 -0.0171749 0.00405966 42.3848
0 -0.0176602 1.54426e-05 238.116
0 0.0176603 1.54779e-05 237.944
3.38813e-21 -0.0176607 -1.98489e-23 238.116
0 0.0176607 -1.97287e-23 237.944
6.77626e-21 0.0165809 0.00609703 1750.1
0 -0.0165809 0.00609703 1749.84
0 0.0165981 0.00608064 1747.99
6.77626e-21 -0.0165981 0.00608064 1747.73
0 -0.016605 0.00611494 1729.41
0 0.016605 0.00611495 1729.68
0 -0.0166198 0.0061272 1761.6
0 0.0166198 0.00612721 1761.87
0 -0.0166291 0.00611137 1759.77
0 0.0166291 0.00611138 1760.04
2.25875e-21 0.0175901 0.00236117 36.5421
-1.12938e-21 -0.0175901 0.00236117 44.1363
0 -0.0166534 0.00615457 1762.69
0 0.0166534 0.00615459 1762.97
-7.52918e-22 -0.0168284 0.00572854 1074.58
0 0.0168284 0.00572853 1088.24
1.41172e-22 0.0175166 0.00305113 29.7578
0 -0.0175166 0.00305113 36.1434
2.71051e-20 0.0171428 0.00473441 62.4606
2.71051e-20 -0.0171428 0.00473441 69.2663
0 0.017534 0.00360681 32.1737
-1.12938e-21 -0.017534 0.00360681 38.6695
0 0.0171172 0.00539736 169.248
-5.42101e-20 -0.0171172 0.00539736 168.133
1.12938e-22 -0.01747 0.00438795 50.0397
-5.64689e-23 0.01747 0.00438795 41.8488
6.77626e-21 -0.0168947 0.00636213 1537.76
1.35525e-20 0.0168947 0.00636213 1538.13
1.41172e-22 -0.0170243 0.00618637 1440.49
5.64689e-22 0.017024 0.00618835 1440.88
5.64689e-22 0.0174372 0.00507024 83.8678
-2.82344e-22 -0.0174372 0.00507024 94.5362
1.0842e-19 -0.0182236 0.000583086 235.779
-1.0842e-19 0.0182236 0.000583084 235.471
0 0.0177925 0.00405319 30.8739
0 -0.0177925 0.00405319 38.9605
-5.42101e-20 -0.018201 0.00177192 56.8801
0 0.018201 0.00177192 47.8397
-2.25875e-22 -0.0173656 0.00581376 519.866
1.58113e-21 0.0173656 0.00581376 520.378
0 0.0171242 0.00658581 1697.57
0 -0.0171242 0.00658582 1697.17
0 0.0177701 0.0047233 38.0282
0 -0.0177701 0.0047233 50.9666
6.77626e-21 0.0171594 0.0066222 1720.59
-6.77626e-21 -0.0171594 0.0066222 1720.18
0 0.0171745 0.00660974 1714.85
0 -0.0171745 0.00660974 1714.44
-6.77626e-21 0.0171745 0.00663768 1664.35
0 -0.0171745 0.00663768 1663.93
0 0.0181606 0.00305643 27.6516
-5.42101e-20 -0.0181606 0.00305643 36.6937
0 -0.01719 0.00665349 1717.83
0 0.01719 0.00665349 1718.25
0 -0.0172014 0.00663722 1711.92
0 0.0172014 0.00663722 1712.34
-6.77626e-21 -0.017284 0.00651867 1443.96
-3.38813e-21 0.017284 0.00651867 1448.1
6.77626e-21 -0.0172277 0.00669185 1713.65
0 0.0172277 0.00669185 1714.07
-2.82344e-22 -0.0181264 0.00381063 38.2743
0 0.0181264 0.00381066 30.2768
0 -0.0177303 0.00540333 89.2151
2.71051e-20 0.0177303 0.00540333 65.4357
-4.51751e-21 -0.0174485 0.00633775 1105.34
0 0.0174485 0.00633776 1111.35
0 0.0181015 0.00437909 33.079
0 -0.0181015 0.00437909 42.3747
0 0.0177286 0.00604036 165.84
-2.71051e-20 -0.0177286 0.00604036 211.229
-5.64689e-22 0.018075 0.00504761 42.8542
0 -0.018075 0.00504762 59.4875
-6.77626e-21 -0.0174666 0.00693495 1636.47
-6.77626e-21 0.0174666 0.00693496 1636.92
-3.38813e-21 0.0188065 1.62831e-05 235.076
0 -0.0188065 1.62567e-05 235.739
0 0.0188069 2.04227e-24 235.076
0 -0.0188069 2.03255e-24 235.739
0 -0.0188233 -2.45897e-25 235.752
3.38813e-21 0.0188233 -2.46332e-25 235.079
0 -0.0188395 1.62122e-05 235.752
-3.38813e-21 0.0188396 1.62383e-05 235.069
0 -0.0188397 -2.40682e-25 235.752
0 0.0188397 -2.41103e-25 235.069
5.64689e-22 -0.0188091 0.00116454 148.898
-1.12938e-21 0.0188091 0.00116454 144.848
2.71051e-20 0.0184387 0.00403102 30.5615
-2.71051e-20 -0.0184387 0.00403102 37.5389
-7.05861e-23 -0.0176205 0.00677795 1523.68
0 0.0176205 0.00677795 1524
0 -0.0180488 0.00571123 114.808
-5.64689e-22 0.0180488 0.00571123 81.1906
0 -0.018794 0.00239227 49.251
-8.47033e-22 0.018794 0.00239227 42.5829
-2.71051e-20 0.0184023 0.0046998 32.9757
5.42101e-20 -0.0184023 0.0046998 42.2347
-4.51751e-21 -0.0179596 0.00643086 592.417
3.76459e-22 0.0179596 0.00643086 575.311
0 0.0177052 0.00717767 1688.69
0 -0.0177052 0.00717767 1688.18
0 -0.0177437 0.00721689 1686.22
-6.77626e-21 0.0177437 0.0072169 1686.73
0 0.0184015 0.00534889 36.1449
2.71051e-20 -0.0184015 0.00534889 56.8525
0 -0.0177602 0.00720499 1680.19
0 0.0177602 0.00720499 1680.7
0 -0.0177596 0.00723308 1629.06
0 0.0177596 0.00723309 1629.58
0 -0.0177751 0.00724885 1678.85
0 0.0177751 0.00724886 1679.37
1.41172e-22 -0.0188307 0.00372997 37.6285
-1.41172e-22 0.0188307 0.00373003 32.5094
-6.77626e-21 -0.017788 0.00723288 1673.51
-6.77626e-21 0.017788 0.00723289 1674.03
4.23516e-22 -0.018738 0.00435322 38.986
4.23516e-22 0.018738 0.00435322 32.7486
4.23516e-22 -0.0187376 0.00436113 39.0087
-1.56701e-20 0.0187376 0.00436113 32.7813
6.77626e-21 -0.0178113 0.00728564 1659.64
6.77626e-21 0.0178113 0.00728566 1660.18
-6.77626e-21 -0.0178794 0.00711713 1410.48
-6.77626e-21 0.0178794 0.00711713 1412.23
2.71051e-20 -0.0183488 0.00603424 101.173
0 0.0183488 0.00603424 57.0862
-6.02335e-21 -0.0180548 0.00694831 1083.65
-3.01167e-21 0.0180548 0.00694832 1082.8
0 -0.0194128 0.000584032 235.717
-5.42101e-20 0.0194128 0.000584032 234.677
-5.64689e-22 -0.018803 0.00493677 46.0048
-2.82344e-22 0.018803 0.00493677 34.3376
0 -0.0194073 0.00177875 63.4721
-5.42101e-20 0.0194073 0.00177875 57.5122
0 -0.0183455 0.00666212 214.273
0 0.0183455 0.00666212 144.791
5.64689e-22 -0.0186965 0.00568331 66.2611
0 0.0186965 0.00568331 40.2956
2.71051e-20 -0.0180387 0.00751698 1496.55
-6.77626e-21 0.0180387 0.00751699 1497.17
1.0842e-19 -0.0194176 0.0030161 39.3091
5.42101e-20 0.0194176 0.0030161 36.6623
0 -0.0182201 0.0073749 1415.94
-3.76459e-22 0.0182201 0.0073749 1416.06
0 -0.0186655 0.00633955 120.686
1.12938e-21 0.0186655 0.00633956 72.7653
-2.71051e-20 -0.0190338 0.00534623 45.5817
2.71051e-20 0.0190338 0.00534623 33.1515
-2.25875e-22 -0.0185755 0.00702539 527.101
-3.83988e-21 0.0185755 0.00702539 502.237
0 0.0193824 0.00433462 36.1616
-1.0842e-19 -0.0193824 0.00433462 36.3665
3.38813e-21 0.0182812 0.00776357 1880.26
3.38813e-21 -0.0182812 0.00776356 1879.48
-3.38813e-21 -0.0182994 0.00778211 1887.48
0 0.0182994 0.00778212 1888.28
0 -0.0183082 0.00777648 1886.85
-3.38813e-21 0.0183082 0.00777649 1887.64
0 -0.018307 0.00778982 1875.18
3.38813e-21 0.018307 0.00778983 1875.97
-3.38813e-21 -0.0183179 0.00780093 1891
0 0.0183179 0.00780095 1891.81
-3.38813e-21 -0.0183258 0.0077918 1889.88
0 0.0183258 0.00779181 1890.68
2.71051e-20 -0.0190082 0.00599365 63.0256
5.42101e-20 0.0190082 0.00599365 35.6725
-3.38813e-21 -0.0184198 0.00771698 1664.49
1.69407e-21 0.0184198 0.00771698 1662.13
3.38813e-21 0.019989 1.55635e-05 235.72
3.38813e-21 -0.019989 1.55422e-05 237.325
0 0.019989 -4.65978e-27 235.72
3.38813e-21 -0.0199891 -4.64763e-27 237.324
1.8823e-22 0.0193663 0.00500042 34.2409
0 -0.0193663 0.00500042 41.0604
0 -0.0200048 3.44828e-28 237.37
-3.38813e-21 0.0200048 3.45399e-28 235.75
3.38813e-21 -0.0200207 3.36065e-28 237.411
0 0.0200207 3.36623e-28 235.777
0 -0.0200208 1.54682e-05 237.411
0 0.0200208 1.54894e-05 235.776
-8.47033e-22 -0.0200101 0.0011652 152.964
0 0.0200101 0.0011652 149.164
2.71051e-20 -0.0189752 0.00665313 104.016
0 0.0189752 0.00665313 53.5808
-1.69407e-21 -0.0184855 0.00797139 2113.42
1.69407e-21 0.0184856 0.00797146 2114.27
-5.64689e-22 -0.0193439 0.00565423 49.0358
-2.82344e-22 0.0193439 0.00565423 33.9938
1.58113e-21 -0.0186909 0.00754643 1112.46
-3.83988e-21 0.0186909 0.00754644 1103.56
-2.82344e-22 -0.020018 0.00238483 53.3587
-8.47033e-22 0.020018 0.00238483 53.1917
0 -0.0186426 0.00786969 2445.51
2.71051e-20 0.0186426 0.00786969 2446.32
-1.69407e-21 -0.0193211 0.006303 69.5822
1.12938e-21 0.0193211 0.006303 39.0639
-2.71051e-20 -0.0189891 0.00726762 202.776
2.71051e-20 0.0189891 0.00726763 127.655
-1.43996e-20 0.020019 0.0036605 43.016
-9.74088e-21 -0.020019 0.00366051 37.1709
0 0.0200253 0.0036605 43.0621
1.27055e-20 -0.0200253 0.00366051 37.1591
-3.38813e-21 -0.0186571 0.00814594 2378.41
0 0.0186572 0.00814595 2379.14
0 -0.0186657 0.00813525 2381.43
0 0.0186658 0.00813526 2382.16
0 -0.0186691 0.00815819 2353.64
0 0.0186692 0.00815819 2354.37
2.71051e-20 -0.0196809 0.00530872 39.5553
2.71051e-20 0.0196809 0.00530872 34.1348
0 -0.0186807 0.00816999 2376.56
-3.38813e-21 0.0186808 0.00816998 2377.27
0 -0.0186937 0.00816275 2379.5
0 0.0186938 0.00816275 2380.22
-1.50584e-21 -0.0188968 0.00796768 1744.75
2.25875e-21 0.0188968 0.00796768 1744.06
-1.12938e-21 -0.0193082 0.00694388 118.801
2.25875e-21 0.0193082 0.00694389 66.0657
5.42101e-20 -0.0196501 0.00596319 48.3334
0 0.0196501 0.00596319 33.1266
0 -0.0200665 0.0044786 36.8591
-4.23516e-22 0.0200665 0.00447895 39.2303
-2.71051e-20 -0.0190752 0.00780495 455.181
-2.71051e-20 0.0190752 0.00780496 452.854
-5.42101e-20 0.0206063 0.000581338 236.823
0 -0.0206063 0.000581335 239.025
-2.11758e-22 -0.0200903 0.00488562 36.7083
0 0.0200903 0.00488562 37.3119
0 -0.0189864 0.00821425 2365.83
2.71051e-20 0.0189864 0.00821425 2366.45
-5.42101e-20 -0.0206227 0.00176982 70.0818
-5.42101e-20 0.0206227 0.00176982 63.9932
-2.71051e-20 -0.0196565 0.00659442 64.5332
2.71051e-20 0.0196565 0.00659442 34.6526
-8.27181e-22 0.0193221 0.00755384 196.763
0 -0.0193221 0.00755327 248.035
4.70574e-22 0.0199866 0.00562695 34.1836
0 -0.0199866 0.00562695 42.105
-1.69407e-21 -0.0189788 0.00847309 2327.05
0 0.0189788 0.00847309 2327.67
0 -0.0189845 0.00846709 2329.05
0 0.0189845 0.0084671 2329.67
1.69407e-21 0.0189847 0.00847911 2304.56