# omega  POINT_DATA 65629
# x  y  z  omega
1.48044e-06 6.57609e-23 0.049924 1929.95
-0.000623753 0 0.0499247 1930.48
0.000625861 -2.11758e-22 0.0499247 1930.46
-0.00124749 0 0.0499254 1931.94
0.00125175 0 0.0499254 1931.88
-0.0018712 4.23516e-22 0.0499261 1933.97
0.00187767 -4.23516e-22 0.0499261 1933.89
-0.00249489 0 0.0499268 1936.43
0.0025036 0 0.0499268 1936.32
-0.00311857 0 0.0499276 1939.73
0.00312954 8.47033e-22 0.0499276 1939.58
0.00374223 0 0.0499283 1944.22
-0.00374223 8.47033e-22 0.0499283 1944.41
0.00374886 8.47033e-22 0.049924 1944.77
-0.00374886 0 0.049924 1944.96
-0.00375553 8.47033e-22 0.0499283 1944.61
0.00375553 0 0.0499283 1944.42
0.00436582 0 0.0499291 1951.43
-0.00436582 0 0.0499291 1951.66
0.00437368 1.69407e-21 0.049924 1952.03
-0.00437368 0 0.049924 1952.27
-0.00438158 0 0.0499291 1952.03
0.00438158 -8.47033e-22 0.0499291 1951.79
0.000312415 -2.71051e-20 0.0501277 1929.95
-0.000312416 0 0.0501277 1929.96
0.000937254 0 0.0501276 1930.96
-0.000937254 2.71051e-20 0.0501276 1931
-0.00156209 2.71051e-20 0.0501275 1932.85
0.00156209 0 0.0501275 1932.77
0.00498933 0 0.0499299 1961.59
-0.00498933 1.69407e-21 0.0499299 1961.88
-0.00499848 0 0.049924 1962.26
0.00499848 0 0.049924 1961.98
-0.00500769 0 0.0499299 1962.44
0.00500769 0 0.0499299 1962.15
0.00218693 2.71051e-20 0.0501274 1934.95
-0.00218693 5.42101e-20 0.0501274 1935.04
-0.00281176 0 0.0501273 1937.72
0.00281176 2.71051e-20 0.0501273 1937.59
0.00561272 0 0.049924 1974.09
-0.00561272 -1.69407e-21 0.049924 1974.43
0.00562327 0 0.049924 1974.02
-0.00562327 0 0.049924 1974.36
-0.00563387 -1.69407e-21 0.049924 1975.16
0.00563387 1.69407e-21 0.049924 1974.82
-0.0034366 0 0.0501271 1941.6
0.0034366 -2.71051e-20 0.0501271 1941.43
-0.0056128 0 0.0499307 1974.42
0.0056128 0 0.0499307 1974.08
-0.00563381 0 0.0499307 1975.15
0.00563381 0 0.0499307 1974.81
-0.00406145 2.71051e-20 0.0501268 1947.35
0.00406145 -2.71051e-20 0.0501268 1947.13
0.00623615 0 0.049924 1988.22
-0.00623615 0 0.049924 1988.62
-0.00624806 1.69407e-21 0.049924 1987.97
0.00624806 1.69407e-21 0.049924 1987.57
-0.00626002 0 0.049924 1989.53
0.00626002 -1.69407e-21 0.049924 1989.12
-0.00623625 0 0.0499315 1988.61
0.00623625 0 0.0499315 1988.21
-0.00625994 -1.69407e-21 0.0499315 1989.51
0.00625994 -1.69407e-21 0.0499315 1989.11
-9.84215e-10 3.61836e-20 0.0503315 1187.27
-0.000624243 0 0.050332 1189.32
0.000625556 1.53525e-20 0.050332 1185.69
0.00468628 0 0.0501264 1955.97
-0.00468628 2.71051e-20 0.0501264 1956.22
-0.00124847 0 0.0503324 1191.89
0.00124847 -2.28699e-20 0.0503324 1184.49
-0.00187668 -4.23516e-21 0.0503327 1194.89
0.00187268 -1.2282e-20 0.0503327 1183.69
-0.00250225 4.06576e-20 0.050333 1197.99
0.00249688 3.04932e-20 0.050333 1183.07
0.00685954 0 0.049924 2004.44
-0.00685954 0 0.049924 2004.99
-0.00687284 -1.69407e-21 0.049924 2003.67
0.00687284 0 0.049924 2003.12
-0.00688622 0 0.049924 2006.19
0.00688622 1.69407e-21 0.049924 2005.63
-0.00685965 -1.69407e-21 0.0499324 2004.98
0.00685965 0 0.0499324 2004.43
-0.00688613 -1.69407e-21 0.0499324 2006.16
0.00688613 -1.69407e-21 0.0499324 2005.6
0.00531111 -5.42101e-20 0.0501258 1967.59
-0.00531111 -2.71051e-20 0.0501258 1967.9
-0.00312104 4.23516e-22 0.0503286 1209.48
0.00312104 0 0.0503286 1191.54
-0.00312783 -4.23516e-22 0.0503332 1199.17
0.00312109 2.75286e-20 0.0503332 1180.86
0.00374526 0 0.0503278 1194.33
-0.00374526 8.47033e-22 0.0503278 1215.11
0.00374533 5.0822e-21 0.0503334 1181.42
-0.00374533 0 0.0503334 1202.67
0.00593591 0 0.0501252 1981.03
-0.00593591 0 0.0501252 1981.4
0.00748281 -1.69407e-21 0.049924 2018.77
-0.00748281 0 0.049924 2019.47
-0.00749765 0 0.049924 2016.91
0.00749765 -1.69407e-21 0.049924 2016.22
-0.00751258 1.69407e-21 0.0499239 2019.91
0.00751258 0 0.0499239 2019.2
-0.00748294 0 0.0499333 2019.45
0.00748294 -1.69407e-21 0.0499333 2018.75
-0.00751247 -1.69407e-21 0.0499332 2019.88
0.00751247 0 0.0499332 2019.17
0.00436948 0 0.0503269 1198.75
-0.00436948 8.47033e-22 0.0503269 1221.83
0.00436958 2.4564e-20 0.0503334 1183.56
-0.00437905 0 0.0503334 1207.22
0.00656072 0 0.0501246 1995.91
-0.00656072 -2.71051e-20 0.0501246 1996.35
0.000312474 -2.71051e-20 0.0505592 425.515
-0.000312474 0 0.0505592 428.846
-0.000937423 2.71051e-20 0.0505591 432.835
0.000937423 5.42101e-20 0.0505591 421.357
-0.00499923 -2.82344e-22 0.0503295 1216.98
0.00499923 0 0.0503295 1191.34
0.0081058 0 0.049924 2022.58
-0.0081058 0 0.049924 2023.3
0.00812243 0 0.0499239 2018.58
-0.00812243 0 0.0499239 2019.29
-0.00813919 0 0.0499236 2022.08
0.00813919 -3.38813e-21 0.0499236 2021.37
-0.00156235 0 0.0505589 436.284
0.00156235 2.71051e-20 0.0505589 417.961
-0.00810604 0 0.0499343 2023.27
0.00810604 0 0.0499343 2022.55
-0.00813897 0 0.0499341 2022.05
0.00813897 0 0.0499341 2021.34
0.00218727 -2.71051e-20 0.0505586 413.876
-0.00218727 5.42101e-20 0.0505586 440.623
-0.00718552 -2.71051e-20 0.0501238 2014.3
0.00718552 -2.71051e-20 0.0501238 2013.64
0.0028122 0 0.0505583 410.619
-0.0028122 0 0.0505583 443.961
-0.00562411 2.82344e-22 0.0503286 1224.85
0.00562411 -2.82344e-22 0.0503286 1197.22
0.00343715 -2.71051e-20 0.0505579 407.473
-0.00343715 5.42101e-20 0.0505579 447.519
0.00872861 0 0.0499238 2017.72
-0.00872861 0 0.0499238 2018.45
0.00874717 0 0.0499235 2013.11
-0.00874717 3.38813e-21 0.0499235 2013.84
-0.00876588 0 0.0499233 2016.71
0.00876588 0 0.0499233 2015.98
-0.00872902 0 0.0499353 2018.41
0.00872902 0 0.0499353 2017.68
-0.00876549 0 0.0499349 2016.7
0.0087655 0 0.0499349 2015.97
-0.00624897 1.41172e-22 0.0503277 1233.36
0.00624897 -1.41172e-22 0.0503277 1204.01
0.00406216 -2.71051e-20 0.0505573 404.99
-0.00406216 -5.42101e-20 0.0505573 450.05
-0.00781068 0 0.050122 2024.4
0.00781068 0 0.050122 2023.66
0.00468717 -2.71051e-20 0.0505565 402.955
-0.00468717 -2.71051e-20 0.0505565 452.554
-3.78386e-10 -2.58494e-26 0.0507876 332.61
-0.00062522 2.64698e-23 0.0507877 334.743
0.00062522 2.48287e-20 0.0507877 330.44
0.00935138 0 0.0499235 2013.07
-0.00935138 0 0.0499235 2013.87
-0.00687386 -1.41172e-22 0.0503267 1242.62
0.00687386 7.05861e-22 0.0503267 1212.1
0.00937186 0 0.0499232 2008.27
-0.00937186 3.38813e-21 0.0499232 2009.08
-0.00939252 0 0.0499229 2012.25
0.00939252 0 0.0499229 2011.44
-0.0012495 0 0.0507871 336.867
0.0012495 -8.52327e-21 0.0507878 328.235
-0.009352 0 0.0499362 2013.85
0.009352 0 0.0499362 2013.05
-0.00939192 3.38813e-21 0.0499358 2012.28
0.00939192 -3.38813e-21 0.0499358 2011.47
-0.0018756 2.51992e-20 0.0507867 339.011
0.00187424 -2.4564e-20 0.0507867 326.022
0.00843564 2.71051e-20 0.0501187 2019.53
-0.00843563 0 0.0501187 2020.21
0.00531212 0 0.0505554 401.915
-0.00531212 2.71051e-20 0.0505554 455.419
-0.00250077 0 0.0507877 341.065
0.00249899 -5.39984e-21 0.0507878 323.8
-0.00749889 -5.64689e-22 0.0503253 1249.75
0.00749889 5.64689e-22 0.0503253 1219.08
-0.00312596 -2.11758e-22 0.0507859 342.841
0.00312374 -1.67289e-20 0.0507859 321.789
-0.00593703 0 0.0505542 458.273
0.00593703 -2.71051e-20 0.0505542 400.707
0.00997412 0 0.049923 2011.15
-0.00997412 0 0.049923 2012.05
-0.00999652 3.38813e-21 0.0499227 2007.06
0.00999652 3.38813e-21 0.0499227 2006.16
-0.0100191 0 0.0499224 2010.5
0.0100191 3.38813e-21 0.0499224 2009.6
-0.00997499 3.38813e-21 0.0499369 2012.08
0.00997499 0 0.0499369 2011.18
0.00374857 -1.07997e-20 0.0507854 319.949
-0.00374857 0 0.0507854 344.332
0.00906035 0 0.0501147 2013.63
-0.00906035 -2.71051e-20 0.0501147 2014.4
-0.0100183 3.38813e-21 0.0499364 2010.61
0.0100183 3.38813e-21 0.0499364 2009.7
0.0043735 2.11758e-22 0.050787 318.348
-0.00437632 0 0.0507847 345.489
-0.00812397 -2.82344e-22 0.0503229 1250.71
0.00812397 2.82344e-22 0.0503229 1220.59
-0.00656193 2.71051e-20 0.0505529 460.426
0.00656193 2.71051e-20 0.0505529 400.03
0.00499842 -1.18585e-20 0.050784 317.13
-0.00500138 2.11758e-22 0.0507863 346.679
0.0105968 -3.38813e-21 0.0499225 2013.43
-0.0105968 3.38813e-21 0.0499225 2014.41
0.00968504 5.42101e-20 0.0501107 2010.93
-0.00968503 0 0.0501107 2011.78
0.0106212 -3.38813e-21 0.0499222 2008.35
-0.0106212 0 0.0499222 2009.34
-0.0106459 0 0.0499218 2013.24
0.0106459 3.38813e-21 0.0499218 2012.25
-0.0105979 -3.38813e-21 0.0499376 2014.54
0.0105979 0 0.0499376 2013.55
0.000312515 0 0.0510505 234.488
-0.000312515 -2.71051e-20 0.0510505 234.965
0.000937516 -5.42101e-20 0.0510504 233.852
-0.000937516 -2.71051e-20 0.0510504 235.593
-0.0106448 0 0.0499371 2013.45
0.0106448 3.38813e-21 0.0499371 2012.46
-0.00718694 2.71051e-20 0.0505514 461.719
0.00718694 -2.71051e-20 0.0505514 399.653
-0.00156252 -2.71051e-20 0.0510502 235.941
0.00156252 0 0.0510502 233.343
0.00874889 -2.82344e-22 0.0503198 1217.74
-0.00874889 -8.47033e-22 0.0503198 1247.54
0.00562337 0 0.0507855 316.12
-0.00562335 -2.11758e-22 0.0507831 347.9
-0.0021875 2.71051e-20 0.05105 236.266
0.0021875 0 0.05105 232.575
-0.00281248 0 0.0510497 236.388
0.00281248 0 0.0510497 231.905
-0.00781203 2.71051e-20 0.0505494 461.098
0.00781204 2.71051e-20 0.0505494 400.322
-0.0103097 0 0.0501065 2011.74
0.0103097 0 0.0501065 2010.8
0.0034375 2.71051e-20 0.0510494 231.016
-0.0034375 -2.71051e-20 0.0510494 236.373
0.00624829 0 0.0507846 315.19
-0.00624826 -2.11758e-22 0.0507821 348.814
0.0112196 0 0.0499219 2004.91
-0.0112196 3.38813e-21 0.0499219 2005.98
0.0112461 0 0.0499215 1998.57
-0.0112461 0 0.0499215 1999.64
-0.0112729 0 0.0499208 2002.1
0.0112729 0 0.0499208 2001.02
0.00937369 5.64689e-22 0.0503164 1214.92
-0.00937369 5.64689e-22 0.0503164 1244.76
-0.011221 0 0.0499383 2006.17
0.011221 -3.38813e-21 0.0499383 2005.1
-0.0112717 0 0.0499376 2002.52
0.0112717 -3.38813e-21 0.0499376 2001.45
0.00406254 -5.42101e-20 0.051049 230.204
-0.00406254 -5.42101e-20 0.051049 236.121
0.00687321 -1.77877e-20 0.050781 314.466
-0.00687642 -2.11758e-22 0.050781 349.229
-0.0084371 2.71051e-20 0.0505468 460.039
0.0084371 -2.71051e-20 0.0505468 400.183
-0.00468758 0 0.0510484 235.925
0.00468758 2.71051e-20 0.0510484 229.207
0.0109344 -2.71051e-20 0.050102 2017.03
-0.0109344 -2.71051e-20 0.050102 2018.06
0.0118408 3.38813e-21 0.0499059 1965.39
-0.0118408 0 0.0499059 1966.53
0.00999845 -2.82344e-22 0.0503128 1213.73
-0.00999845 -2.82344e-22 0.0503128 1243.36
0.0118708 0 0.0499051 1958.12
-0.0118708 0 0.0499051 1959.27
-0.0119011 -3.38813e-21 0.0499042 1959.31
0.0119011 6.77626e-21 0.0499042 1958.15
-0.0118427 0 0.0499246 1966.8
0.0118427 -3.38813e-21 0.0499246 1965.66
-1.39477e-10 0 0.0513141 188.761
-0.000625037 3.30872e-24 0.0513141 188.836
0.000625037 3.80569e-20 0.0513141 188.634
-0.0118997 -3.38813e-21 0.0499236 1960
0.0118997 0 0.0499236 1958.84
-0.00531259 2.71051e-20 0.0510477 235.466
0.00531259 2.71051e-20 0.0510477 228.476
-0.00125006 0 0.051314 188.833
0.00125 -2.36177e-20 0.051314 188.476
0.00749826 3.13402e-20 0.0507797 314.076
-0.00750152 2.11758e-22 0.0507797 348.829
-0.00187499 -2.64499e-20 0.0513139 188.711
0.00187499 1.21165e-20 0.0513139 188.256
-0.00906201 2.71051e-20 0.0505439 459.25
0.00906201 0 0.0505439 399.756
-0.00250005 0 0.0513138 188.499
0.00249999 0 0.0513138 187.996
-0.00593757 -2.71051e-20 0.0510468 235.022
0.00593757 2.71051e-20 0.0510468 227.467
-0.00312504 0 0.0513136 188.16
0.00312504 -4.58258e-21 0.0513136 187.681
0.0115601 0 0.050095 1992.45
-0.0115601 0 0.050095 1993.55
0.0106233 0 0.050309 1215.58
-0.0106233 -5.64689e-22 0.050309 1243.73
0.0124615 0 0.0498891 1912.16
-0.0124615 0 0.0498891 1913.4
0.0081266 -1.8423e-20 0.050778 313.754
-0.00812657 0 0.0507805 347.817
0.0124952 0 0.0498882 1906.22
-0.0124952 0 0.0498882 1907.47
-0.00346964 0 0.0513135 187.899
0.00346967 0 0.0513135 187.472
-0.0125295 -3.38813e-21 0.0498873 1906.07
0.0125295 0 0.0498873 1904.83
-0.0124637 -3.38813e-21 0.0499106 1913.85
0.0124637 -3.38813e-21 0.0499106 1912.62
-0.00375005 -8.27181e-23 0.0513076 187.971
0.00375006 -1.65436e-24 0.0513134 187.543
-0.0125278 0 0.0499095 1906.98
0.0125278 -3.38813e-21 0.0499095 1905.73
-0.00968685 2.71051e-20 0.0505408 458.493
0.00968685 -2.71051e-20 0.0505408 398.629
0.00656256 -2.71051e-20 0.051046 226.729
-0.00656256 0 0.051046 234.093
-0.00437508 -3.97047e-23 0.0512871 194.934
0.00437508 0 0.0512871 193.364
0.00312502 6.61744e-24 0.0513812 178.704
-0.00312502 0 0.0513812 178.692
-0.00437516 -7.63653e-21 0.051313 187.133
0.00437516 0 0.051313 186.887
-0.0050001 0 0.0512608 202.264
0.0050001 0 0.0512608 199.328
0.00250002 6.61744e-24 0.0514534 169.223
-0.00250002 0 0.0514535 168.887
0.00874844 2.79521e-20 0.050776 313.141
-0.00874844 0 0.050776 346.758
-0.00562508 2.64698e-23 0.0512318 210.461
0.00562508 0 0.0512318 205.828
0.00187502 -3.30872e-24 0.0515104 161.796
-0.00187502 0 0.0515106 161.337
0.0121849 2.71051e-20 0.0500854 1936.72
-0.0121849 -2.71051e-20 0.0500854 1937.9
0.0112484 2.82344e-22 0.0503042 1211.59
-0.0112484 -5.64689e-22 0.0503042 1236.95
0.00718759 0 0.0510449 225.69
-0.00718759 0 0.0510449 233.212
-0.00500028 -4.39398e-21 0.0513129 186.505
0.00499996 0 0.0513129 186.472
0.0130819 0 0.0498724 1864.21
-0.0130819 0 0.0498724 1865.54
0.0131198 -6.77626e-21 0.0498714 1859.71
-0.0131198 0 0.0498714 1861.06
0.00125003 -3.30872e-24 0.0515605 154.921
-0.00125003 3.30872e-24 0.051561 154.451
-0.0131584 0 0.0498703 1857.75
0.0131584 -6.77626e-21 0.0498703 1856.4
-0.0103117 -2.71051e-20 0.0505375 456.782
0.0103117 2.71051e-20 0.0505375 398.318
-0.0130844 0 0.0498969 1866.22
0.0130844 -6.77626e-21 0.0498969 1864.89
-0.00625005 2.11758e-22 0.0512046 218.155
0.00625005 0 0.0512046 211.846
0.000625016 -1.65436e-24 0.0515958 150.255
-0.000625016 3.30872e-24 0.0515971 149.842
-0.0131564 0 0.0498957 1858.94
0.0131564 -6.77626e-21 0.0498957 1857.6
0.000312512 -2.71051e-20 0.0516082 141.46
-0.000312512 0 0.0516082 141.192
-0.000937538 2.71051e-20 0.0516081 140.631
0.000937538 0 0.0516081 141.829
-0.00562539 -2.09641e-20 0.051312 185.788
0.00562485 0 0.051312 186.025
-0.00156253 -2.71051e-20 0.0516081 140.175
0.00156253 2.71051e-20 0.0516081 142
0.00937347 0 0.0507762 312.28
-0.00937642 2.11758e-22 0.0507738 345.739
0.00781267 2.71051e-20 0.0510437 224.942
-0.00781267 0 0.0510437 231.831
-0.00687505 5.29396e-23 0.0511805 224.743
0.00687505 1.05879e-22 0.0511805 217.033
-0.00218755 0 0.051608 139.451
0.00218755 0 0.051608 142.257
0.0118736 0 0.0502978 1192.06
-0.0118736 2.82344e-22 0.0502978 1214.49
-0.00281255 -2.71051e-20 0.0516078 138.87
0.00281255 0 0.0516078 142.444
0.0128095 -2.71051e-20 0.0500754 1888.35
-0.0128095 2.71051e-20 0.0500754 1889.64
-0.0062505 2.00641e-20 0.0513114 184.926
0.00624972 0 0.0513114 185.561
0.0109367 2.71051e-20 0.0505339 400.07
-0.0109367 -2.71051e-20 0.0505339 453.813
0.0137016 -6.77626e-21 0.0498556 1819.44
-0.0137016 0 0.0498556 1820.88
-0.0075001 5.29396e-23 0.0511575 230.752
0.0075001 1.05879e-22 0.0511576 221.994
0.0137443 0 0.0498545 1816.71
-0.0137443 0 0.0498545 1818.16
0.00343756 0 0.0516077 142.591
-0.00343756 2.71051e-20 0.0516077 137.972
-0.0137879 0 0.0498533 1812.61
0.0137879 6.77626e-21 0.0498533 1811.16
-0.0137045 0 0.0498836 1821.85
0.0137045 0 0.0498836 1820.41
0.00843772 2.71051e-20 0.0510423 223.893
-0.00843772 5.42101e-20 0.0510423 230.829
0.0099984 -2.11758e-22 0.0507738 311.454
-0.0100013 -2.11758e-22 0.0507738 344.42
-0.0137855 0 0.0498824 1814.17
0.0137855 0 0.0498824 1812.72
0.0040626 -5.42101e-20 0.0516075 142.676
-0.0040626 2.71051e-20 0.0516075 137.24
-0.00687461 0 0.0513107 183.942
0.00687461 0 0.0513107 185.097
-0.00812515 0 0.0511321 237.282
0.00812515 0 0.0511321 227.497
0.00468763 0 0.0516072 142.788
-0.00468763 0 0.0516072 136.208
0.0124985 0 0.0502903 1165.56
-0.0124985 8.47033e-22 0.0502903 1186.27
-0.0115618 0 0.0505295 447.733
0.0115618 2.71051e-20 0.0505295 400.692
0.0134342 -2.71051e-20 0.0500653 1843.36
-0.0134342 2.71051e-20 0.0500653 1844.74
0.00906271 0 0.0510407 223.063
-0.00906271 5.42101e-20 0.0510407 229.392
-0.00875017 2.11758e-22 0.0511035 244.7
0.00875017 0 0.0511035 233.611
-0.00750083 -3.36696e-20 0.0513099 182.839
0.00749953 0 0.051311 184.63
0.0143207 0 0.049839 1776.13
-0.0143207 0 0.049839 1777.67
0.0143689 0 0.0498377 1775.33
-0.0143689 -6.77626e-21 0.0498377 1776.88
0.0106232 1.46113e-20 0.0507689 311.36
-0.0106263 0 0.0507689 342.45
0.00531265 0 0.0516068 142.786
-0.00531265 0 0.0516068 135.387
-0.014418 0 0.0498363 1768.95
0.014418 6.77626e-21 0.0498363 1767.4
-0.0143242 0 0.049871 1779
0.0143242 6.77626e-21 0.049871 1777.46
-4.01264e-11 0 0.0519027 107.709
0.00062499 0 0.0519027 108.446
-0.000624992 0 0.0519027 107.721
-0.0144152 -6.77626e-21 0.0498696 1770.96
0.0144152 0 0.0498696 1769.41
0.00125006 6.61744e-24 0.0519027 108.339
-0.00125006 4.15576e-21 0.0519027 106.877
-0.00937512 1.05879e-22 0.0510757 251.816
0.00937512 0 0.0510757 239.355
0.00187495 0 0.0519025 108.994
-0.00187495 -1.32349e-23 0.0519025 106.789
0.00593765 -2.71051e-20 0.0516065 142.782
-0.00593765 2.71051e-20 0.0516065 134.242
-0.00812604 -1.0482e-20 0.0513089 181.703
0.00812444 0 0.0513104 184.13
0.00968766 -2.71051e-20 0.051039 222.003
-0.00968766 5.42101e-20 0.051039 228.242
0.00250013 1.32349e-23 0.0519025 108.84
-0.00249993 -3.04402e-22 0.0519027 105.845
0.0131232 2.82344e-22 0.0502825 1141.26
-0.0131232 2.82344e-22 0.0502825 1161.4
-0.0121869 -2.71051e-20 0.0505245 440.215
0.0121869 -2.71051e-20 0.0505245 398.33
0.0140588 5.42101e-20 0.050055 1801.98
-0.0140588 -5.42101e-20 0.050055 1803.47
0.0031249 -2.64698e-23 0.0519024 109.451
-0.0031249 0 0.0519024 105.663
0.0112482 3.59989e-20 0.0507658 311.544
-0.0112516 2.11758e-22 0.0507658 339.32
0.0149395 -6.77626e-21 0.0498223 1727.63
-0.0149395 0 0.0498223 1729.25
0.00656266 2.71051e-20 0.0516061 142.723
-0.00656266 -2.71051e-20 0.0516061 133.327
-0.01 2.11758e-22 0.0510557 256.201
0.01 0 0.0510558 243.092
0.0149933 -6.77626e-21 0.0498208 1728.24
-0.0149933 0 0.0498208 1729.86
-0.00375023 1.15144e-20 0.0519026 104.617
0.00374987 -2.64698e-23 0.0519022 109.21
-0.0150481 0 0.0498193 1720.39
0.0150481 0 0.0498193 1718.76
-0.00875123 0 0.0513079 180.526
0.00875124 0 0.0513096 183.613
-0.0149436 6.77626e-21 0.0498585 1730.89
0.0149436 -6.77626e-21 0.0498585 1729.28
0.0103126 -5.42101e-20 0.0510372 221.162
-0.0103126 0 0.0510372 226.492
-0.0150448 6.77626e-21 0.0498569 1722.76
0.0150448 0 0.0498569 1721.14
-0.0043753 -3.39872e-20 0.0519021 104.348
0.00437484 -2.64698e-23 0.0519021 109.78
0.00718768 2.71051e-20 0.0516056 142.751
-0.00718768 0 0.0516056 132.134
0.0128118 5.42101e-20 0.050519 395.01
-0.0128118 -2.71051e-20 0.050519 434.983
0.013748 0 0.0502746 1118.65
-0.013748 1.12938e-21 0.0502746 1138.26
0.0118771 -1.52466e-20 0.0507621 310.707
-0.011877 0 0.0507655 335.008
-0.00500037 -4.04988e-20 0.0519024 103.24
0.00500037 0 0.0519018 109.479
-0.0106251 0 0.0510497 255.845
0.0106251 2.11758e-22 0.0510497 243.78
0.0146836 2.71051e-20 0.0500442 1760.25
-0.0146836 -2.71051e-20 0.0500442 1761.82
-0.00937413 -2.05405e-20 0.0513067 179.326
0.00937639 0 0.0513067 183.086
0.0155585 -6.77626e-21 0.0498055 1672.47
-0.0155585 0 0.0498055 1674.15
0.00781273 -5.42101e-20 0.0516051 142.688
-0.00781273 0 0.0516051 131.201
0.0109377 -2.71051e-20 0.0510351 220.146
-0.0109377 -2.71051e-20 0.0510351 224.999
0.0156176 0 0.0498039 1673.36
-0.0156176 0 0.0498039 1675.05
-0.00562545 8.99973e-22 0.0519017 102.908
0.00562473 -5.29396e-23 0.0519017 110.004
-0.0156777 -6.77626e-21 0.0498022 1665.54
0.0156777 -6.77626e-21 0.0498022 1663.85
0.000300839 5.42101e-20 0.0522172 76.4804
-0.000300839 -2.71051e-20 0.0522172 71.963
-0.0155632 -6.77626e-21 0.0498457 1675.96
0.0155632 0 0.0498457 1674.28
-0.000949183 0 0.0522172 75.6564
0.000949183 -5.42101e-20 0.0522172 72.5713
-0.00155086 2.71051e-20 0.0522172 71.3095
0.00155086 0 0.0522172 77.2196
-0.0156739 -6.77626e-21 0.0498438 1668.08
0.0156739 0 0.0498438 1666.38
-0.00219919 0 0.0522171 74.7866
0.00219919 0 0.0522171 73.0597
-0.0134366 0 0.0505133 429.595
0.0134366 2.71051e-20 0.0505133 390.062
-0.0100015 3.55754e-20 0.0513078 178.027
0.00999892 0 0.0513078 182.533
0.0124975 -9.74088e-21 0.050758 308.857
-0.0125025 7.19978e-21 0.050758 330.949
-0.00625053 -3.00167e-20 0.0519023 101.746
0.00625053 0 0.0519014 109.686
0.0143728 -5.64689e-22 0.0502664 1097.16
-0.0143728 -5.64689e-22 0.0502664 1115.87
-0.0112501 -3.17637e-22 0.0510577 250.468
0.0112501 1.05879e-22 0.0510578 241.13
-0.00843776 0 0.0516045 129.999
0.00843776 0 0.0516045 142.595
-0.00280086 -5.42101e-20 0.0522171 70.5455
0.00280086 2.71051e-20 0.0522171 77.8722
0.0153084 -2.71051e-20 0.050032 1707.44
-0.0153084 -2.71051e-20 0.050032 1709.08
0.0115627 -2.71051e-20 0.0510329 219.429
-0.0115627 2.71051e-20 0.0510329 222.981
-0.00344921 -2.71051e-20 0.052217 73.8567
0.00344921 5.42101e-20 0.052217 73.4756
0.0161781 0 0.0497885 1618.51
-0.0161781 6.77626e-21 0.0497885 1620.28
-0.00687562 1.2282e-20 0.0519011 101.366
0.00687458 0 0.0519011 110.165
0.016242 0 0.0497868 1619.06
-0.016242 0 0.0497868 1620.84
0.00405089 0 0.0522169 78.3766
-0.00405089 2.71051e-20 0.0522169 69.6765
-0.0163071 6.77626e-21 0.049785 1611.81
0.0163071 6.77626e-21 0.049785 1610.02
-0.0106267 2.4564e-20 0.0513042 176.606
0.0106239 0 0.0513067 181.969
-0.00906278 -2.71051e-20 0.0516039 128.957
0.00906278 2.71051e-20 0.0516039 142.548
-0.0161834 0 0.0498326 1622.13
0.0161834 0 0.0498326 1620.37
0.0131279 3.81165e-21 0.0507535 306.317
-0.0131219 -2.11758e-20 0.0507536 327.407
0.00469923 0 0.0522168 73.879
-0.00469923 0 0.0522168 72.8916
-0.0140614 -2.71051e-20 0.0505075 423.808
0.0140614 -2.71051e-20 0.0505075 386.141
-0.0163029 0 0.0498305 1614.38
0.0163029 0 0.0498305 1612.6
-0.0118752 0 0.0510752 241.691
0.0118752 -1.05879e-22 0.0510752 235.675
-0.00750074 1.14349e-20 0.0519008 100.191
0.00749952 -1.05879e-22 0.051902 109.85
0.0149977 -5.64689e-22 0.0502574 1072.38
-0.0149977 0 0.0502574 1090
0.0121878 2.71051e-20 0.0510304 218.443
-0.0121878 -2.71051e-20 0.0510304 221.304
0.00530091 2.71051e-20 0.0522167 78.7526
-0.00530091 -2.71051e-20 0.0522167 68.7612
0.015933 2.71051e-20 0.0500187 1650.19
-0.015933 0 0.0500187 1651.9
0.00968776 2.71051e-20 0.0516031 142.427
-0.00968776 -2.71051e-20 0.0516031 127.817
-0.0112517 -3.62107e-20 0.0513029 175.097
0.0112488 0 0.0513029 181.427
0.000625005 1.65436e-24 0.0525189 66.2721
-0.000625019 1.80921e-20 0.0525189 65.6445
0.0167977 6.77626e-21 0.0497716 1568.92
-0.0167977 0 0.0497716 1570.79
-0.00812585 -1.33408e-20 0.0519004 99.7997
0.0081244 0 0.0519018 110.283
0.0168666 6.77626e-21 0.0497698 1568.99
-0.0168666 0 0.0497698 1570.87
0.00187506 0 0.0525189 66.8191
-0.00187496 -2.74955e-20 0.0525189 64.9747
0.00594925 2.71051e-20 0.0522166 74.3251
-0.00594925 2.71051e-20 0.0522166 71.9083
-0.0169369 0 0.0497678 1562.01
0.0169369 -6.77626e-21 0.0497678 1560.12
-0.0168036 0 0.0498196 1572.66
0.0168036 0 0.0498196 1570.79
0.013746 5.50571e-21 0.0507488 304.58
-0.013746 -4.23516e-22 0.0507488 324.829
0.0137536 4.23516e-21 0.0507487 303.293
-0.0137536 1.69407e-20 0.0507487 323.345
0.0146864 0 0.0505014 382.464
-0.0146864 0 0.0505014 418.026
-0.0125003 -1.05879e-22 0.0510981 231.564
0.0125003 -1.05879e-22 0.0510981 228.497
0.00312494 0 0.0525187 67.2962
-0.0031251 -2.1017e-20 0.0525187 64.2342
-0.0128128 -2.71051e-20 0.0510276 219.412
0.0128128 0 0.0510276 217.621
-0.0169322 0 0.0498174 1564.66
0.0169322 -1.35525e-20 0.0498174 1562.77
0.0156226 0 0.0502476 1042.63
-0.0156226 1.69407e-21 0.0502476 1059.65
0.0103128 -2.71051e-20 0.0516024 142.279
-0.0103128 2.71051e-20 0.0516024 126.691
0.00655093 2.71051e-20 0.0522165 79.2285
-0.00655093 0 0.0522165 67.8127
-0.00875097 -2.5411e-20 0.0519016 98.5964
0.00875097 0 0.0519016 109.908
-0.0118739 2.11758e-22 0.0513014 173.498
0.0118769 0 0.0513014 180.872
-7.51048e-12 0 0.0526734 60.6566
0.0165576 0 0.0500052 1598.5
-0.0165576 0 0.0500052 1600.31
0.00125004 3.30872e-24 0.0526734 61.1986
-0.00125004 2.71481e-20 0.0526734 60.0667
-0.00437516 3.74547e-21 0.0525187 63.4306
0.0043749 6.2204e-21 0.0525187 67.7055
0.00719927 0 0.0522163 74.618
-0.00719927 -2.71051e-20 0.0522163 70.9002
0.0174165 0 0.0497547 1521.91
-0.0174165 0 0.0497547 1523.9
0.00249996 -6.61744e-24 0.0526733 61.6673
-0.00249996 -1.28842e-20 0.0526733 59.4175
0.0174914 0 0.0497527 1521.28
-0.0174914 1.35525e-20 0.0497527 1523.29
-0.00937607 1.00585e-20 0.0518997 98.1738
0.00937427 0 0.0518997 110.349
0.0143747 2.82344e-22 0.0507475 301.193
-0.0143747 7.05861e-22 0.0507475 319.828
0.0109378 -5.42101e-20 0.0516015 142.069
-0.0109378 0 0.0516015 125.403
-0.0175681 0 0.0497506 1514.37
0.0175681 6.77626e-21 0.0497506 1512.34
0.0134377 2.71051e-20 0.0510248 216.491
-0.0134377 0 0.0510248 217.632
0.0153114 0 0.0504947 378.788
-0.0153114 0 0.0504947 411.628
-0.017423 -6.77626e-21 0.0498073 1525.81
0.017423 0 0.0498073 1523.82
-0.0131252 0 0.0511274 219.964
0.0131252 1.05879e-22 0.0511274 219.703
0.00780098 2.71051e-20 0.0522162 79.6819
-0.00780098 -2.71051e-20 0.0522162 66.8576
0.0162473 5.64689e-22 0.0502372 1012.25
-0.0162473 5.64689e-22 0.0502372 1029.74
-0.0125018 -9.52912e-21 0.0512997 171.906
0.012499 -2.11758e-22 0.0513023 180.286
0.00374994 2.64168e-20 0.0526733 62.0558
-0.0037501 -4.71162e-21 0.0526733 58.7058
-0.0175627 -6.77626e-21 0.0498053 1517.19
0.0175627 -6.77626e-21 0.0498053 1515.16
-0.00562523 -3.22402e-20 0.0525185 62.5817
0.00562485 3.18961e-20 0.0525185 68.0729
-0.0100012 -1.03762e-20 0.0519011 96.9702
0.0100012 0 0.0518992 109.917
0.0171823 0 0.0499917 1549.69
-0.0171823 -2.71051e-20 0.0499917 1551.61
0.0115628 0 0.0516006 141.878
-0.0115628 2.71051e-20 0.0516006 124.198
0.00844931 0 0.052216 74.8657
-0.00844931 0 0.052216 69.9012
0.0180337 -1.35525e-20 0.0497379 1477
-0.0180337 -1.35525e-20 0.0497379 1479.12
-0.00500016 -3.60254e-20 0.0526731 57.9456
0.00500016 3.77988e-20 0.0526731 62.3896
0.0149997 -1.41172e-22 0.0507428 298.89
-0.0149997 1.41172e-22 0.0507428 315.762
0.0140626 2.71051e-20 0.0510219 215.444
-0.0140626 2.71051e-20 0.0510219 215.581
0.018116 -1.35525e-20 0.0497357 1475.5
-0.018116 1.35525e-20 0.0497357 1477.65
0.0159363 0 0.0504875 373.395
-0.0159363 -2.71051e-20 0.0504875 406.148
-0.0131268 -3.36696e-20 0.051298 170.221
0.0131268 0 0.051298 179.627
-0.0182007 0 0.0497334 1468.63
0.0182007 0 0.0497334 1466.48
-0.0180411 6.77626e-21 0.0497963 1481.14
0.0180411 -6.77626e-21 0.0497963 1479.02
-0.00687533 8.94679e-21 0.0525183 61.7254
0.00687533 0 0.0525183 68.4158
-0.0106263 6.77626e-21 0.0518987 96.4756
0.0106263 -2.11758e-22 0.0518987 110.282
-0.0137502 -2.11758e-22 0.0511647 206.234
0.0137502 1.05879e-22 0.0511647 209.237
0.016872 5.64689e-22 0.0502266 983.599
-0.016872 5.64689e-22 0.0502266 1002.31
0.00905101 0 0.0522158 79.9819
-0.00905101 0 0.0522158 65.8706
-0.0181943 0 0.0497943 1471.73
0.0181943 -6.77626e-21 0.0497943 1469.58
0.0121879 2.71051e-20 0.0515996 141.582
-0.0121879 2.71051e-20 0.0515996 122.723
-0.00625024 1.82112e-20 0.0526729 57.1641
0.00625024 -1.12232e-20 0.0526729 62.7559
0.0178069 2.71051e-20 0.0499782 1503.1
-0.0178069 0 0.0499782 1505.16
0.0156247 -1.41172e-22 0.0507378 296.137
-0.0156247 1.41172e-22 0.0507378 311.739
-0.0146876 5.42101e-20 0.0510189 213.724
0.0146876 0 0.0510189 214.261
-0.0112513 -4.23516e-21 0.0518982 95.1953
0.0112513 0 0.0518982 109.794
0.0186495 0 0.0497211 1434.52
-0.0186495 -6.77626e-21 0.0497211 1436.74
-0.0137515 2.26581e-20 0.0512985 168.449
0.0137515 0 0.0512964 178.901
0.00969931 -2.71051e-20 0.0522156 75.1788
-0.00969931 -2.71051e-20 0.0522156 68.864
0.0165611 2.71051e-20 0.0504799 367.592
-0.0165611 2.71051e-20 0.0504799 401.96
0.0187402 0 0.0497187 1432.35
-0.0187402 0 0.0497187 1434.61
-0.00812546 2.08582e-20 0.0525181 60.8383
0.00812509 -5.29396e-23 0.0525187 68.7328
0.000625008 0 0.0531412 39.077
-0.000625008 1.0842e-19 0.0531412 38.7417
-0.0188333 6.77626e-21 0.0497161 1425.75
0.0188333 -6.77626e-21 0.0497161 1423.49
0.0128129 2.71051e-20 0.0515986 141.358
-0.0128129 -2.71051e-20 0.0515986 121.398
-0.0186582 0 0.0497859 1438.96
0.0186582 1.35525e-20 0.0497859 1436.74
0.00187502 -5.42101e-20 0.0531412 39.4042
-0.00187502 5.42101e-20 0.0531412 38.3755
0.0174969 -3.95282e-21 0.050216 956.207
-0.0174969 1.69407e-21 0.050216 976.299
-0.0143752 2.11758e-22 0.0512069 191.408
0.0143752 -1.05879e-22 0.0512069 198.06
-0.00749981 3.25578e-20 0.0526727 56.3581
0.00750035 -5.29396e-23 0.0526727 63.0637
0.010301 2.71051e-20 0.0522153 80.1667
-0.010301 2.71051e-20 0.0522153 64.8692
-0.0188259 0 0.0497837 1429.14
0.0188259 0 0.0497837 1426.89
0.00312502 0 0.0531411 39.6912
-0.00312502 5.42101e-20 0.0531411 37.9852
-0.0118764 -1.50348e-20 0.0518977 94.5905
0.011874 0 0.0518977 110.072
0.0184314 -2.71051e-20 0.0499647 1458.75
-0.0184314 0 0.0499647 1460.92
0.0153127 5.42101e-20 0.0510156 213.319
-0.0153127 2.71051e-20 0.0510156 211.549
-0.0143762 1.11173e-20 0.0512965 166.597
0.0143744 0 0.0512948 178.141
0.0162497 2.82344e-22 0.0507325 292.732
-0.0162497 0 0.0507325 308.151
0.0192655 1.35525e-20 0.0497043 1395.51
-0.0192655 1.35525e-20 0.0497043 1397.83
0.0171859 0 0.0504722 360.603
-0.0171859 0 0.0504722 397.916
-0.0134379 -2.71051e-20 0.0515975 119.672
0.0134379 -5.42101e-20 0.0515975 140.923
0.00437504 5.42101e-20 0.0531411 39.9576
-0.00437504 0 0.0531411 37.5603
0.0193639 -1.35525e-20 0.0497016 1393.2
-0.0193639 0 0.0497016 1395.55
-0.00937558 1.12232e-20 0.0525179 59.9538
0.00937558 5.29396e-23 0.0525179 69.0097
0.0109493 0 0.0522151 75.3874
-0.0109493 5.42101e-20 0.0522151 67.8008
-0.0194646 0 0.0496989 1387.24
0.0194646 -1.35525e-20 0.0496989 1384.9
0.0181216 1.12938e-21 0.0502053 930.228
-0.0181216 -2.25875e-21 0.0502053 951.682
-0.0192754 0 0.0497752 1400.26
0.0192754 -1.35525e-20 0.0497752 1397.95
-0.0125014 2.11758e-21 0.0518971 93.2195
0.012499 3.1552e-20 0.0518971 109.532
-0.00875046 -7.30566e-21 0.0526724 55.5432
0.00875046 0 0.0526733 63.3052
-0.0150003 -3.17637e-22 0.0512467 177.558
0.0150003 0 0.0512467 187.758
0.00562506 0 0.053141 40.1822
-0.00562506 0 0.053141 37.0449
-0.0194562 0 0.0497724 1390.82
0.0194562 0 0.0497724 1388.49
-0.0150009 3.45166e-20 0.0512931 164.685
0.0149999 0 0.0512941 177.408
0.0159377 0 0.051012 212.155
-0.0159377 2.71051e-20 0.051012 209.651
0.0168745 5.64689e-22 0.050727 288.91
-0.0168745 0 0.050727 304.941
0.0190555 0 0.0499511 1417.68
-0.0190555 2.71051e-20 0.0499511 1419.95
0.011551 0 0.0522148 80.2531