# p  POINT_DATA 65629
# x  y  z  p
1.48044e-06 6.57609e-23 0.049924 0.00117989
-0.000623753 0 0.0499247 0.00117276
0.000625861 -2.11758e-22 0.0499247 0.00118713
-0.00124749 0 0.0499254 0.00116566
0.00125175 0 0.0499254 0.00119443
-0.0018712 4.23516e-22 0.0499261 0.00115838
0.00187767 -4.23516e-22 0.0499261 0.00120178
-0.00249489 0 0.0499268 0.00115093
0.0025036 0 0.0499268 0.00120908
-0.00311857 0 0.0499276 0.00114327
0.00312954 8.47033e-22 0.0499276 0.00121615
0.00374223 0 0.0499283 0.00122298
-0.00374223 8.47033e-22 0.0499283 0.00113555
0.00374886 8.47033e-22 0.049924 0.00122303
-0.00374886 0 0.049924 0.00113545
-0.00375553 8.47033e-22 0.0499283 0.00113537
0.00375553 0 0.0499283 0.00122312
0.00436582 0 0.0499291 0.00122983
-0.00436582 0 0.0499291 0.00112803
0.00437368 1.69407e-21 0.049924 0.00122987
-0.00437368 0 0.049924 0.00112796
-0.00438158 0 0.0499291 0.00112783
0.00438158 -8.47033e-22 0.0499291 0.00122999
0.000312415 -2.71051e-20 0.0501277 0.0011834
-0.000312416 0 0.0501277 0.00117637
0.000937254 0 0.0501276 0.00119084
-0.000937254 2.71051e-20 0.0501276 0.00116917
-0.00156209 2.71051e-20 0.0501275 0.00116217
0.00156209 0 0.0501275 0.001198
0.00498933 0 0.0499299 0.001237
-0.00498933 1.69407e-21 0.0499299 0.00112077
-0.00499848 0 0.049924 0.00112075
0.00499848 0 0.049924 0.00123705
-0.00500769 0 0.0499299 0.00112055
0.00500769 0 0.0499299 0.00123721
0.00218693 2.71051e-20 0.0501274 0.00120554
-0.00218693 5.42101e-20 0.0501274 0.00115461
-0.00281176 0 0.0501273 0.00114729
0.00281176 2.71051e-20 0.0501273 0.00121258
0.00561272 0 0.049924 0.00124457
-0.00561272 -1.69407e-21 0.049924 0.00111341
0.00562327 0 0.049924 0.00124463
-0.00562327 0 0.049924 0.00111346
-0.00563387 -1.69407e-21 0.049924 0.00111314
0.00563387 1.69407e-21 0.049924 0.00124483
-0.0034366 0 0.0501271 0.00113931
0.0034366 -2.71051e-20 0.0501271 0.00121967
-0.0056128 0 0.0499307 0.00111341
0.0056128 0 0.0499307 0.00124457
-0.00563381 0 0.0499307 0.00111315
0.00563381 0 0.0499307 0.00124483
-0.00406145 2.71051e-20 0.0501268 0.00113166
0.00406145 -2.71051e-20 0.0501268 0.00122639
0.00623615 0 0.049924 0.00125204
-0.00623615 0 0.049924 0.00110559
-0.00624806 1.69407e-21 0.049924 0.00110572
0.00624806 1.69407e-21 0.049924 0.00125209
-0.00626002 0 0.049924 0.00110526
0.00626002 -1.69407e-21 0.049924 0.0012523
-0.00623625 0 0.0499315 0.00110559
0.00623625 0 0.0499315 0.00125204
-0.00625994 -1.69407e-21 0.0499315 0.00110527
0.00625994 -1.69407e-21 0.0499315 0.0012523
-9.84215e-10 3.61836e-20 0.0503315 0.00118278
-0.000624243 0 0.050332 0.00117576
0.000625556 1.53525e-20 0.050332 0.00118992
0.00468628 0 0.0501264 0.00123339
-0.00468628 2.71051e-20 0.0501264 0.00112427
-0.00124847 0 0.0503324 0.00116875
0.00124847 -2.28699e-20 0.0503324 0.00119712
-0.00187668 -4.23516e-21 0.0503327 0.00116156
0.00187268 -1.2282e-20 0.0503327 0.00120434
-0.00250225 4.06576e-20 0.050333 0.00115419
0.00249688 3.04932e-20 0.050333 0.00121149
0.00685954 0 0.049924 0.00125899
-0.00685954 0 0.049924 0.00109702
-0.00687284 -1.69407e-21 0.049924 0.00109727
0.00687284 0 0.049924 0.00125903
-0.00688622 0 0.049924 0.00109661
0.00688622 1.69407e-21 0.049924 0.00125926
-0.00685965 -1.69407e-21 0.0499324 0.00109703
0.00685965 0 0.0499324 0.00125898
-0.00688613 -1.69407e-21 0.0499324 0.00109662
0.00688613 -1.69407e-21 0.0499324 0.00125925
0.00531111 -5.42101e-20 0.0501258 0.00124078
-0.00531111 -2.71051e-20 0.0501258 0.00111713
-0.00312104 4.23516e-22 0.0503286 0.00114662
0.00312104 0 0.0503286 0.00121835
-0.00312783 -4.23516e-22 0.0503332 0.00114661
0.00312109 2.75286e-20 0.0503332 0.00121842
0.00374526 0 0.0503278 0.00122511
-0.00374526 8.47033e-22 0.0503278 0.00113893
0.00374533 5.0822e-21 0.0503334 0.00122519
-0.00374533 0 0.0503334 0.00113892
0.00593591 0 0.0501252 0.00124857
-0.00593591 0 0.0501252 0.00110952
0.00748281 -1.69407e-21 0.049924 0.00126485
-0.00748281 0 0.049924 0.00108958
-0.00749765 0 0.049924 0.0010901
0.00749765 -1.69407e-21 0.049924 0.00126487
-0.00751258 1.69407e-21 0.0499239 0.00108942
0.00751258 0 0.0499239 0.00126501
-0.00748294 0 0.0499333 0.00108959
0.00748294 -1.69407e-21 0.0499333 0.00126485
-0.00751247 -1.69407e-21 0.0499332 0.00108943
0.00751247 0 0.0499332 0.00126501
0.00436948 0 0.0503269 0.00123181
-0.00436948 8.47033e-22 0.0503269 0.00113162
0.00436958 2.4564e-20 0.0503334 0.00123191
-0.00437905 0 0.0503334 0.00113163
0.00656072 0 0.0501246 0.00125571
-0.00656072 -2.71051e-20 0.0501246 0.00110143
0.000312474 -2.71051e-20 0.0505592 0.001189
-0.000312474 0 0.0505592 0.00118248
-0.000937423 2.71051e-20 0.0505591 0.00117515
0.000937423 5.42101e-20 0.0505591 0.00119655
-0.00499923 -2.82344e-22 0.0503295 0.00112468
0.00499923 0 0.0503295 0.00123891
0.0081058 0 0.049924 0.00127044
-0.0081058 0 0.049924 0.00108514
0.00812243 0 0.0499239 0.0012706
-0.00812243 0 0.0499239 0.00108583
-0.00813919 0 0.0499236 0.00108518
0.00813919 -3.38813e-21 0.0499236 0.00127075
-0.00156235 0 0.0505589 0.00116865
0.00156235 2.71051e-20 0.0505589 0.0012032
-0.00810604 0 0.0499343 0.00108515
0.00810604 0 0.0499343 0.00127044
-0.00813897 0 0.0499341 0.00108519
0.00813897 0 0.0499341 0.00127074
0.00218727 -2.71051e-20 0.0505586 0.00121075
-0.00218727 5.42101e-20 0.0505586 0.00116096
-0.00718552 -2.71051e-20 0.0501238 0.00109232
0.00718552 -2.71051e-20 0.0501238 0.00126247
0.0028122 0 0.0505583 0.0012172
-0.0028122 0 0.0505583 0.00115406
-0.00562411 2.82344e-22 0.0503286 0.00111765
0.00562411 -2.82344e-22 0.0503286 0.00124633
0.00343715 -2.71051e-20 0.0505579 0.00122429
-0.00343715 5.42101e-20 0.0505579 0.00114596
0.00872861 0 0.0499238 0.00127734
-0.00872861 0 0.0499238 0.00108229
0.00874717 0 0.0499235 0.00127764
-0.00874717 3.38813e-21 0.0499235 0.00108299
-0.00876588 0 0.0499233 0.0010824
0.00876588 0 0.0499233 0.00127778
-0.00872902 0 0.0499353 0.0010823
0.00872902 0 0.0499353 0.00127735
-0.00876549 0 0.0499349 0.0010824
0.0087655 0 0.0499349 0.00127777
-0.00624897 1.41172e-22 0.0503277 0.00111012
0.00624897 -1.41172e-22 0.0503277 0.00125363
0.00406216 -2.71051e-20 0.0505573 0.00123046
-0.00406216 -5.42101e-20 0.0505573 0.0011389
-0.00781068 0 0.050122 0.00108681
0.00781068 0 0.050122 0.00126733
0.00468717 -2.71051e-20 0.0505565 0.00123742
-0.00468717 -2.71051e-20 0.0505565 0.00113183
-3.78386e-10 -2.58494e-26 0.0507876 0.00119956
-0.00062522 2.64698e-23 0.0507877 0.00119314
0.00062522 2.48287e-20 0.0507877 0.00120611
0.00935138 0 0.0499235 0.00128482
-0.00935138 0 0.0499235 0.00107978
-0.00687386 -1.41172e-22 0.0503267 0.00110198
0.00687386 7.05861e-22 0.0503267 0.00126041
0.00937186 0 0.0499232 0.00128521
-0.00937186 3.38813e-21 0.0499232 0.00108037
-0.00939252 0 0.0499229 0.0010799
0.00939252 0 0.0499229 0.00128529
-0.0012495 0 0.0507871 0.00118672
0.0012495 -8.52327e-21 0.0507878 0.00121277
-0.009352 0 0.0499362 0.00107978
0.009352 0 0.0499362 0.00128482
-0.00939192 3.38813e-21 0.0499358 0.00107989
0.00939192 -3.38813e-21 0.0499358 0.00128528
-0.0018756 2.51992e-20 0.0507867 0.00118017
0.00187424 -2.4564e-20 0.0507867 0.00121947
0.00843564 2.71051e-20 0.0501187 0.00127379
-0.00843563 0 0.0501187 0.00108363
0.00531212 0 0.0505554 0.00124417
-0.00531212 2.71051e-20 0.0505554 0.00112566
-0.00250077 0 0.0507877 0.00117347
0.00249899 -5.39984e-21 0.0507878 0.00122608
-0.00749889 -5.64689e-22 0.0503253 0.00109514
0.00749889 5.64689e-22 0.0503253 0.0012662
-0.00312596 -2.11758e-22 0.0507859 0.00116665
0.00312374 -1.67289e-20 0.0507859 0.00123252
-0.00593703 0 0.0505542 0.00111843
0.00593703 -2.71051e-20 0.0505542 0.0012519
0.00997412 0 0.049923 0.00129202
-0.00997412 0 0.049923 0.00107685
-0.00999652 3.38813e-21 0.0499227 0.00107726
0.00999652 3.38813e-21 0.0499227 0.00129249
-0.0100191 0 0.0499224 0.00107694
0.0100191 3.38813e-21 0.0499224 0.0012925
-0.00997499 3.38813e-21 0.0499369 0.00107684
0.00997499 0 0.0499369 0.00129202
0.00374857 -1.07997e-20 0.0507854 0.00123885
-0.00374857 0 0.0507854 0.00115983
0.00906035 0 0.0501147 0.00128125
-0.00906035 -2.71051e-20 0.0501147 0.00108112
-0.0100183 3.38813e-21 0.0499364 0.00107692
0.0100183 3.38813e-21 0.0499364 0.00129248
0.0043735 2.11758e-22 0.050787 0.00124517
-0.00437632 0 0.0507847 0.00115357
-0.00812397 -2.82344e-22 0.0503229 0.00109093
0.00812397 2.82344e-22 0.0503229 0.00127195
-0.00656193 2.71051e-20 0.0505529 0.00111121
0.00656193 2.71051e-20 0.0505529 0.00125844
0.00499842 -1.18585e-20 0.050784 0.0012518
-0.00500138 2.11758e-22 0.0507863 0.00114775
0.0105968 -3.38813e-21 0.0499225 0.00129866
-0.0105968 3.38813e-21 0.0499225 0.00107348
0.00968504 5.42101e-20 0.0501107 0.00128877
-0.00968503 0 0.0501107 0.00107848
0.0106212 -3.38813e-21 0.0499222 0.00129923
-0.0106212 0 0.0499222 0.00107369
-0.0106459 0 0.0499218 0.00107365
0.0106459 3.38813e-21 0.0499218 0.00129917
-0.0105979 -3.38813e-21 0.0499376 0.00107344
0.0105979 0 0.0499376 0.00129866
0.000312515 0 0.0510505 0.00121573
-0.000312515 -2.71051e-20 0.0510505 0.00121201
0.000937516 -5.42101e-20 0.0510504 0.00122409
-0.000937516 -2.71051e-20 0.0510504 0.00120393
-0.0106448 0 0.0499371 0.00107359
0.0106448 3.38813e-21 0.0499371 0.00129915
-0.00718694 2.71051e-20 0.0505514 0.00110306
0.00718694 -2.71051e-20 0.0505514 0.00126513
-0.00156252 -2.71051e-20 0.0510502 0.00120018
0.00156252 0 0.0510502 0.00122814
0.00874889 -2.82344e-22 0.0503198 0.00127892
-0.00874889 -8.47033e-22 0.0503198 0.00108797
0.00562337 0 0.0507855 0.00125882
-0.00562335 -2.11758e-22 0.0507831 0.00114186
-0.0021875 2.71051e-20 0.05105 0.00119193
0.0021875 0 0.05105 0.00123665
-0.00281248 0 0.0510497 0.00118803
0.00281248 0 0.0510497 0.00124057
-0.00781203 2.71051e-20 0.0505494 0.00109842
0.00781204 2.71051e-20 0.0505494 0.00126998
-0.0103097 0 0.0501065 0.00107503
0.0103097 0 0.0501065 0.00129565
0.0034375 2.71051e-20 0.0510494 0.00124885
-0.0034375 -2.71051e-20 0.0510494 0.00117967
0.00624829 0 0.0507846 0.00126578
-0.00624826 -2.11758e-22 0.0507821 0.00113551
0.0112196 0 0.0499219 0.0013042
-0.0112196 3.38813e-21 0.0499219 0.0010739
0.0112461 0 0.0499215 0.00130483
-0.0112461 0 0.0499215 0.00107408
-0.0112729 0 0.0499208 0.00107464
0.0112729 0 0.0499208 0.00130472
0.00937369 5.64689e-22 0.0503164 0.00128641
-0.00937369 5.64689e-22 0.0503164 0.00108515
-0.011221 0 0.0499383 0.00107384
0.011221 -3.38813e-21 0.0499383 0.0013042
-0.0112717 0 0.0499376 0.00107453
0.0112717 -3.38813e-21 0.0499376 0.00130469
0.00406254 -5.42101e-20 0.051049 0.00125264
-0.00406254 -5.42101e-20 0.051049 0.00117598
0.00687321 -1.77877e-20 0.050781 0.00127232
-0.00687642 -2.11758e-22 0.050781 0.00112895
-0.0084371 2.71051e-20 0.0505468 0.0010949
0.0084371 -2.71051e-20 0.0505468 0.00127678
-0.00468758 0 0.0510484 0.0011688
0.00468758 2.71051e-20 0.0510484 0.00126099
0.0109344 -2.71051e-20 0.050102 0.00130207
-0.0109344 -2.71051e-20 0.050102 0.00107152
0.0118408 3.38813e-21 0.0499059 0.00131109
-0.0118408 0 0.0499059 0.00107762
0.00999845 -2.82344e-22 0.0503128 0.0012936
-0.00999845 -2.82344e-22 0.0503128 0.00108181
0.0118708 0 0.0499051 0.001312
-0.0118708 0 0.0499051 0.00107734
-0.0119011 -3.38813e-21 0.0499042 0.00107788
0.0119011 6.77626e-21 0.0499042 0.00131219
-0.0118427 0 0.0499246 0.00107753
0.0118427 -3.38813e-21 0.0499246 0.00131109
-1.39477e-10 0 0.0513141 0.00124431
-0.000625037 3.30872e-24 0.0513141 0.00123894
0.000625037 3.80569e-20 0.0513141 0.00124987
-0.0118997 -3.38813e-21 0.0499236 0.00107777
0.0118997 0 0.0499236 0.00131214
-0.00531259 2.71051e-20 0.0510477 0.00116596
0.00531259 2.71051e-20 0.0510477 0.00126543
-0.00125006 0 0.051314 0.0012336
0.00125 -2.36177e-20 0.051314 0.00125558
0.00749826 3.13402e-20 0.0507797 0.00127822
-0.00750152 2.11758e-22 0.0507797 0.00112365
-0.00187499 -2.64499e-20 0.0513139 0.00122825
0.00187499 1.21165e-20 0.0513139 0.00126144
-0.00906201 2.71051e-20 0.0505439 0.00109232
0.00906201 0 0.0505439 0.00128392
-0.00250005 0 0.0513138 0.00122283
0.00249999 0 0.0513138 0.00126718
-0.00593757 -2.71051e-20 0.0510468 0.00115867
0.00593757 2.71051e-20 0.0510468 0.00127456
-0.00312504 0 0.0513136 0.00121742
0.00312504 -4.58258e-21 0.0513136 0.00127288
0.0115601 0 0.050095 0.00130668
-0.0115601 0 0.050095 0.0010761
0.0106233 0 0.050309 0.00130018
-0.0106233 -5.64689e-22 0.050309 0.00107823
0.0124615 0 0.0498891 0.00132056
-0.0124615 0 0.0498891 0.00107931
0.0081266 -1.8423e-20 0.050778 0.00128422
-0.00812657 0 0.0507805 0.00112024
0.0124952 0 0.0498882 0.00132144
-0.0124952 0 0.0498882 0.00107883
-0.00346964 0 0.0513135 0.00121451
0.00346967 0 0.0513135 0.00127601
-0.0125295 -3.38813e-21 0.0498873 0.00107932
0.0125295 0 0.0498873 0.00132174
-0.0124637 -3.38813e-21 0.0499106 0.0010792
0.0124637 -3.38813e-21 0.0499106 0.00132055
-0.00375005 -8.27181e-23 0.0513076 0.00121204
0.00375006 -1.65436e-24 0.0513134 0.00127848
-0.0125278 0 0.0499095 0.0010792
0.0125278 -3.38813e-21 0.0499095 0.00132166
-0.00968685 2.71051e-20 0.0505408 0.00108885
0.00968685 -2.71051e-20 0.0505408 0.00129173
0.00656256 -2.71051e-20 0.051046 0.00127899
-0.00656256 0 0.051046 0.00115506
-0.00437508 -3.97047e-23 0.0512871 0.00120482
0.00437508 0 0.0512871 0.00128237
0.00312502 6.61744e-24 0.0513812 0.00128107
-0.00312502 0 0.0513812 0.00122683
-0.00437516 -7.63653e-21 0.051313 0.00120748
0.00437516 0 0.051313 0.0012843
-0.0050001 0 0.0512608 0.00119767
0.0050001 0 0.0512608 0.00128656
0.00250002 6.61744e-24 0.0514534 0.00128442
-0.00250002 0 0.0514535 0.00124206
0.00874844 2.79521e-20 0.050776 0.00129118
-0.00874844 0 0.050776 0.00111755
-0.00562508 2.64698e-23 0.0512318 0.0011901
0.00562508 0 0.0512318 0.00129102
0.00187502 -3.30872e-24 0.0515104 0.00128587
-0.00187502 0 0.0515106 0.0012548
0.0121849 2.71051e-20 0.0500854 0.00131628
-0.0121849 -2.71051e-20 0.0500854 0.00107816
0.0112484 2.82344e-22 0.0503042 0.00130588
-0.0112484 -5.64689e-22 0.0503042 0.00107816
0.00718759 0 0.0510449 0.00128746
-0.00718759 0 0.0510449 0.00114781
-0.00500028 -4.39398e-21 0.0513129 0.00120312
0.00499996 0 0.0513129 0.00129035
0.0130819 0 0.0498724 0.00132962
-0.0130819 0 0.0498724 0.00107971
0.0131198 -6.77626e-21 0.0498714 0.00133045
-0.0131198 0 0.0498714 0.00107909
0.00125003 -3.30872e-24 0.0515605 0.00128677
-0.00125003 3.30872e-24 0.051561 0.00126661
-0.0131584 0 0.0498703 0.00107949
0.0131584 -6.77626e-21 0.0498703 0.00133084
-0.0103117 -2.71051e-20 0.0505375 0.00108516
0.0103117 2.71051e-20 0.0505375 0.00129826
-0.0130844 0 0.0498969 0.00107958
0.0130844 -6.77626e-21 0.0498969 0.00132959
-0.00625005 2.11758e-22 0.0512046 0.00118224
0.00625005 0 0.0512046 0.0012957
0.000625016 -1.65436e-24 0.0515958 0.00128582
-0.000625016 3.30872e-24 0.0515971 0.00127604
-0.0131564 0 0.0498957 0.00107936
0.0131564 -6.77626e-21 0.0498957 0.00133074
0.000312512 -2.71051e-20 0.0516082 0.00127129
-0.000312512 0 0.0516082 0.00128014
-0.000937538 2.71051e-20 0.0516081 0.00126167
0.000937538 0 0.0516081 0.0012903
-0.00562539 -2.09641e-20 0.051312 0.00119875
0.00562485 0 0.051312 0.0012968
-0.00156253 -2.71051e-20 0.0516081 0.00127063
0.00156253 2.71051e-20 0.0516081 0.00128166
0.00937347 0 0.0507762 0.0012986
-0.00937642 2.11758e-22 0.0507738 0.00111486
0.00781267 2.71051e-20 0.0510437 0.00129105
-0.00781267 0 0.0510437 0.00114673
-0.00687505 5.29396e-23 0.0511805 0.00117477
0.00687505 1.05879e-22 0.0511805 0.00130041
-0.00218755 0 0.051608 0.00125231
0.00218755 0 0.051608 0.00130115
0.0118736 0 0.0502978 0.00131299
-0.0118736 2.82344e-22 0.0502978 0.0010807
-0.00281255 -2.71051e-20 0.0516078 0.00126115
0.00281255 0 0.0516078 0.00129216
0.0128095 -2.71051e-20 0.0500754 0.00132551
-0.0128095 2.71051e-20 0.0500754 0.00107903
-0.0062505 2.00641e-20 0.0513114 0.00119413
0.00624972 0 0.0513114 0.00130331
0.0109367 2.71051e-20 0.0505339 0.00130473
-0.0109367 -2.71051e-20 0.0505339 0.00108174
0.0137016 -6.77626e-21 0.0498556 0.00133819
-0.0137016 0 0.0498556 0.00107949
-0.0075001 5.29396e-23 0.0511575 0.0011684
0.0075001 1.05879e-22 0.0511576 0.0013048
0.0137443 0 0.0498545 0.00133899
-0.0137443 0 0.0498545 0.00107889
0.00343756 0 0.0516077 0.00131172
-0.00343756 2.71051e-20 0.0516077 0.00124296
-0.0137879 0 0.0498533 0.00107929
0.0137879 6.77626e-21 0.0498533 0.00133951
-0.0137045 0 0.0498836 0.00107935
0.0137045 0 0.0498836 0.00133815
0.00843772 2.71051e-20 0.0510423 0.00129981
-0.00843772 5.42101e-20 0.0510423 0.00114236
0.0099984 -2.11758e-22 0.0507738 0.00130576
-0.0100013 -2.11758e-22 0.0507738 0.00111172
-0.0137855 0 0.0498824 0.00107915
0.0137855 0 0.0498824 0.00133938
0.0040626 -5.42101e-20 0.0516075 0.00130277
-0.0040626 2.71051e-20 0.0516075 0.00125208
-0.00687461 0 0.0513107 0.00118979
0.00687461 0 0.0513107 0.00130962
-0.00812515 0 0.0511321 0.00116295
0.00812515 0 0.0511321 0.00130914
0.00468763 0 0.0516072 0.00132252
-0.00468763 0 0.0516072 0.00123521
0.0124985 0 0.0502903 0.00132211
-0.0124985 8.47033e-22 0.0502903 0.00108194
-0.0115618 0 0.0505295 0.00108402
0.0115618 2.71051e-20 0.0505295 0.00131005
0.0134342 -2.71051e-20 0.0500653 0.00133423
-0.0134342 2.71051e-20 0.0500653 0.0010786
0.00906271 0 0.0510407 0.00130495
-0.00906271 5.42101e-20 0.0510407 0.00114213
-0.00875017 2.11758e-22 0.0511035 0.00115741
0.00875017 0 0.0511035 0.00131398
-0.00750083 -3.36696e-20 0.0513099 0.00118655
0.00749953 0 0.051311 0.00131559
0.0143207 0 0.049839 0.0013466
-0.0143207 0 0.049839 0.00108051
0.0143689 0 0.0498377 0.0013474
-0.0143689 -6.77626e-21 0.0498377 0.00108014
0.0106232 1.46113e-20 0.0507689 0.00131239
-0.0106263 0 0.0507689 0.0011087
0.00531265 0 0.0516068 0.00131415
-0.00531265 0 0.0516068 0.00124467
-0.014418 0 0.0498363 0.00108065
0.014418 6.77626e-21 0.0498363 0.00134812
-0.0143242 0 0.049871 0.00108037
0.0143242 6.77626e-21 0.049871 0.00134654
-4.01264e-11 0 0.0519027 0.00132079
0.00062499 0 0.0519027 0.00132498
-0.000624992 0 0.0519027 0.00131611
-0.0144152 -6.77626e-21 0.0498696 0.00108049
0.0144152 0 0.0498696 0.00134795
0.00125006 6.61744e-24 0.0519027 0.00133007
-0.00125006 4.15576e-21 0.0519027 0.00131228
-0.00937512 1.05879e-22 0.0510757 0.00115195
0.00937512 0 0.0510757 0.00131934
0.00187495 0 0.0519025 0.00133463
-0.00187495 -1.32349e-23 0.0519025 0.00130771
0.00593765 -2.71051e-20 0.0516065 0.00133474
-0.00593765 2.71051e-20 0.0516065 0.00122793
-0.00812604 -1.0482e-20 0.0513089 0.00118442
0.00812444 0 0.0513104 0.00132166
0.00968766 -2.71051e-20 0.051039 0.00131451
-0.00968766 5.42101e-20 0.051039 0.00113775
0.00250013 1.32349e-23 0.0519025 0.00133987
-0.00249993 -3.04402e-22 0.0519027 0.00130385
0.0131232 2.82344e-22 0.0502825 0.00133099
-0.0131232 2.82344e-22 0.0502825 0.00108192
-0.0121869 -2.71051e-20 0.0505245 0.00108546
0.0121869 -2.71051e-20 0.0505245 0.00131904
0.0140588 5.42101e-20 0.050055 0.0013425
-0.0140588 -5.42101e-20 0.050055 0.00107854
0.0031249 -2.64698e-23 0.0519024 0.0013443
-0.0031249 0 0.0519024 0.00129934
0.0112482 3.59989e-20 0.0507658 0.00131865
-0.0112516 2.11758e-22 0.0507658 0.00110798
0.0149395 -6.77626e-21 0.0498223 0.00135545
-0.0149395 0 0.0498223 0.00108387
0.00656266 2.71051e-20 0.0516061 0.00132659
-0.00656266 -2.71051e-20 0.0516061 0.00123709
-0.01 2.11758e-22 0.0510557 0.00114708
0.01 0 0.0510558 0.00132514
0.0149933 -6.77626e-21 0.0498208 0.00135628
-0.0149933 0 0.0498208 0.0010838
-0.00375023 1.15144e-20 0.0519026 0.00129575
0.00374987 -2.64698e-23 0.0519022 0.00134961
-0.0150481 0 0.0498193 0.00108436
0.0150481 0 0.0498193 0.00135723
-0.00875123 0 0.0513079 0.00118247
0.00875124 0 0.0513096 0.00132832
-0.0149436 6.77626e-21 0.0498585 0.00108375
0.0149436 -6.77626e-21 0.0498585 0.00135538
0.0103126 -5.42101e-20 0.0510372 0.00131929
-0.0103126 0 0.0510372 0.00113681
-0.0150448 6.77626e-21 0.0498569 0.00108419
0.0150448 0 0.0498569 0.00135702
-0.0043753 -3.39872e-20 0.0519021 0.00129194
0.00437484 -2.64698e-23 0.0519021 0.00135424
0.00718768 2.71051e-20 0.0516056 0.00134705
-0.00718768 0 0.0516056 0.00122146
0.0128118 5.42101e-20 0.050519 0.00132781
-0.0128118 -2.71051e-20 0.050519 0.0010861
0.013748 0 0.0502746 0.00133937
-0.013748 1.12938e-21 0.0502746 0.00108141
0.0118771 -1.52466e-20 0.0507621 0.00132588
-0.011877 0 0.0507655 0.00110923
-0.00500037 -4.04988e-20 0.0519024 0.00128908
0.00500037 0 0.0519018 0.00135998
-0.0106251 0 0.0510497 0.00114418
0.0106251 2.11758e-22 0.0510497 0.00133152
0.0146836 2.71051e-20 0.0500442 0.00135097
-0.0146836 -2.71051e-20 0.0500442 0.00108095
-0.00937413 -2.05405e-20 0.0513067 0.00118057
0.00937639 0 0.0513067 0.00133534
0.0155585 -6.77626e-21 0.0498055 0.00136559
-0.0155585 0 0.0498055 0.00108713
0.00781273 -5.42101e-20 0.0516051 0.00133839
-0.00781273 0 0.0516051 0.00123253
0.0109377 -2.71051e-20 0.0510351 0.00132803
-0.0109377 -2.71051e-20 0.0510351 0.00113291
0.0156176 0 0.0498039 0.00136654
-0.0156176 0 0.0498039 0.00108705
-0.00562545 8.99973e-22 0.0519017 0.00128557
0.00562473 -5.29396e-23 0.0519017 0.00136529
-0.0156777 -6.77626e-21 0.0498022 0.00108738
0.0156777 -6.77626e-21 0.0498022 0.00136768
0.000300839 5.42101e-20 0.0522172 0.00132441
-0.000300839 -2.71051e-20 0.0522172 0.00140697
-0.0155632 -6.77626e-21 0.0498457 0.00108699
0.0155632 0 0.0498457 0.0013655
-0.000949183 0 0.0522172 0.00131764
0.000949183 -5.42101e-20 0.0522172 0.00141582
-0.00155086 2.71051e-20 0.0522172 0.00139883
0.00155086 0 0.0522172 0.00133215
-0.0156739 -6.77626e-21 0.0498438 0.00108722
0.0156739 0 0.0498438 0.00136743
-0.00219919 0 0.0522171 0.00131107
0.00219919 0 0.0522171 0.00142543
-0.0134366 0 0.0505133 0.00108491
0.0134366 2.71051e-20 0.0505133 0.0013367
-0.0100015 3.55754e-20 0.0513078 0.00117843
0.00999892 0 0.0513078 0.0013423
0.0124975 -9.74088e-21 0.050758 0.00133446
-0.0125025 7.19978e-21 0.050758 0.00111004
-0.00625053 -3.00167e-20 0.0519023 0.00128285
0.00625053 0 0.0519014 0.00137157
0.0143728 -5.64689e-22 0.0502664 0.00134758
-0.0143728 -5.64689e-22 0.0502664 0.00108227
-0.0112501 -3.17637e-22 0.0510577 0.00114482
0.0112501 1.05879e-22 0.0510578 0.00133866
-0.00843776 0 0.0516045 0.00121841
0.00843776 0 0.0516045 0.00135898
-0.00280086 -5.42101e-20 0.0522171 0.00139049
0.00280086 2.71051e-20 0.0522171 0.00134039
0.0153084 -2.71051e-20 0.050032 0.0013602
-0.0153084 -2.71051e-20 0.050032 0.0010857
0.0115627 -2.71051e-20 0.0510329 0.00133256
-0.0115627 2.71051e-20 0.0510329 0.00113523
-0.00344921 -2.71051e-20 0.052217 0.00130479
0.00344921 5.42101e-20 0.052217 0.00143477
0.0161781 0 0.0497885 0.00137638
-0.0161781 6.77626e-21 0.0497885 0.0010877
-0.00687562 1.2282e-20 0.0519011 0.00127989
0.00687458 0 0.0519011 0.00137698
0.016242 0 0.0497868 0.00137735
-0.016242 0 0.0497868 0.00108741
0.00405089 0 0.0522169 0.00134883
-0.00405089 2.71051e-20 0.0522169 0.00138278
-0.0163071 6.77626e-21 0.049785 0.00108736
0.0163071 6.77626e-21 0.049785 0.00137848
-0.0106267 2.4564e-20 0.0513042 0.00117665
0.0106239 0 0.0513067 0.00134901
-0.00906278 -2.71051e-20 0.0516039 0.00122932
0.00906278 2.71051e-20 0.0516039 0.00135108
-0.0161834 0 0.0498326 0.00108753
0.0161834 0 0.0498326 0.00137628
0.0131279 3.81165e-21 0.0507535 0.00134305
-0.0131219 -2.11758e-20 0.0507536 0.00110986
0.00469923 0 0.0522168 0.00144459
-0.00469923 0 0.0522168 0.00129973
-0.0140614 -2.71051e-20 0.0505075 0.00108454
0.0140614 -2.71051e-20 0.0505075 0.00134446
-0.0163029 0 0.0498305 0.00108721
0.0163029 0 0.0498305 0.00137822
-0.0118752 0 0.0510752 0.0011482
0.0118752 -1.05879e-22 0.0510752 0.00134724
-0.00750074 1.14349e-20 0.0519008 0.00127849
0.00749952 -1.05879e-22 0.051902 0.00138301
0.0149977 -5.64689e-22 0.0502574 0.00135626
-0.0149977 0 0.0502574 0.00108537
0.0121878 2.71051e-20 0.0510304 0.00134273
-0.0121878 -2.71051e-20 0.0510304 0.00113424
0.00530091 2.71051e-20 0.0522167 0.00135831
-0.00530091 -2.71051e-20 0.0522167 0.00137629
0.015933 2.71051e-20 0.0500187 0.00137142
-0.015933 0 0.0500187 0.00108734
0.00968776 2.71051e-20 0.0516031 0.00137234
-0.00968776 -2.71051e-20 0.0516031 0.00121546
-0.0112517 -3.62107e-20 0.0513029 0.00117608
0.0112488 0 0.0513029 0.00135564
0.000625005 1.65436e-24 0.0525189 0.00139922
-0.000625019 1.80921e-20 0.0525189 0.00139187
0.0167977 6.77626e-21 0.0497716 0.00138643
-0.0167977 0 0.0497716 0.00108584
-0.00812585 -1.33408e-20 0.0519004 0.00127678
0.0081244 0 0.0519018 0.00138824
0.0168666 6.77626e-21 0.0497698 0.00138741
-0.0168666 0 0.0497698 0.00108544
0.00187506 0 0.0525189 0.0014074
-0.00187496 -2.74955e-20 0.0525189 0.00138491
0.00594925 2.71051e-20 0.0522166 0.00145567
-0.00594925 2.71051e-20 0.0522166 0.00129544
-0.0169369 0 0.0497678 0.001085
0.0169369 -6.77626e-21 0.0497678 0.00138855
-0.0168036 0 0.0498196 0.00108565
0.0168036 0 0.0498196 0.00138631
0.013746 5.50571e-21 0.0507488 0.00135108
-0.013746 -4.23516e-22 0.0507488 0.00110898
0.0137536 4.23516e-21 0.0507487 0.00135132
-0.0137536 1.69407e-20 0.0507487 0.00110932
0.0146864 0 0.0505014 0.00135291
-0.0146864 0 0.0505014 0.00108588
-0.0125003 -1.05879e-22 0.0510981 0.00115202
0.0125003 -1.05879e-22 0.0510981 0.00135716
0.00312494 0 0.0525187 0.00141577
-0.0031251 -2.1017e-20 0.0525187 0.0013781
-0.0128128 -2.71051e-20 0.0510276 0.00113647
0.0128128 0 0.0510276 0.00134915
-0.0169322 0 0.0498174 0.00108486
0.0169322 -1.35525e-20 0.0498174 0.00138826
0.0156226 0 0.0502476 0.00136627
-0.0156226 1.69407e-21 0.0502476 0.00108839
0.0103128 -2.71051e-20 0.0516024 0.00136456
-0.0103128 2.71051e-20 0.0516024 0.00122609
0.00655093 2.71051e-20 0.0522165 0.00136888
-0.00655093 0 0.0522165 0.00137046
-0.00875097 -2.5411e-20 0.0519016 0.00127569
0.00875097 0 0.0519016 0.00139457
-0.0118739 2.11758e-22 0.0513014 0.00117669
0.0118769 0 0.0513014 0.00136283
-7.51048e-12 0 0.0526734 0.00141429
0.0165576 0 0.0500052 0.00138179
-0.0165576 0 0.0500052 0.00108627
0.00125004 3.30872e-24 0.0526734 0.00142178
-0.00125004 2.71481e-20 0.0526734 0.00140749
-0.00437516 3.74547e-21 0.0525187 0.00137219
0.0043749 6.2204e-21 0.0525187 0.00142456
0.00719927 0 0.0522163 0.00146705
-0.00719927 -2.71051e-20 0.0522163 0.00129263
0.0174165 0 0.0497547 0.00139587
-0.0174165 0 0.0497547 0.0010832
0.00249996 -6.61744e-24 0.0526733 0.00142988
-0.00249996 -1.28842e-20 0.0526733 0.00140082
0.0174914 0 0.0497527 0.00139687
-0.0174914 1.35525e-20 0.0497527 0.00108312
-0.00937607 1.00585e-20 0.0518997 0.00127404
0.00937427 0 0.0518997 0.0014004
0.0143747 2.82344e-22 0.0507475 0.00135931
-0.0143747 7.05861e-22 0.0507475 0.0011097
0.0109378 -5.42101e-20 0.0516015 0.00138564
-0.0109378 0 0.0516015 0.00121323
-0.0175681 0 0.0497506 0.00108266
0.0175681 6.77626e-21 0.0497506 0.00139806
0.0134377 2.71051e-20 0.0510248 0.00135948
-0.0134377 0 0.0510248 0.00113413
0.0153114 0 0.0504947 0.00136159
-0.0153114 0 0.0504947 0.00108966
-0.017423 -6.77626e-21 0.0498073 0.00108301
0.017423 0 0.0498073 0.00139574
-0.0131252 0 0.0511274 0.00115603
0.0131252 1.05879e-22 0.0511274 0.00136751
0.00780098 2.71051e-20 0.0522162 0.00137915
-0.00780098 -2.71051e-20 0.0522162 0.00136682
0.0162473 5.64689e-22 0.0502372 0.00137688
-0.0162473 5.64689e-22 0.0502372 0.00108899
-0.0125018 -9.52912e-21 0.0512997 0.00117723
0.012499 -2.11758e-22 0.0513023 0.00137077
0.00374994 2.64168e-20 0.0526733 0.00143817
-0.0037501 -4.71162e-21 0.0526733 0.00139469
-0.0175627 -6.77626e-21 0.0498053 0.0010825
0.0175627 -6.77626e-21 0.0498053 0.00139774
-0.00562523 -3.22402e-20 0.0525185 0.00136737
0.00562485 3.18961e-20 0.0525185 0.00143437
-0.0100012 -1.03762e-20 0.0519011 0.00127313
0.0100012 0 0.0518992 0.0014072
0.0171823 0 0.0499917 0.00139151
-0.0171823 -2.71051e-20 0.0499917 0.00108318
0.0115628 0 0.0516006 0.0013778
-0.0115628 2.71051e-20 0.0516006 0.00122539
0.00844931 0 0.052216 0.00147802
-0.00844931 0 0.052216 0.00129144
0.0180337 -1.35525e-20 0.0497379 0.0014052
-0.0180337 -1.35525e-20 0.0497379 0.00108247
-0.00500016 -3.60254e-20 0.0526731 0.00138973
0.00500016 3.77988e-20 0.0526731 0.00144717
0.0149997 -1.41172e-22 0.0507428 0.00136776
-0.0149997 1.41172e-22 0.0507428 0.00111183
0.0140626 2.71051e-20 0.0510219 0.00136542
-0.0140626 2.71051e-20 0.0510219 0.00113559
0.018116 -1.35525e-20 0.0497357 0.00140641
-0.018116 1.35525e-20 0.0497357 0.00108297
0.0159363 0 0.0504875 0.00137251
-0.0159363 -2.71051e-20 0.0504875 0.00109147
-0.0131268 -3.36696e-20 0.051298 0.0011774
0.0131268 0 0.051298 0.00137883
-0.0182007 0 0.0497334 0.00108276
0.0182007 0 0.0497334 0.00140784
-0.0180411 6.77626e-21 0.0497963 0.0010823
0.0180411 -6.77626e-21 0.0497963 0.00140507
-0.00687533 8.94679e-21 0.0525183 0.00136354
0.00687533 0 0.0525183 0.00144487
-0.0106263 6.77626e-21 0.0518987 0.00127195
0.0106263 -2.11758e-22 0.0518987 0.00141317
-0.0137502 -2.11758e-22 0.0511647 0.00116073
0.0137502 1.05879e-22 0.0511647 0.00137813
0.016872 5.64689e-22 0.0502266 0.00138685
-0.016872 5.64689e-22 0.0502266 0.00108731
0.00905101 0 0.0522158 0.00138976
-0.00905101 0 0.0522158 0.00136303
-0.0181943 0 0.0497943 0.00108255
0.0181943 -6.77626e-21 0.0497943 0.00140747
0.0121879 2.71051e-20 0.0515996 0.00139971
-0.0121879 2.71051e-20 0.0515996 0.00121437
-0.00625024 1.82112e-20 0.0526729 0.00138562
0.00625024 -1.12232e-20 0.0526729 0.00145714
0.0178069 2.71051e-20 0.0499782 0.00140069
-0.0178069 0 0.0499782 0.00108132
0.0156247 -1.41172e-22 0.0507378 0.00137721
-0.0156247 1.41172e-22 0.0507378 0.00111436
-0.0146876 5.42101e-20 0.0510189 0.00113504
0.0146876 0 0.0510189 0.00137553
-0.0112513 -4.23516e-21 0.0518982 0.00127203
0.0112513 0 0.0518982 0.00141998
0.0186495 0 0.0497211 0.0014152
-0.0186495 -6.77626e-21 0.0497211 0.00108414
-0.0137515 2.26581e-20 0.0512985 0.0011773
0.0137515 0 0.0512964 0.00138676
0.00969931 -2.71051e-20 0.0522156 0.00148992
-0.00969931 -2.71051e-20 0.0522156 0.00129041
0.0165611 2.71051e-20 0.0504799 0.00138242
-0.0165611 2.71051e-20 0.0504799 0.00109144
0.0187402 0 0.0497187 0.00141667
-0.0187402 0 0.0497187 0.00108508
-0.00812546 2.08582e-20 0.0525181 0.00136132
0.00812509 -5.29396e-23 0.0525187 0.00145509
0.000625008 0 0.0531412 0.00149512
-0.000625008 1.0842e-19 0.0531412 0.00148927
-0.0188333 6.77626e-21 0.0497161 0.00108491
0.0188333 -6.77626e-21 0.0497161 0.00141832
0.0128129 2.71051e-20 0.0515986 0.00139301
-0.0128129 -2.71051e-20 0.0515986 0.00122632
-0.0186582 0 0.0497859 0.00108396
0.0186582 1.35525e-20 0.0497859 0.00141506
0.00187502 -5.42101e-20 0.0531412 0.00150167