# pMean  POINT_DATA 27269
# x  y  z  pMean
-2.71051e-20 0.0101542 1.02364e-07 0.00360386
2.71051e-20 -0.0101542 1.02364e-07 0.00364648
1.35525e-20 0.0101542 0.000172997 0.00360394
1.35525e-20 -0.0101542 0.000173027 0.00364648
-1.35525e-20 0.0101542 0.000494703 0.00360393
-1.35525e-20 -0.0101542 0.00049479 0.00364649
0 0.0101542 0.000670046 0.00360387
0 -0.0101542 0.000670165 0.00364649
-1.35525e-20 0.0101542 0.000852458 0.0036039
0 -0.0101542 0.000852581 0.0036465
-2.71051e-20 0.0101542 0.00118307 0.00360386
0 -0.0101542 0.00118319 0.0036465
0 0.0101542 0.00136546 0.00360384
1.35525e-20 -0.0101542 0.00136559 0.0036465
1.35525e-20 0.0102699 0.000142056 0.00360385
0 -0.0102699 0.000142083 0.00364646
-1.35525e-20 0.0101542 0.00155417 0.00360384
0 -0.0101542 0.00155427 0.0036465
-1.35525e-20 0.0102737 9.61398e-08 0.00360385
0 -0.0102737 9.61398e-08 0.00364646
-1.35525e-20 0.0102733 0.000515395 0.00360383
-2.71051e-20 -0.0102733 0.000515488 0.00364646
1.35525e-20 0.0102675 0.000807102 0.0036038
1.35525e-20 -0.0102675 0.000807226 0.00364647
0 0.0101542 0.00190096 0.00360381
-1.35525e-20 -0.0101542 0.00190099 0.0036465
0 0.0102675 0.00119418 0.00360375
0 -0.0102675 0.00119431 0.00364648
0 0.0102594 0.00147516 0.00360375
1.35525e-20 -0.0102594 0.00147528 0.00364648
2.71051e-20 0.0101542 0.002087 0.00360383
-2.71051e-20 -0.0101542 0.002087 0.00364651
1.35525e-20 0.0104134 0.000325112 0.00360377
0 -0.0104134 0.000325171 0.00364644
0 0.0102564 0.00187922 0.00360371
-1.35525e-20 -0.0102564 0.00187925 0.00364648
-1.35525e-20 0.010404 0.000979244 0.00360369
1.35525e-20 -0.010404 0.000979366 0.00364645
-1.35525e-20 0.0102712 0.00214806 0.00360374
0 -0.0102712 0.00214806 0.00364649
1.35525e-20 0.0103833 0.00161107 0.00360363
1.35525e-20 -0.0103834 0.00161115 0.00364645
0 0.0103536 0.00205867 0.00360367
0 -0.0103536 0.00205869 0.00364647
0 0.0105837 0.000111815 0.00360344
0 -0.0105837 0.00011184 0.0036464
0 -0.0105846 8.37326e-08 0.00364641
-6.77626e-21 0.0105846 8.37325e-08 0.00360345
1.35525e-20 -0.0106742 7.93306e-08 0.00364639
1.35525e-20 0.0106742 7.93306e-08 0.00360327
1.12938e-21 0.0106592 0.000632596 0.00360335
5.64689e-21 -0.0106592 0.000632707 0.00364639
2.25875e-21 0.0106427 0.00125874 0.00360341
0 -0.0106428 0.00125887 0.0036464
-1.35525e-20 0.0107479 8.57773e-05 0.00360316
1.35525e-20 -0.0107479 8.57999e-05 0.00364637
0 0.0107513 7.04944e-08 0.00360316
1.35525e-20 -0.0107513 7.04935e-08 0.00364637
6.02335e-21 0.0106335 0.0017164 0.00360344
9.03502e-21 -0.0106336 0.00171649 0.00364641
0 -0.0105533 0.0022953 0.00364642
0 0.0105533 0.0022953 0.00360335
0 0.0106374 0.00201561 0.00360352
0 -0.0106374 0.00201565 0.00364643
0 0.0106443 0.00223442 0.00360326
1.35525e-20 -0.0106443 0.00223443 0.0036464
-1.35525e-20 -0.0106478 0.00234462 0.00364639
0 0.0106478 0.00234461 0.00360314
2.71051e-20 0.0109358 0.000311572 0.00360275
0 -0.0109358 0.000311625 0.00364633
0 0.010923 0.000931193 0.00360312
0 -0.0109231 0.0009313 0.00364634
0 0.0107254 0.0023851 0.00360295
-1.35525e-20 -0.0107254 0.0023851 0.00364637
-1.35525e-20 0.0107633 0.00232236 0.00360293
1.35525e-20 -0.0107633 0.00232237 0.00364636
0 0.0109068 0.00151922 0.00360314
0 -0.0109068 0.00151932 0.00364633
0 -0.0111547 5.04028e-09 0.00364629
6.77626e-21 0.0111547 5.0392e-09 0.00360233
0 -0.0111547 6.05199e-05 0.00364629
0 0.0111547 6.04978e-05 0.00360232
-6.77626e-21 -0.0112084 -1.45754e-09 0.00364628
-6.77626e-21 0.0112084 -1.45745e-09 0.00360222
0 0.0112024 0.000609609 0.00360244
0 -0.0112025 0.000609713 0.00364627
0 0.0111846 0.00122679 0.00360274
0 -0.0111846 0.00122692 0.00364628
0 0.0110963 0.00189314 0.00360273
-4.06576e-21 -0.0110963 0.00189321 0.0036463
2.71051e-20 0.0110268 0.00227109 0.00360252
2.71051e-20 -0.0110268 0.00227111 0.0036463
0 0.0112589 5.31436e-05 0.00360206
-6.77626e-21 -0.0112589 5.31587e-05 0.00364626
6.77626e-21 0.0112597 -1.25003e-09 0.00360206
0 -0.0112597 -1.25006e-09 0.00364626
0 -0.0110601 0.00255975 0.00364629
-6.77626e-21 0.0110601 0.00255975 0.00360244
6.77626e-21 -0.0110979 0.00251647 0.00364628
0 0.0110979 0.00251647 0.00360241
0 -0.011119 0.00259052 0.00364628
0 0.011119 0.00259052 0.00360239
-6.77626e-21 0.0111709 0.00261751 0.00360233
6.77626e-21 -0.0111709 0.00261751 0.00364627
0 0.0111908 0.0025787 0.00360232
0 -0.0111908 0.0025787 0.00364627
-2.71051e-20 0.0114906 0.00030393 0.00360159
2.71051e-20 -0.0114906 0.000303965 0.00364621
2.71051e-20 0.0114869 0.000915903 0.00360233
0 -0.0114869 0.000915995 0.00364622
-7.52918e-22 0.0113199 0.00230432 0.00360225
7.52918e-22 -0.0113199 0.00230434 0.00364624
0 0.0114565 0.00155255 0.00360236
0 -0.0114565 0.00155262 0.00364623
5.42101e-20 0.0114952 0.0020852 0.00360215
0 -0.0114952 0.00208524 0.00364621
2.71051e-20 0.0114493 0.00253745 0.00360211
0 -0.0114493 0.00253746 0.00364623
0 -0.0117381 7.69852e-10 0.00364615
0 0.0117382 7.69955e-10 0.00360158
0 -0.0117389 3.73393e-05 0.00364615
0 0.0117389 3.7321e-05 0.00360157
0 -0.011774 9.15423e-10 0.00364614
0 0.011774 9.15457e-10 0.00360159
-2.25875e-21 0.0117853 0.000597818 0.00360177
-5.64689e-22 -0.0117853 0.000597882 0.00364614
0 0.0118096 8.62839e-10 0.00360159
0 -0.0118096 8.62786e-10 0.00364613
-6.77626e-21 0.0118103 3.42421e-05 0.00360159
-6.77626e-21 -0.0118103 3.42581e-05 0.00364613
0 0.0117814 0.00122177 0.00360193
1.12938e-21 -0.0117814 0.00122186 0.00364614
0 -0.0115287 0.00280389 0.00364621
6.77626e-21 0.0115287 0.00280391 0.00360183
-6.77626e-21 -0.0115503 0.00277303 0.00364621
0 0.0115503 0.00277304 0.00360181
-6.77626e-21 -0.0115729 0.0028269 0.0036462
0 0.0115729 0.00282691 0.00360174
-1.12938e-21 0.0117842 0.00183862 0.0036018
1.12938e-21 -0.0117842 0.00183867 0.00364614
0 -0.0116142 0.00284883 0.0036462
6.77626e-21 0.0116142 0.00284884 0.00360165
0 -0.0116389 0.00280422 0.00364619
0 0.0116389 0.00280423 0.00360164
-1.69407e-21 0.0117437 0.00238065 0.00360169
2.25875e-21 -0.0117437 0.00238067 0.00364616
0 0.0120804 0.000295148 0.00360154
2.71051e-20 -0.0120804 0.00029517 0.00364607
0 0.0120943 0.000900326 0.00360163
0 -0.0120943 0.00090037 0.00364606
0 0.0121033 0.00152696 0.00360142
0 -0.0121033 0.001527 0.00364606
0 -0.0119447 0.00270132 0.00364615
0 0.0119447 0.00270132 0.00360124
0 -0.0120973 0.00216163 0.00364606
2.71051e-20 0.0120973 0.00216161 0.00360125
0 -0.0123534 7.40895e-11 0.00364601
3.38813e-21 0.0123534 7.40735e-11 0.00360162
-3.38813e-21 -0.0123542 2.17307e-05 0.00364601
3.38813e-21 0.0123542 2.17129e-05 0.00360162
0 -0.0119749 0.00303994 0.00364607
0 0.011975 0.00303995 0.00360096
6.77626e-21 -0.0120031 0.003 0.00364606
0 0.0120032 0.00300001 0.00360094
-3.38813e-21 -0.0123759 4.08364e-11 0.00364601
-3.38813e-21 0.0123759 4.08439e-11 0.00360162
0 -0.012014 0.00306072 0.00364604
6.77626e-21 0.0120141 0.00306073 0.00360089
-3.38813e-21 0.0123981 3.93563e-11 0.00360162
3.38813e-21 -0.0123981 3.9348e-11 0.003646
0 0.0123987 1.92171e-05 0.00360162
3.38813e-21 -0.0123988 1.92316e-05 0.003646
5.64689e-22 0.0124007 0.000576143 0.0036015
0 -0.0124007 0.000576167 0.00364599
6.77626e-21 -0.0120517 0.00308065 0.00364603
-6.77626e-21 0.0120518 0.00308066 0.0036008
0 -0.0120702 0.00304383 0.00364602
0 0.0120702 0.00304384 0.00360079
8.47033e-22 0.0124207 0.00119161 0.00360121
-5.64689e-22 -0.0124207 0.00119164 0.00364598
5.64689e-22 0.0124235 0.0018465 0.00360089
-8.47033e-22 -0.0124235 0.00184652 0.003646
1.807e-21 -0.0123834 0.00256028 0.00364597
-1.12938e-21 0.0123834 0.00256028 0.00360058
-2.71051e-20 0.0126967 0.000276523 0.0036017
2.71051e-20 -0.0126967 0.000276524 0.00364595
-2.71051e-20 -0.0123512 0.00296169 0.00364591
-2.71051e-20 0.0123512 0.0029617 0.00360039
-2.71051e-20 0.0127273 0.00085768 0.00360114
0 -0.0127273 0.000857696 0.00364588
0 -0.0124094 0.00326998 0.00364592
0 0.0124094 0.00326999 0.00359997
-2.71051e-20 0.0127511 0.0014915 0.00360066
-2.71051e-20 -0.0127511 0.00149152 0.00364593
-6.77626e-21 -0.0124312 0.00323672 0.00364592
0 0.0124312 0.00323674 0.00359996
-6.77626e-21 -0.0124456 0.00328913 0.00364592
6.77626e-21 0.0124456 0.00328914 0.0035999
0 -0.0124806 0.00330747 0.00364592
0 0.0124806 0.00330748 0.00359978
0 -0.012495 0.00327722 0.00364592
-6.77626e-21 0.012495 0.00327723 0.00359977
-2.71051e-20 -0.0127411 0.00217416 0.00364595
-2.71051e-20 0.0127411 0.00217415 0.00360026
-7.52918e-22 -0.0126308 0.00298512 0.00364588
2.63521e-21 0.0126308 0.00298513 0.00359982
-8.47033e-22 0.0130206 3.20561e-06 0.00360155
8.47033e-22 -0.0130119 3.91712e-06 0.00364608
5.64689e-22 0.0130338 0.000526399 0.00360128
-2.82344e-22 -0.0130338 0.000526404 0.00364595
-2.71051e-20 -0.0127926 0.00274398 0.00364583
2.71051e-20 0.0127927 0.00274399 0.00359985
3.5293e-22 0.0130479 0.00109195 0.00360067
-7.05861e-23 -0.0130502 0.0010895 0.00364581
0 0.0131039 1.35816e-12 0.00360131
-1.69407e-21 -0.0131042 1.35716e-12 0.00364602
2.71051e-20 -0.0127558 0.00321824 0.0036459
-2.71051e-20 0.0127559 0.00321826 0.00359925
1.8823e-22 0.0130771 0.00181208 0.00360003
3.5293e-22 -0.0130771 0.00181207 0.00364585
6.77626e-21 -0.012831 0.00349155 0.00364589
6.77626e-21 0.0128311 0.00349157 0.00359866
6.77626e-21 -0.0128493 0.0034632 0.00364589
6.77626e-21 0.0128494 0.00346322 0.00359864
2.82344e-22 -0.0130837 0.00247343 0.0036458
-2.82344e-22 0.0130837 0.00247343 0.00359958
0 0.0133274 0.000238487 0.00360144
-2.71051e-20 -0.0133275 0.000238484 0.00364624
-6.77626e-21 -0.0128661 0.00350997 0.00364587
0 0.0128662 0.00350999 0.00359855
0 -0.0129007 0.00352804 0.00364588
-6.77626e-21 0.0129008 0.00352806 0.00359838
6.77626e-21 -0.0129237 0.00348635 0.00364588
6.77626e-21 0.0129238 0.00348637 0.00359838
0 -0.0130385 0.00304627 0.00364581
0 0.0130385 0.00304628 0.00359892
2.71051e-20 0.013369 0.00076234 0.00360079
2.71051e-20 -0.013369 0.000762345 0.0036457
2.71051e-20 0.013433 0.00137815 0.00359994
2.71051e-20 -0.013433 0.00137815 0.00364573
0 0.0134155 0.00211071 0.0035993
-2.71051e-20 -0.0134155 0.00211071 0.00364579
2.71051e-20 -0.0132269 0.0033667 0.00364583
0 0.013227 0.00336671 0.00359768
-1.97641e-21 -0.0136582 0.000454838 0.00364548
-1.97641e-21 0.0136582 0.000454825 0.00360011
2.71051e-20 -0.0133905 0.00280403 0.00364565
-5.42101e-20 0.0133905 0.00280404 0.00359892
0 0.0137199 1.34254e-13 0.00359976
-3.38813e-21 -0.01372 1.34237e-13 0.00364561
0 0.0137206 2.20322e-05 0.00359976
0 -0.0137207 2.20681e-05 0.00364561
-3.38813e-21 0.0137216 0.000180456 0.00359978
3.38813e-21 -0.0137217 0.000180602 0.00364548
0 0.0137515 1.02843e-14 0.00359958
0 -0.0137517 1.00455e-14 0.00364555
0 -0.013245 0.00370834 0.00364569
0 0.0132451 0.00370836 0.00359749
6.77626e-21 -0.0132718 0.0036714 0.00364568
6.77626e-21 0.0132719 0.00367143 0.00359747
0 0.0137721 1.60801e-05 0.00359954
3.38813e-21 -0.0137723 1.61064e-05 0.00364547
0 0.0137737 6.1425e-15 0.00359954
0 -0.0137739 5.90542e-15 0.00364546
0 -0.0132782 0.00372571 0.00364563
0 0.0132783 0.00372573 0.00359749
-3.38813e-21 0.0137944 0.0008866 0.00359959
3.38813e-21 -0.0137944 0.000886594 0.00364545
0 -0.0133096 0.00374322 0.00364562
6.77626e-21 0.0133097 0.00374323 0.00359741
-3.38813e-21 0.0138291 2.83676e-15 0.0035992
0 -0.0138293 2.61637e-15 0.00364543
0 -0.0133282 0.00371043 0.00364562
0 0.0133283 0.00371044 0.00359741
0 0.0137533 0.00171115 0.00359914
-5.64689e-22 -0.0137533 0.00171115 0.00364564
-1.05879e-22 0.013671 0.00246354 0.00359874
0 -0.0136715 0.00246353 0.00364566
1.05879e-22 0.0137215 0.00246193 0.00359867
0 -0.0137202 0.00246202 0.00364565
-9.52912e-22 -0.0137187 0.00249021 0.00364564
1.05879e-22 0.0137187 0.00249051 0.00359863
2.25875e-22 -0.0136619 0.00322325 0.00364553
-9.03502e-22 0.0136619 0.00322326 0.00359752
0 -0.013613 0.00362485 0.00364543
0 0.013613 0.00362486 0.00359708
-2.82344e-22 0.0141363 0.000319418 0.00359752
1.41172e-21 -0.0141363 0.000319427 0.00364429
5.42101e-20 0.0140903 0.00128026 0.00359908
0 -0.0140903 0.00128025 0.0036454
-2.71051e-20 0.0140598 0.00206638 0.00359839
0 -0.0140598 0.00206638 0.00364565
0 -0.0136636 0.00393548 0.00364553
-3.38813e-21 0.0136637 0.00393551 0.00359561
0 -0.0136786 0.00391516 0.00364552
0 0.0136787 0.00391521 0.00359559
1.35525e-20 0.0142378 8.24085e-16 0.00359712
0 -0.0142379 7.74981e-16 0.00364423
-3.38813e-21 -0.0136842 0.00394696 0.00364553
0 0.0136843 0.00394697 0.00359544
3.38813e-21 -0.0137015 0.00395978 0.00364554
0 0.0137016 0.00395978 0.00359526
0 -0.0137142 0.00394396 0.00364554
-3.38813e-21 0.0137143 0.00394398 0.00359526
2.71051e-20 -0.0140217 0.00281655 0.00364552
0 0.0140217 0.00281656 0.00359809
5.64689e-22 -0.013895 0.00367137 0.00364542
-1.8823e-22 0.013895 0.00367138 0.00359556
4.07831e-22 -0.0144241 0.000793247 0.00364526
-7.8429e-23 0.0144242 0.00079323 0.00359891
-1.35525e-20 0.014454 1.47583e-16 0.00359689
1.35525e-20 -0.014454 1.45358e-16 0.00364561
-7.05861e-22 0.0143969 0.00165239 0.00359811
-2.82344e-22 -0.0143969 0.00165239 0.00364538
0 -0.0140801 0.00343826 0.00364522
2.71051e-20 0.0140802 0.00343827 0.00359602
-5.42101e-20 -0.0140066 0.00392192 0.0036456
-5.42101e-20 0.0140066 0.00392193 0.00359359
0 0.0143667 0.00242472 0.00359696
-3.49401e-20 -0.0143633 0.0024249 0.00364555
2.11758e-22 -0.0143624 0.00267802 0.00364546
2.11758e-22 0.0143624 0.00267914 0.00359673
0 -0.0140362 0.00420868 0.00364521
0 0.0140362 0.00420869 0.00359379
0 -0.014043 0.00420183 0.0036452
0 0.014043 0.00420185 0.00359378
-1.69407e-21 -0.0140443 0.00421476 0.00364519
1.69407e-21 0.0140444 0.00421477 0.00359379
0 0.0140522 0.00422058 0.0035938
0 -0.0140522 0.00422057 0.00364517
-1.69407e-21 0.0140564 0.00421301 0.00359379
0 -0.0140564 0.004213 0.00364517
-2.71051e-20 -0.0146848 -3.36519e-17 0.00364664
1.35525e-20 0.0146849 -3.19561e-17 0.00359691
4.23516e-22 -0.0143543 0.00313092 0.00364528
0 0.0143544 0.00313093 0.00359635
-4.23516e-22 -0.0143609 0.00313028 0.00364527
1.82112e-20 0.014361 0.00313028 0.00359632
-2.71051e-21 0.0147048 0.000271709 0.0035968
8.13152e-21 -0.0147048 0.000271669 0.00364686
4.23516e-22 -0.014356 0.00330023 0.00364528
8.47033e-22 0.014356 0.00329998 0.00359562
2.71051e-20 0.0147336 0.0012417 0.00360013
0 -0.0147336 0.0012417 0.00364468
0 -0.0146216 0.00238757 0.00364549
0 0.0146232 0.00238733 0.00359578
5.42101e-20 0.0146912 0.002036 0.00359505
-2.71051e-20 -0.0146912 0.002036 0.00364581
6.85693e-22 0.0143356 0.00382207 0.00359352
-2.82344e-22 -0.0143356 0.00382206 0.00364529
0 -0.0143244 0.00417019 0.00364475
-2.71051e-20 0.0143244 0.0041702 0.00359385
8.47033e-22 -0.014279 0.00438886 0.0036449
-8.47033e-22 0.014279 0.00438882 0.0035928
0 -0.0146906 0.00275582 0.00364528
0 0.0146906 0.00275582 0.00359632
-1.41172e-22 0.0149591 0.00165211 0.00359626
0 -0.0149613 0.00165074 0.00364513
2.71051e-20 -0.0146586 0.00346816 0.00364509
2.71051e-20 0.0146586 0.00346817 0.00359494
8.47033e-22 -0.0144053 0.00448257 0.00364475
8.47033e-22 0.0144084 0.00447896 0.00359228
1.69407e-20 -0.0151193 -3.98497e-17 0.00364576
0 0.0151197 -3.92978e-17 0.0035949
0 -0.0144514 0.00451673 0.00364477
-4.23516e-21 0.0144515 0.00451673 0.00359198
0 -0.0151611 3.47553e-05 0.00364587
0 0.0151612 3.45389e-05 0.00359473
0 -0.0151665 -1.47742e-17 0.00364584
-3.38813e-21 0.0151666 -1.46568e-17 0.00359472
-2.63521e-21 -0.0145673 0.00422607 0.0036451
1.12938e-21 0.0145673 0.00422607 0.00359111
-3.38813e-21 0.0151843 -9.97863e-18 0.00359472
0 -0.0151843 -1.00127e-17 0.0036457
3.38813e-21 -0.015166 0.000867971 0.00364513
-2.25875e-21 0.015166 0.000867969 0.00359627
0 0.0152149 -1.00721e-17 0.00359458
3.38813e-21 0.0152149 2.26676e-05 0.00359458
0 -0.0152151 -1.0106e-17 0.00364561
0 -0.0152152 2.28123e-05 0.00364561
2.71051e-20 -0.0147125 0.00402551 0.00364587
2.71051e-20 0.0147125 0.00402552 0.00358889
4.23516e-22 -0.0150843 0.00231356 0.00364539
7.19978e-21 0.0150843 0.00231357 0.00359366
3.38813e-21 -0.0150902 0.00232073 0.00364538
0 0.0150841 0.00232059 0.00359365
-2.82344e-22 -0.0149792 0.00312141 0.0036452
-2.82344e-22 0.0149792 0.00312141 0.00359303
-2.71051e-20 -0.0146794 0.00445852 0.00364471
0 0.0146795 0.00445852 0.00359057
0 0.0149711 0.00367509 0.00359101
0 -0.0149711 0.00367531 0.00364523
1.10114e-20 0.0149684 0.0037778 0.00359063
0 -0.0149706 0.00377568 0.00364524
6.77626e-21 -0.0147268 0.00472094 0.00364484
0 0.0147268 0.00472094 0.00359026
0 -0.0147397 0.0047038 0.00364483
-6.77626e-21 0.0147397 0.0047038 0.00359025
6.77626e-21 -0.0147494 0.00473773 0.00364487
6.77626e-21 0.0147494 0.00473773 0.00359013
-8.47033e-22 -0.0150248 0.0037779 0.00364526
-2.11758e-22 0.0150249 0.0037779 0.00359026
-6.77626e-21 -0.0147753 0.00475693 0.0036448
-6.77626e-21 0.0147753 0.00475692 0.00359021
0 0.0147957 0.00471952 0.00359018
6.77626e-21 -0.0147957 0.00471952 0.0036448
4.23516e-22 0.0149238 0.00432823 0.00358955
0 -0.0149238 0.00432823 0.00364507
6.98802e-21 0.0149284 0.00431371 0.00358953
-4.87044e-21 -0.0149308 0.00431431 0.00364508
0 0.0153072 0.00276685 0.00359095
0 -0.0153072 0.00276684 0.00364539
-2.5411e-21 -0.0149537 0.00432327 0.00364507
-3.17637e-21 0.0149537 0.00432327 0.00358951
-2.71051e-20 -0.0152762 0.00345527 0.00364505
0 0.0152762 0.00345527 0.00358993
5.42101e-20 0.0156652 0.00170503 0.00359174
0 -0.0156652 0.00170503 0.00364472
-2.71051e-20 0.0150898 0.00463314 0.0035896
-2.71051e-20 -0.0150898 0.00463315 0.00364487
-2.71051e-20 -0.0152566 0.00410558 0.00364494
5.42101e-20 0.0152566 0.00410558 0.00358883
0 0.0156482 0.00239976 0.00358961
0 -0.0156482 0.00239976 0.00364549
-6.77626e-21 0.0150378 0.00495165 0.00359162
6.77626e-21 -0.0150378 0.00495167 0.0036446
5.42101e-20 -0.0158313 0.000505744 0.00364482
0 0.0158313 0.000505741 0.00359166
0 0.0150929 0.00489487 0.00359166
0 -0.0150929 0.0048949 0.00364459
0 0.0150892 0.00498978 0.0035919
0 -0.0150892 0.0049898 0.00364474
0 -0.015606 0.00310341 0.00364553
-2.82344e-22 0.015606 0.00310341 0.00358798
-6.77626e-21 0.0151439 0.00503033 0.00359359
6.77626e-21 -0.0151439 0.00503034 0.00364438
-1.35525e-20 -0.0151784 0.00496291 0.0036444
-1.35525e-20 0.0151784 0.0049629 0.00359335
4.51751e-22 0.0155884 0.00378776 0.00358623
5.64689e-22 -0.0155884 0.00378777 0.00364546
-1.12938e-21 0.0155033 0.00450865 0.00358892
-6.77626e-22 -0.0155033 0.00450866 0.00364498
2.71051e-20 0.0154178 0.0049056 0.00359489
-2.71051e-20 -0.0154178 0.0049056 0.00364414
2.71051e-20 -0.0159469 0.00273843 0.00364591
0 0.0159469 0.00273843 0.00358775
6.77626e-21 0.0153971 0.00521817 0.0035922
6.77626e-21 -0.0153971 0.00521817 0.00364468
2.71051e-20 -0.015903 0.00343511 0.00364575
-2.71051e-20 0.015903 0.0034351 0.0035834
0 0.0154387 0.00517349 0.00359193
-6.77626e-21 -0.0154387 0.00517349 0.00364471
0 -0.0154377 0.00524826 0.00364501
-6.77626e-21 0.0154377 0.00524826 0.00359058
2.11758e-21 0.0163333 -1.09536e-18 0.00358749
-4.23516e-22 -0.0163358 -1.0789e-18 0.00364484
-6.77626e-21 0.0154764 0.00527696 0.00358989
0 -0.0154764 0.00527696 0.00364517
0 0.0155053 0.00524155 0.00358993
0 -0.0155053 0.00524155 0.00364515
2.11758e-22 0.0163532 0.0011213 0.00358577
6.35275e-22 -0.0163537 0.00112142 0.00364462
2.71051e-20 0.0158756 0.0041209 0.0035838
0 -0.0158756 0.00412091 0.00364605
0 0.0163769 0.00112769 0.00358557
1.48231e-21 -0.0163768 0.00112766 0.00364461
0 -0.0156933 0.00495313 0.00364495
0 0.0156933 0.00495313 0.00358934
-4.23516e-22 0.0164702 3.17491e-06 0.00358665
0 -0.0164637 2.59852e-06 0.00364475
-2.25875e-21 0.0163214 0.00227444 0.00358078
-1.12938e-21 -0.0163214 0.00227444 0.00364717
-1.12938e-22 -0.0162376 0.0030774 0.00364737
-6.77626e-22 0.0162376 0.0030774 0.00358033
-2.71051e-20 0.0159046 0.00473208 0.00358671
-2.71051e-20 -0.0159046 0.00473208 0.00364497
5.42101e-20 0.0157801 0.0052058 0.00358633
-2.71051e-20 -0.0157801 0.00520581 0.00364571
-1.12938e-21 0.0162469 0.00372972 0.00358095
-5.64689e-22 -0.0162469 0.00372972 0.00364578
0 -0.0157746 0.00549809 0.0036449
0 0.0157746 0.00549809 0.00359028
0 -0.0158015 0.00547415 0.00364488
6.77626e-21 0.0158015 0.00547415 0.00359032
0 0.015805 0.00552064 0.00359114
0 -0.015805 0.00552065 0.00364472
6.77626e-21 0.0158347 0.00554269 0.00359172
6.77626e-21 -0.0158347 0.00554271 0.00364457
0 0.015853 0.00551418 0.00359166
6.77626e-21 -0.015853 0.00551419 0.00364457
6.77626e-22 -0.0161981 0.00441892 0.00364545
-3.38813e-22 0.0161981 0.00441892 0.00358396
2.71051e-20 0.0166697 0.00284041 0.00356767
-5.42101e-20 -0.0166697 0.00284042 0.0036526
0 -0.0161695 0.00510699 0.00364467
2.25875e-22 0.0161695 0.00510699 0.00358948
0 0.0166597 0.00328607 0.00357543
0 -0.0166597 0.00328607 0.00364656
-2.71051e-20 0.0165248 0.00409519 0.00357974
0 -0.0165248 0.00409519 0.00364534
0 0.0161207 0.00547662 0.00359535
0 -0.0161207 0.00547663 0.0036437
5.42101e-20 -0.0170334 0.000576917 0.00364468
1.0842e-19 0.0170334 0.000576922 0.00358178
0 -0.0168874 0.00239019 0.00364528
1.48231e-21 0.0168876 0.00239023 0.00356985
0 -0.0169716 0.00176737 0.0036442
5.42101e-20 0.0169716 0.00176737 0.00357715
-2.11758e-22 -0.0169179 0.00239498 0.00364519
0 0.0169179 0.00239499 0.00356927
1.27055e-21 0.0169438 0.00239539 0.00356911
-2.5411e-21 -0.016944 0.00239538 0.00364512
0 0.0168719 0.00305894 0.00356868
1.35525e-20 -0.0168719 0.00305894 0.00364291
0 -0.0161674 0.00578952 0.00364377
0 0.0161674 0.00578953 0.00359621
0 0.0165034 0.00475626 0.00358589
2.71051e-20 -0.0165034 0.00475626 0.00364541
0 -0.0161836 0.0057701 0.00364377
0 0.0161836 0.00577012 0.0035962
6.77626e-21 -0.0161897 0.00580604 0.00364381
0 0.0161897 0.00580604 0.0035963
0 0.0162121 0.00582274 0.00359602
0 -0.0162122 0.00582275 0.0036438
0 0.0162243 0.00580495 0.00359603
6.77626e-21 -0.0162243 0.00580495 0.0036438
3.38813e-22 -0.0168523 0.00374134 0.00364222
-9.03502e-22 0.0168523 0.00374134 0.00357393
-4.23516e-22 0.0163973 0.00553969 0.00359521
0 -0.0163973 0.00553969 0.00364374
0 -0.0170978 0.00283719 0.0036393
2.71051e-20 0.0170978 0.00283719 0.00356454
0 -0.0170665 0.00327483 0.00363415
5.42101e-20 0.0170665 0.00327483 0.00356751
5.42101e-20 0.0165625 0.00532761 0.00359238
0 -0.0165626 0.0053276 0.00364378
2.82344e-22 0.0168336 0.0044175 0.00358
0 -0.0168336 0.00441751 0.00364444
0 0.0164976 0.00578806 0.00359694
2.71051e-20 -0.0164976 0.00578806 0.00364379
-2.25875e-22 0.0168265 0.00507001 0.00359015
-1.12938e-22 -0.0168265 0.00507001 0.00364421
0 0.0176289 1.51906e-05 0.00357652
3.38813e-21 -0.0176289 1.51556e-05 0.00364469
0 0.0176298 -8.15706e-23 0.00357652
0 -0.0176298 -8.11123e-23 0.00364469
-2.82344e-22 -0.0176062 0.00116021 0.00364466
-5.64689e-22 0.0176062 0.00116021 0.00357354
0 -0.0176451 -1.76813e-23 0.00364469
0 0.0176451 -1.755e-23 0.00357638
0 0.0171749 0.00405965 0.00357099
0 -0.0171749 0.00405966 0.00364218
0 -0.0176602 1.54426e-05 0.00364469
0 0.0176603 1.54779e-05 0.00357624
3.38813e-21 -0.0176607 -1.98489e-23 0.00364469
0 0.0176607 -1.97287e-23 0.00357624
6.77626e-21 0.0165809 0.00609703 0.00360544
0 -0.0165809 0.00609703 0.00364395
0 0.0165981 0.00608064 0.00360554
6.77626e-21 -0.0165981 0.00608064 0.00364395
0 -0.016605 0.00611494 0.00364389
0 0.016605 0.00611495 0.0036069
0 -0.0166198 0.0061272 0.00364349
0 0.0166198 0.00612721 0.00360755
0 -0.0166291 0.00611137 0.00364351
0 0.0166291 0.00611138 0.00360752
2.25875e-21 0.0175901 0.00236117 0.00356539
-1.12938e-21 -0.0175901 0.00236117 0.00364333
0 -0.0166534 0.00615457 0.00364378
0 0.0166534 0.00615459 0.0036083
-7.52918e-22 -0.0168284 0.00572854 0.00364389
0 0.0168284 0.00572853 0.00360274
1.41172e-22 0.0175166 0.00305113 0.00356245
0 -0.0175166 0.00305113 0.00363906
2.71051e-20 0.0171428 0.00473441 0.00358301
2.71051e-20 -0.0171428 0.00473441 0.0036447
0 0.017534 0.00360681 0.00356494
-1.12938e-21 -0.017534 0.00360681 0.00364128
0 0.0171172 0.00539736 0.00359767
-5.42101e-20 -0.0171172 0.00539736 0.00364297
1.12938e-22 -0.01747 0.00438795 0.00364372
-5.64689e-23 0.01747 0.00438795 0.00357351
6.77626e-21 -0.0168947 0.00636213 0.00364777
1.35525e-20 0.0168947 0.00636213 0.00361369
1.41172e-22 -0.0170243 0.00618637 0.0036484
5.64689e-22 0.017024 0.00618835 0.00361345
5.64689e-22 0.0174372 0.00507024 0.0035896
-2.82344e-22 -0.0174372 0.00507024 0.0036437
1.0842e-19 -0.0182236 0.000583086 0.00364471
-1.0842e-19 0.0182236 0.000583084 0.00357092
0 0.0177925 0.00405319 0.00356313
0 -0.0177925 0.00405319 0.00364406
-5.42101e-20 -0.018201 0.00177192 0.00364503
0 0.018201 0.00177192 0.00356415
-2.25875e-22 -0.0173656 0.00581376 0.00364315
1.58113e-21 0.0173656 0.00581376 0.00361302
0 0.0171242 0.00658581 0.00363024
0 -0.0171242 0.00658582 0.00364342
0 0.0177701 0.0047233 0.00357766
0 -0.0177701 0.0047233 0.00364419
6.77626e-21 0.0171594 0.0066222 0.00363197
-6.77626e-21 -0.0171594 0.0066222 0.00364316
0 0.0171745 0.00660974 0.00363206
0 -0.0171745 0.00660974 0.00364318
-6.77626e-21 0.0171745 0.00663768 0.00363324
0 -0.0171745 0.00663768 0.00364339
0 0.0181606 0.00305643 0.00355585
-5.42101e-20 -0.0181606 0.00305643 0.00364656
0 -0.01719 0.00665349 0.0036427
0 0.01719 0.00665349 0.00363415
0 -0.0172014 0.00663722 0.00364275
0 0.0172014 0.00663722 0.0036341
-6.77626e-21 -0.017284 0.00651867 0.00364338
-3.38813e-21 0.017284 0.00651867 0.00363162
6.77626e-21 -0.0172277 0.00669185 0.0036432
0 0.0172277 0.00669185 0.00363511
-2.82344e-22 -0.0181264 0.00381063 0.00364501
0 0.0181264 0.00381066 0.00356057
0 -0.0177303 0.00540333 0.00364285
2.71051e-20 0.0177303 0.00540333 0.00359958
-4.51751e-21 -0.0174485 0.00633775 0.00364333
0 0.0174485 0.00633776 0.00363019
0 0.0181015 0.00437909 0.003568
0 -0.0181015 0.00437909 0.0036452
0 0.0177286 0.00604036 0.00362708
-2.71051e-20 -0.0177286 0.00604036 0.00364063
-5.64689e-22 0.018075 0.00504761 0.00358532
0 -0.018075 0.00504762 0.00364493
-6.77626e-21 -0.0174666 0.00693495 0.00364753
-6.77626e-21 0.0174666 0.00693496 0.00364337
-3.38813e-21 0.0188065 1.62831e-05 0.00356779
0 -0.0188065 1.62567e-05 0.00364509
0 0.0188069 2.04227e-24 0.00356779
0 -0.0188069 2.03255e-24 0.00364509
0 -0.0188233 -2.45897e-25 0.0036451
3.38813e-21 0.0188233 -2.46332e-25 0.00356771
0 -0.0188395 1.62122e-05 0.00364511
-3.38813e-21 0.0188396 1.62383e-05 0.00356761
0 -0.0188397 -2.40682e-25 0.00364511
0 0.0188397 -2.41103e-25 0.00356761
5.64689e-22 -0.0188091 0.00116454 0.00364515
-1.12938e-21 0.0188091 0.00116454 0.00356499
2.71051e-20 0.0184387 0.00403102 0.00355911
-2.71051e-20 -0.0184387 0.00403102 0.00364497
-7.05861e-23 -0.0176205 0.00677795 0.00364869
0 0.0176205 0.00677795 0.00364352
0 -0.0180488 0.00571123 0.00364284
-5.64689e-22 0.0180488 0.00571123 0.00361151
0 -0.018794 0.00239227 0.00364538
-8.47033e-22 0.018794 0.00239227 0.00355903
-2.71051e-20 0.0184023 0.0046998 0.00357206
5.42101e-20 -0.0184023 0.0046998 0.00364755
-4.51751e-21 -0.0179596 0.00643086 0.00364256
3.76459e-22 0.0179596 0.00643086 0.0036402
0 0.0177052 0.00717767 0.0036557
0 -0.0177052 0.00717767 0.00364338
0 -0.0177437 0.00721689 0.00364327
-6.77626e-21 0.0177437 0.0072169 0.00365703
0 0.0184015 0.00534889 0.0035923
2.71051e-20 -0.0184015 0.00534889 0.00364505
0 -0.0177602 0.00720499 0.0036433
0 0.0177602 0.00720499 0.00365714
0 -0.0177596 0.00723308 0.00364357
0 0.0177596 0.00723309 0.00365817
0 -0.0177751 0.00724885 0.00364274
0 0.0177751 0.00724886 0.00365867
1.41172e-22 -0.0188307 0.00372997 0.00364546
-1.41172e-22 0.0188307 0.00373003 0.00355951
-6.77626e-21 -0.017788 0.00723288 0.00364281
-6.77626e-21 0.017788 0.00723289 0.00365866
4.23516e-22 -0.018738 0.00435322 0.0036461
4.23516e-22 0.018738 0.00435322 0.00356537
4.23516e-22 -0.0187376 0.00436113 0.00364613
-1.56701e-20 0.0187376 0.00436113 0.00356544
6.77626e-21 -0.0178113 0.00728564 0.00364357
6.77626e-21 0.0178113 0.00728566 0.00365867
-6.77626e-21 -0.0178794 0.00711713 0.00364354
-6.77626e-21 0.0178794 0.00711713 0.00365663
2.71051e-20 -0.0183488 0.00603424 0.00364282
0 0.0183488 0.00603424 0.00362614
-6.02335e-21 -0.0180548 0.00694831 0.00364347
-3.01167e-21 0.0180548 0.00694832 0.00365565
0 -0.0194128 0.000584032 0.00364549
-5.42101e-20 0.0194128 0.000584032 0.00356447
-5.64689e-22 -0.018803 0.00493677 0.00364568
-2.82344e-22 0.018803 0.00493677 0.00358167
0 -0.0194073 0.00177875 0.00364537
-5.42101e-20 0.0194073 0.00177875 0.00356027
0 -0.0183455 0.00666212 0.00364002
0 0.0183455 0.00666212 0.00365466
5.64689e-22 -0.0186965 0.00568331 0.0036441
0 0.0186965 0.00568331 0.00360588
2.71051e-20 -0.0180387 0.00751698 0.00364994
-6.77626e-21 0.0180387 0.00751699 0.00366088
1.0842e-19 -0.0194176 0.0030161 0.00364459
5.42101e-20 0.0194176 0.0030161 0.00355565
0 -0.0182201 0.0073749 0.0036505
-3.76459e-22 0.0182201 0.0073749 0.00366157
0 -0.0186655 0.00633955 0.00364197
1.12938e-21 0.0186655 0.00633956 0.00363384
-2.71051e-20 -0.0190338 0.00534623 0.00364437
2.71051e-20 0.0190338 0.00534623 0.00359086
-2.25875e-22 -0.0185755 0.00702539 0.00364255
-3.83988e-21 0.0185755 0.00702539 0.00365711
0 0.0193824 0.00433462 0.00356559
-1.0842e-19 -0.0193824 0.00433462 0.00364587
3.38813e-21 0.0182812 0.00776357 0.00366742
3.38813e-21 -0.0182812 0.00776356 0.00364195
-3.38813e-21 -0.0182994 0.00778211 0.00364185
0 0.0182994 0.00778212 0.00366761
0 -0.0183082 0.00777648 0.00364185
-3.38813e-21 0.0183082 0.00777649 0.00366764
0 -0.018307 0.00778982 0.00364193
3.38813e-21 0.018307 0.00778983 0.00366797
-3.38813e-21 -0.0183179 0.00780093 0.00364182
0 0.0183179 0.00780095 0.00366763
-3.38813e-21 -0.0183258 0.0077918 0.00364182
0 0.0183258 0.00779181 0.00366767
2.71051e-20 -0.0190082 0.00599365 0.00364403
5.42101e-20 0.0190082 0.00599365 0.00361496
-3.38813e-21 -0.0184198 0.00771698 0.00364202
1.69407e-21 0.0184198 0.00771698 0.00366658
3.38813e-21 0.019989 1.55635e-05 0.00356289
3.38813e-21 -0.019989 1.55422e-05 0.00364592
0 0.019989 -4.65978e-27 0.00356289
3.38813e-21 -0.0199891 -4.64763e-27 0.00364592
1.8823e-22 0.0193663 0.00500042 0.0035748
0 -0.0193663 0.00500042 0.00364646
0 -0.0200048 3.44828e-28 0.00364593
-3.38813e-21 0.0200048 3.45399e-28 0.00356285
3.38813e-21 -0.0200207 3.36065e-28 0.00364595
0 0.0200207 3.36623e-28 0.00356281
0 -0.0200208 1.54682e-05 0.00364595
0 0.0200208 1.54894e-05 0.00356281
-8.47033e-22 -0.0200101 0.0011652 0.00364587
0 0.0200101 0.0011652 0.00356147
2.71051e-20 -0.0189752 0.00665313 0.003641
0 0.0189752 0.00665313 0.00363915
-1.69407e-21 -0.0184855 0.00797139 0.00364138