# UMean  POINT_DATA 65629
# x  y  z  UMean_x  UMean_y  UMean_z
1.48044e-06 6.57609e-23 0.049924 6.71427e-08 2.50537e-08 -2.20866e-10
-0.000623753 0 0.0499247 3.47081e-05 1.32528e-05 -5.79993e-08
0.000625861 -2.11758e-22 0.0499247 3.37655e-05 1.16712e-05 -3.42159e-07
-0.00124749 0 0.0499254 7.04637e-05 2.76313e-05 8.01494e-09
0.00125175 0 0.0499254 7.02156e-05 2.41171e-05 -7.38588e-07
-0.0018712 4.23516e-22 0.0499261 0.000107329 4.31561e-05 2.25456e-07
0.00187767 -4.23516e-22 0.0499261 0.00010651 3.63145e-05 -1.15618e-06
-0.00249489 0 0.0499268 0.000145223 5.97803e-05 6.49144e-07
0.0025036 0 0.0499268 0.000143361 4.84346e-05 -1.58318e-06
-0.00311857 0 0.0499276 0.000184569 7.78197e-05 1.36381e-06
0.00312954 8.47033e-22 0.0499276 0.000180789 6.05108e-05 -2.01072e-06
0.00374223 0 0.0499283 0.000267639 8.91824e-05 -3.02747e-06
-0.00374223 8.47033e-22 0.0499283 0.000274434 0.00011714 2.50651e-06
0.00374886 8.47033e-22 0.049924 0 0 0
-0.00374886 0 0.049924 0 0 0
-0.00375553 8.47033e-22 0.0499283 0.000251295 0.00011087 3.24494e-06
0.00375553 0 0.0499283 0.000241768 8.03611e-05 -2.70636e-06
0.00436582 0 0.0499291 0.000317173 0.000105425 -3.55045e-06
-0.00436582 0 0.0499291 0.00032967 0.000145448 4.25699e-06
0.00437368 1.69407e-21 0.049924 0 0 0
-0.00437368 0 0.049924 0 0 0
-0.00438158 0 0.0499291 0.000301662 0.000138564 5.35427e-06
0.00438158 -8.47033e-22 0.0499291 0.000286066 9.57049e-05 -3.44682e-06
0.000312415 -2.71051e-20 0.0501277 0.0161021 0.00576321 -0.000110723
-0.000312416 0 0.0501277 0.0161402 0.00587452 -9.87233e-05
0.000937254 0 0.0501276 0.0160789 0.00569067 -0.000131128
-0.000937254 2.71051e-20 0.0501276 0.0161621 0.00601148 -7.44024e-05
-0.00156209 2.71051e-20 0.0501275 0.0161949 0.00615168 -5.7902e-05
0.00156209 0 0.0501275 0.0160563 0.00562417 -0.000138744
0.00498933 0 0.0499299 0.000368524 0.000123292 -4.44037e-06
-0.00498933 1.69407e-21 0.0499299 0.000388617 0.000178505 6.89764e-06
-0.00499848 0 0.049924 0 0 0
0.00499848 0 0.049924 0 0 0
-0.00500769 0 0.0499299 0.000355398 0.000168984 7.7891e-06
0.00500769 0 0.0499299 0.000331687 0.000111474 -4.08925e-06
0.00218693 2.71051e-20 0.0501274 0.0160581 0.00555741 -0.000152965
-0.00218693 5.42101e-20 0.0501274 0.016233 0.00628666 -2.70169e-05
-0.00281176 0 0.0501273 0.0163148 0.00643875 -1.30501e-07
0.00281176 2.71051e-20 0.0501273 0.016061 0.00548572 -0.000153666
0.00561272 0 0.049924 0 0 0
-0.00561272 -1.69407e-21 0.049924 0 0 0
0.00562327 0 0.049924 0 0 0
-0.00562327 0 0.049924 0 0 0
-0.00563387 -1.69407e-21 0.049924 0 0 0
0.00563387 1.69407e-21 0.049924 0 0 0
-0.0034366 0 0.0501271 0.0164264 0.00662093 4.47346e-05
0.0034366 -2.71051e-20 0.0501271 0.0160722 0.00542216 -0.000163116
-0.0056128 0 0.0499307 0.000578292 0.000274966 1.26742e-05
0.0056128 0 0.0499307 0.000539708 0.000181386 -6.65386e-06
-0.00563381 0 0.0499307 0.000588213 0.000287953 1.57636e-05
0.00563381 0 0.0499307 0.000540434 0.000181699 -7.17467e-06
-0.00406145 2.71051e-20 0.0501268 0.0165799 0.0068749 8.98607e-05
0.00406145 -2.71051e-20 0.0501268 0.0160643 0.00538163 -0.000163491
0.00623615 0 0.049924 0 0 0
-0.00623615 0 0.049924 0 0 0
-0.00624806 1.69407e-21 0.049924 0 0 0
0.00624806 1.69407e-21 0.049924 0 0 0
-0.00626002 0 0.049924 0 0 0
0.00626002 -1.69407e-21 0.049924 0 0 0
-0.00623625 0 0.0499315 0.000660169 0.000323178 1.7692e-05
0.00623625 0 0.0499315 0.000606551 0.000203928 -8.05242e-06
-0.00625994 -1.69407e-21 0.0499315 0.000674627 0.000338419 2.12404e-05
0.00625994 -1.69407e-21 0.0499315 0.000608243 0.000204059 -8.19865e-06
-9.84215e-10 3.61836e-20 0.0503315 0.0347153 0.0135858 0.00031554
-0.000624243 0 0.050332 0.0348736 0.0137911 0.000385388
0.000625556 1.53525e-20 0.050332 0.0345628 0.0134036 0.000249089
0.00468628 0 0.0501264 0.0160401 0.00537128 -0.000175276
-0.00468628 2.71051e-20 0.0501264 0.0167227 0.00717666 0.00014994
-0.00124847 0 0.0503324 0.0350372 0.0140049 0.000459011
0.00124847 -2.28699e-20 0.0503324 0.0344235 0.0132415 0.000186049
-0.00187668 -4.23516e-21 0.0503327 0.0352184 0.0142185 0.000537275
0.00187268 -1.2282e-20 0.0503327 0.0342989 0.0130853 0.00012706
-0.00250225 4.06576e-20 0.050333 0.0354328 0.0144406 0.00062216
0.00249688 3.04932e-20 0.050333 0.0341964 0.0129326 7.30204e-05
0.00685954 0 0.049924 0 0 0
-0.00685954 0 0.049924 0 0 0
-0.00687284 -1.69407e-21 0.049924 0 0 0
0.00687284 0 0.049924 0 0 0
-0.00688622 0 0.049924 0 0 0
0.00688622 1.69407e-21 0.049924 0 0 0
-0.00685965 -1.69407e-21 0.0499324 0.000750191 0.000376325 2.36196e-05
0.00685965 0 0.0499324 0.000676371 0.000226915 -9.11696e-06
-0.00688613 -1.69407e-21 0.0499324 0.000770957 0.000394811 2.9008e-05
0.00688613 -1.69407e-21 0.0499324 0.000680355 0.000227138 -9.84226e-06
0.00531111 -5.42101e-20 0.0501258 0.015993 0.0053477 -0.000177088
-0.00531111 -2.71051e-20 0.0501258 0.0168646 0.00746409 0.000202718
-0.00312104 4.23516e-22 0.0503286 0.0354667 0.01459 0.000704707
0.00312104 0 0.0503286 0.0339087 0.0127043 2.2279e-05
-0.00312783 -4.23516e-22 0.0503332 0.0357447 0.0147083 0.000717176
0.00312109 2.75286e-20 0.0503332 0.0341599 0.0128049 2.29609e-05
0.00374526 0 0.0503278 0.0337836 0.0125525 -2.55218e-05
-0.00374526 8.47033e-22 0.0503278 0.0357074 0.0148495 0.000802537
0.00374533 5.0822e-21 0.0503334 0.0340848 0.0126725 -2.53051e-05
-0.00374533 0 0.0503334 0.0360454 0.0149933 0.000818558
0.00593591 0 0.0501252 0.0159636 0.00531386 -0.000188806
-0.00593591 0 0.0501252 0.0170258 0.00774232 0.000270601
0.00748281 -1.69407e-21 0.049924 0 0 0
-0.00748281 0 0.049924 0 0 0
-0.00749765 0 0.049924 0 0 0
0.00749765 -1.69407e-21 0.049924 0 0 0
-0.00751258 1.69407e-21 0.0499239 0 0 0
0.00751258 0 0.0499239 0 0 0
-0.00748294 0 0.0499333 0.000855182 0.000437943 3.21771e-05
0.00748294 -1.69407e-21 0.0499333 0.000754681 0.000251953 -1.09175e-05
-0.00751247 -1.69407e-21 0.0499332 0.000875469 0.000458754 3.98683e-05
0.00751247 0 0.0499332 0.000756159 0.000252089 -1.29069e-05
0.00436948 0 0.0503269 0.0336492 0.01242 -7.22446e-05
-0.00436948 8.47033e-22 0.0503269 0.0359667 0.0151476 0.000906217
0.00436958 2.4564e-20 0.0503334 0.0340001 0.0125589 -7.2893e-05
-0.00437905 0 0.0503334 0.0363651 0.0153164 0.00092621
0.00656072 0 0.0501246 0.0159472 0.00527604 -0.000188961
-0.00656072 -2.71051e-20 0.0501246 0.0172562 0.00803993 0.000339837
0.000312474 -2.71051e-20 0.0505592 0.0535999 0.0213915 0.000691796
-0.000312474 0 0.0505592 0.0538906 0.0216779 0.000799543
-0.000937423 2.71051e-20 0.0505591 0.0541748 0.0219665 0.000936762
0.000937423 5.42101e-20 0.0505591 0.0533387 0.0211301 0.000564107
-0.00499923 -2.82344e-22 0.0503295 0.0365935 0.0156063 0.00103195
0.00499923 0 0.0503295 0.0338152 0.0124189 -0.000118948
0.0081058 0 0.049924 0 0 0
-0.0081058 0 0.049924 0 0 0
0.00812243 0 0.0499239 0 0 0
-0.00812243 0 0.0499239 0 0 0
-0.00813919 0 0.0499236 0 0 0
0.00813919 -3.38813e-21 0.0499236 0 0 0
-0.00156235 0 0.0505589 0.0544961 0.0222589 0.00105525
0.00156235 2.71051e-20 0.0505589 0.0530788 0.0208761 0.000465648
-0.00810604 0 0.0499343 0.000974787 0.000510798 4.43912e-05
0.00810604 0 0.0499343 0.000841946 0.000280689 -1.43711e-05
-0.00813897 0 0.0499341 0.000988554 0.000528639 5.31222e-05
0.00813897 0 0.0499341 0.000836561 0.000278125 -1.79678e-05
0.00218727 -2.71051e-20 0.0505586 0.0528608 0.0206364 0.000348177
-0.00218727 5.42101e-20 0.0505586 0.0548386 0.0225509 0.00120459
-0.00718552 -2.71051e-20 0.0501238 0.0175687 0.00838487 0.000436406
0.00718552 -2.71051e-20 0.0501238 0.0159588 0.00524446 -0.000200676
0.0028122 0 0.0505583 0.0526571 0.0203994 0.00026255
-0.0028122 0 0.0505583 0.0552374 0.0228621 0.00133903
-0.00562411 2.82344e-22 0.0503286 0.0369299 0.0159249 0.00114597
0.00562411 -2.82344e-22 0.0503286 0.0337057 0.0123036 -0.000163446
0.00343715 -2.71051e-20 0.0505579 0.0524836 0.0201723 0.000155804
-0.00343715 5.42101e-20 0.0505579 0.0556627 0.0231902 0.00150434
0.00872861 0 0.0499238 0 0 0
-0.00872861 0 0.0499238 0 0 0
0.00874717 0 0.0499235 0 0 0
-0.00874717 3.38813e-21 0.0499235 0 0 0
-0.00876588 0 0.0499233 0 0 0
0.00876588 0 0.0499233 0 0 0
-0.00872902 0 0.0499353 0.00109472 0.000585412 5.88272e-05
0.00872902 0 0.0499353 0.000926406 0.000307995 -1.98975e-05
-0.00876549 0 0.0499349 0.00110806 0.000599842 6.71529e-05
0.0087655 0 0.0499349 0.000918543 0.000301819 -2.28257e-05
-0.00624897 1.41172e-22 0.0503277 0.0373143 0.0162493 0.00126796
0.00624897 -1.41172e-22 0.0503277 0.0336114 0.0121855 -0.000205938
0.00406216 -2.71051e-20 0.0505573 0.0523092 0.0199545 7.80998e-05
-0.00406216 -5.42101e-20 0.0505573 0.0561317 0.0235481 0.00165359
-0.00781068 0 0.050122 0.0178743 0.00878992 0.000555306
0.00781068 0 0.050122 0.0159336 0.00523576 -0.000222155
0.00468717 -2.71051e-20 0.0505565 0.0521393 0.0197526 -2.30272e-05
-0.00468717 -2.71051e-20 0.0505565 0.0566086 0.0239118 0.0018285
-3.78386e-10 -2.58494e-26 0.0507876 0.0739903 0.0280935 0.00135057
-0.00062522 2.64698e-23 0.0507877 0.0743527 0.0283644 0.00150325
0.00062522 2.48287e-20 0.0507877 0.0736388 0.027831 0.00120234
0.00935138 0 0.0499235 0 0 0
-0.00935138 0 0.0499235 0 0 0
-0.00687386 -1.41172e-22 0.0503267 0.0377603 0.0165966 0.00140226
0.00687386 7.05861e-22 0.0503267 0.0335357 0.0120693 -0.000247262
0.00937186 0 0.0499232 0 0 0
-0.00937186 3.38813e-21 0.0499232 0 0 0
-0.00939252 0 0.0499229 0 0 0
0.00939252 0 0.0499229 0 0 0
-0.0012495 0 0.0507871 0.074733 0.0286381 0.00166109
0.0012495 -8.52327e-21 0.0507878 0.0733045 0.0275794 0.00105913
-0.009352 0 0.0499362 0.00121239 0.000656316 7.34751e-05
0.009352 0 0.0499362 0.00100502 0.000330234 -2.49747e-05
-0.00939192 3.38813e-21 0.0499358 0.00122927 0.000669455 8.30712e-05
0.00939192 -3.38813e-21 0.0499358 0.00100011 0.000322376 -2.82727e-05
-0.0018756 2.51992e-20 0.0507867 0.0751374 0.0289117 0.00182409
0.00187424 -2.4564e-20 0.0507867 0.0729896 0.0273341 0.000920479
0.00843564 2.71051e-20 0.0501187 0.0158455 0.00521233 -0.000264247
-0.00843563 0 0.0501187 0.0180986 0.00915848 0.000684464
0.00531212 0 0.0505554 0.0519522 0.0195493 -9.43339e-05
-0.00531212 2.71051e-20 0.0505554 0.0571237 0.0242722 0.00198319
-0.00250077 0 0.0507877 0.0755737 0.0291908 0.00199419
0.00249899 -5.39984e-21 0.0507878 0.0727014 0.0270951 0.000787713
-0.00749889 -5.64689e-22 0.0503253 0.0382404 0.016977 0.0015576
0.00749889 5.64689e-22 0.0503253 0.0334643 0.0119648 -0.000295595
-0.00312596 -2.11758e-22 0.0507859 0.076044 0.0294822 0.00217116
0.00312374 -1.67289e-20 0.0507859 0.072435 0.026861 0.000659446
-0.00593703 0 0.0505542 0.0576745 0.0246305 0.00216634
0.00593703 -2.71051e-20 0.0505542 0.0517893 0.0193514 -0.000188649
0.00997412 0 0.049923 0 0 0
-0.00997412 0 0.049923 0 0 0
-0.00999652 3.38813e-21 0.0499227 0 0 0
0.00999652 3.38813e-21 0.0499227 0 0 0
-0.0100191 0 0.0499224 0 0 0
0.0100191 3.38813e-21 0.0499224 0 0 0
-0.00997499 3.38813e-21 0.0499369 0.00133273 0.000725801 9.00631e-05
0.00997499 0 0.0499369 0.00108429 0.00034951 -3.06524e-05
0.00374857 -1.07997e-20 0.0507854 0.0721823 0.0266323 0.000534796
-0.00374857 0 0.0507854 0.0765429 0.0297886 0.0023549
0.00906035 0 0.0501147 0.0157396 0.00514883 -0.000292497
-0.00906035 -2.71051e-20 0.0501147 0.0183106 0.00946777 0.000798938
-0.0100183 3.38813e-21 0.0499364 0.00135552 0.00073913 0.000100117
0.0100183 3.38813e-21 0.0499364 0.00108152 0.00034041 -3.30543e-05
0.0043735 2.11758e-22 0.050787 0.0719407 0.0264133 0.000412782
-0.00437632 0 0.0507847 0.0770706 0.0301079 0.00254357
-0.00812397 -2.82344e-22 0.0503229 0.0386987 0.0173589 0.00172721
0.00812397 2.82344e-22 0.0503229 0.0333625 0.0118658 -0.00035448
-0.00656193 2.71051e-20 0.0505529 0.0582944 0.0250049 0.00233655
0.00656193 2.71051e-20 0.0505529 0.0516328 0.0191521 -0.00025362
0.00499842 -1.18585e-20 0.050784 0.0717019 0.0262003 0.000293923
-0.00500138 2.11758e-22 0.0507863 0.0776212 0.0304278 0.00273573
0.0105968 -3.38813e-21 0.0499225 0 0 0
-0.0105968 3.38813e-21 0.0499225 0 0 0
0.00968504 5.42101e-20 0.0501107 0.0156724 0.00507002 -0.000326584
-0.00968503 0 0.0501107 0.0185457 0.00974367 0.000923256
0.0106212 -3.38813e-21 0.0499222 0 0 0
-0.0106212 0 0.0499222 0 0 0
-0.0106459 0 0.0499218 0 0 0
0.0106459 3.38813e-21 0.0499218 0 0 0
-0.0105979 -3.38813e-21 0.0499376 0.00146225 0.00079733 0.000108
0.0105979 0 0.0499376 0.00116668 0.000367214 -3.5657e-05
0.000312515 0 0.0510505 0.0947238 0.0347549 0.00190532
-0.000312515 -2.71051e-20 0.0510505 0.095166 0.0350096 0.00204809
0.000937516 -5.42101e-20 0.0510504 0.0943108 0.0345091 0.00168862
-0.000937516 -2.71051e-20 0.0510504 0.0956054 0.0352632 0.00227308
-0.0106448 0 0.0499371 0.00148844 0.000809296 0.000119496
0.0106448 3.38813e-21 0.0499371 0.00116592 0.000355461 -3.89446e-05
-0.00718694 2.71051e-20 0.0505514 0.0589427 0.025389 0.00254053
0.00718694 -2.71051e-20 0.0505514 0.0515051 0.0189596 -0.000343298
-0.00156252 -2.71051e-20 0.0510502 0.0960838 0.0355213 0.00242564
0.00156252 0 0.0510502 0.0938976 0.0342623 0.00155652
0.00874889 -2.82344e-22 0.0503198 0.0332369 0.011753 -0.000414896
-0.00874889 -8.47033e-22 0.0503198 0.0391378 0.0177051 0.00189664
0.00562337 0 0.0507855 0.07147 0.0259882 0.00017836
-0.00562335 -2.11758e-22 0.0507831 0.0782035 0.0307446 0.00293153
-0.0021875 2.71051e-20 0.05105 0.0965649 0.0357727 0.0026592
0.0021875 0 0.05105 0.0935248 0.034022 0.00134793
-0.00281248 0 0.0510497 0.0970882 0.0360323 0.00282404
0.00281248 0 0.0510497 0.0931573 0.0337815 0.00122642
-0.00781203 2.71051e-20 0.0505494 0.0596023 0.0257793 0.00274459
0.00781204 2.71051e-20 0.0505494 0.0513568 0.0187709 -0.000415034
-0.0103097 0 0.0501065 0.0188494 0.0100096 0.00104537
0.0103097 0 0.0501065 0.0156263 0.00498057 -0.000345052
0.0034375 2.71051e-20 0.0510494 0.0928304 0.0335491 0.00102509
-0.0034375 -2.71051e-20 0.0510494 0.0976251 0.0362973 0.00306916
0.00624829 0 0.0507846 0.0712542 0.0257767 6.60147e-05
-0.00624826 -2.11758e-22 0.0507821 0.0788296 0.0310643 0.00313462
0.0112196 0 0.0499219 0 0 0
-0.0112196 3.38813e-21 0.0499219 0 0 0
0.0112461 0 0.0499215 0 0 0
-0.0112461 0 0.0499215 0 0 0
-0.0112729 0 0.0499208 0 0 0
0.0112729 0 0.0499208 0 0 0
0.00937369 5.64689e-22 0.0503164 0.0331208 0.0116238 -0.000471534
-0.00937369 5.64689e-22 0.0503164 0.0395946 0.0180192 0.0020653
-0.011221 0 0.0499383 0.00160028 0.000870104 0.000128474
0.011221 -3.38813e-21 0.0499383 0.00125352 0.00038217 -4.18709e-05
-0.0112717 0 0.0499376 0.00162357 0.000880738 0.000139212
0.0112717 -3.38813e-21 0.0499376 0.00125131 0.000364747 -4.72391e-05
0.00406254 -5.42101e-20 0.051049 0.0924965 0.0333136 0.000910175
-0.00406254 -5.42101e-20 0.051049 0.0982012 0.0365726 0.00324676
0.00687321 -1.77877e-20 0.050781 0.0710544 0.0255666 -4.46621e-05
-0.00687642 -2.11758e-22 0.050781 0.0794922 0.0313892 0.00334716
-0.0084371 2.71051e-20 0.0505468 0.060242 0.0261408 0.00297312
0.0084371 -2.71051e-20 0.0505468 0.0511977 0.018588 -0.000516711
-0.00468758 0 0.0510484 0.0987868 0.0368486 0.00350144
0.00468758 2.71051e-20 0.0510484 0.0921959 0.0330897 0.000713476
0.0109344 -2.71051e-20 0.050102 0.0156057 0.00487349 -0.000375311
-0.0109344 -2.71051e-20 0.050102 0.0192038 0.0102641 0.00119087
0.0118408 3.38813e-21 0.0499059 0 0 0
-0.0118408 0 0.0499059 0 0 0
0.00999845 -2.82344e-22 0.0503128 0.0330276 0.0114858 -0.000524
-0.00999845 -2.82344e-22 0.0503128 0.0400908 0.0183162 0.00223792
0.0118708 0 0.0499051 0 0 0
-0.0118708 0 0.0499051 0 0 0
-0.0119011 -3.38813e-21 0.0499042 0 0 0
0.0119011 6.77626e-21 0.0499042 0 0 0
-0.0118427 0 0.0499246 0.00181333 0.000983675 0.000155482
0.0118427 -3.38813e-21 0.0499246 0.00139756 0.000407378 -5.27602e-05
-1.39477e-10 0 0.0513141 0.111527 0.0383789 0.00238295
-0.000625037 3.30872e-24 0.0513141 0.111955 0.0385977 0.00257958
0.000625037 3.80569e-20 0.0513141 0.11111 0.0381621 0.00218928
-0.0118997 -3.38813e-21 0.0499236 0.00184589 0.000999624 0.00016166
0.0118997 0 0.0499236 0.00139197 0.000387976 -5.71143e-05
-0.00531259 2.71051e-20 0.0510477 0.0994079 0.0371236 0.00368767
0.00531259 2.71051e-20 0.0510477 0.0918863 0.0328634 0.000604833
-0.00125006 0 0.051314 0.112394 0.0388151 0.00278128
0.00125 -2.36177e-20 0.051314 0.110706 0.0379478 0.00200056
0.00749826 3.13402e-20 0.0507797 0.0708626 0.0253602 -0.000157773
-0.00750152 2.11758e-22 0.0507797 0.0801742 0.0317174 0.00357475
-0.00187499 -2.64499e-20 0.0513139 0.11285 0.0390305 0.00298628
0.00187499 1.21165e-20 0.0513139 0.110319 0.0377347 0.0018144
-0.00906201 2.71051e-20 0.0505439 0.0608997 0.0264766 0.00318037
0.00906201 0 0.0505439 0.0510192 0.018393 -0.000587858
-0.00250005 0 0.0513138 0.113324 0.039246 0.00319796
0.00249999 0 0.0513138 0.109951 0.0375228 0.00163303
-0.00593757 -2.71051e-20 0.0510468 0.100049 0.0373936 0.00394881
0.00593757 2.71051e-20 0.0510468 0.0916086 0.0326398 0.000414512
-0.00312504 0 0.0513136 0.113815 0.0394634 0.00341415
0.00312504 -4.58258e-21 0.0513136 0.109603 0.0373133 0.00145396
0.0115601 0 0.050095 0.015511 0.00473126 -0.000436522
-0.0115601 0 0.050095 0.0194295 0.0104766 0.00134236
0.0106233 0 0.050309 0.0329531 0.0113379 -0.000573947
-0.0106233 -5.64689e-22 0.050309 0.040631 0.0186031 0.00242018
0.0124615 0 0.0498891 0 0 0
-0.0124615 0 0.0498891 0 0 0
0.0081266 -1.8423e-20 0.050778 0.0706638 0.0251567 -0.000274896
-0.00812657 0 0.0507805 0.0808612 0.0320383 0.00381268
0.0124952 0 0.0498882 0 0 0
-0.0124952 0 0.0498882 0 0 0
-0.00346964 0 0.0513135 0.114097 0.039585 0.0035373
0.00346967 0 0.0513135 0.10942 0.0371987 0.0013571
-0.0125295 -3.38813e-21 0.0498873 0 0 0
0.0125295 0 0.0498873 0 0 0
-0.0124637 -3.38813e-21 0.0499106 0.00205177 0.00111112 0.000179691
0.0124637 -3.38813e-21 0.0499106 0.00154722 0.000431248 -6.34845e-05
-0.00375005 -8.27181e-23 0.0513076 0.114257 0.0396659 0.00363518
0.00375006 -1.65436e-24 0.0513134 0.109204 0.0370864 0.00127696
-0.0125278 0 0.0499095 0.00210159 0.00112737 0.000185788
0.0125278 -3.38813e-21 0.0499095 0.00154816 0.000410417 -6.52991e-05
-0.00968685 2.71051e-20 0.0505408 0.0615825 0.0267954 0.00340997
0.00968685 -2.71051e-20 0.0505408 0.0508636 0.0181946 -0.00068234
0.00656256 -2.71051e-20 0.051046 0.0913258 0.0324095 0.000312352
-0.00656256 0 0.051046 0.100732 0.037664 0.00414838
-0.00437508 -3.97047e-23 0.0512871 0.112992 0.039423 0.0037997
0.00437508 0 0.0512871 0.10713 0.0363839 0.00107
0.00312502 6.61744e-24 0.0513812 0.112784 0.0378519 0.00153496
-0.00312502 0 0.0513812 0.116909 0.039922 0.00350857
-0.00437516 -7.63653e-21 0.051313 0.114854 0.0399058 0.00386477
0.00437516 0 0.051313 0.108954 0.0369006 0.0011041
-0.0050001 0 0.0512608 0.111681 0.0391702 0.00396317
0.0050001 0 0.0512608 0.105013 0.0356659 0.000870235
0.00250002 6.61744e-24 0.0514534 0.116547 0.0386249 0.00180547
-0.00250002 0 0.0514535 0.119778 0.040216 0.00339247
0.00874844 2.79521e-20 0.050776 0.0704606 0.0249526 -0.000390477
-0.00874844 0 0.050776 0.0815563 0.0323414 0.00405267
-0.00562508 2.64698e-23 0.0512318 0.110216 0.0388784 0.00411836
0.00562508 0 0.0512318 0.102741 0.0348977 0.000675486
0.00187502 -3.30872e-24 0.0515104 0.119541 0.0392627 0.00206079
-0.00187502 0 0.0515106 0.121931 0.0404207 0.0032561
0.0121849 2.71051e-20 0.0500854 0.0153173 0.00455103 -0.000489093
-0.0121849 -2.71051e-20 0.0500854 0.019599 0.0106328 0.00144059
0.0112484 2.82344e-22 0.0503042 0.0328643 0.0111717 -0.000639629
-0.0112484 -5.64689e-22 0.0503042 0.041148 0.0188684 0.00261627
0.00718759 0 0.0510449 0.0910802 0.0321869 0.000124049
-0.00718759 0 0.0510449 0.101425 0.0379295 0.00442674
-0.00500028 -4.39398e-21 0.0513129 0.115398 0.0401244 0.00409706
0.00499996 0 0.0513129 0.108649 0.0366988 0.000933225
0.0130819 0 0.0498724 0 0 0
-0.0130819 0 0.0498724 0 0 0
0.0131198 -6.77626e-21 0.0498714 0 0 0
-0.0131198 0 0.0498714 0 0 0
0.00125003 -3.30872e-24 0.0515605 0.122305 0.0398428 0.00231731
-0.00125003 3.30872e-24 0.051561 0.123889 0.0405957 0.00311791
-0.0131584 0 0.0498703 0 0 0
0.0131584 -6.77626e-21 0.0498703 0 0 0
-0.0103117 -2.71051e-20 0.0505375 0.0623126 0.0271078 0.00362589
0.0103117 2.71051e-20 0.0505375 0.0507224 0.0179928 -0.000746626
-0.0130844 0 0.0498969 0.00233013 0.00124997 0.000205992
0.0130844 -6.77626e-21 0.0498969 0.00171651 0.000455047 -7.24e-05
-0.00625005 2.11758e-22 0.0512046 0.108904 0.0386259 0.00428074
0.00625005 0 0.0512046 0.100609 0.0341612 0.000491789
0.000625016 -1.65436e-24 0.0515958 0.124274 0.0402926 0.0025555
-0.000625016 3.30872e-24 0.0515971 0.125105 0.0406703 0.00295841
-0.0131564 0 0.0498957 0.00240091 0.00127256 0.000214436
0.0131564 -6.77626e-21 0.0498957 0.00172845 0.000433822 -7.48308e-05
0.000312512 -2.71051e-20 0.0516082 0.12842 0.0418954 0.00277347
-0.000312512 0 0.0516082 0.128857 0.0420796 0.00283135
-0.000937538 2.71051e-20 0.0516081 0.129247 0.0422594 0.0031926
0.000937538 0 0.0516081 0.128046 0.0417141 0.00241469
-0.00562539 -2.09641e-20 0.051312 0.115964 0.0403391 0.00433134
0.00562485 0 0.051312 0.108356 0.0364972 0.000764911
-0.00156253 -2.71051e-20 0.0516081 0.129697 0.0424351 0.00326145
0.00156253 2.71051e-20 0.0516081 0.127628 0.0415326 0.00236642
0.00937347 0 0.0507762 0.0702634 0.0247435 -0.000501734
-0.00937642 2.11758e-22 0.0507738 0.082272 0.0326284 0.00429317
0.00781267 2.71051e-20 0.0510437 0.0908192 0.0319599 1.88793e-05
-0.00781267 0 0.0510437 0.102145 0.0381963 0.00465267
-0.00687505 5.29396e-23 0.0511805 0.107863 0.0384434 0.00445568
0.00687505 1.05879e-22 0.0511805 0.0987354 0.0334915 0.000317678
-0.00218755 0 0.051608 0.130106 0.0426087 0.0036273
0.00218755 0 0.051608 0.127281 0.0413499 0.00200963
0.0118736 0 0.0502978 0.0326975 0.0109734 -0.000713716
-0.0118736 2.82344e-22 0.0502978 0.0415827 0.0190879 0.00279423
-0.00281255 -2.71051e-20 0.0516078 0.13058 0.0427825 0.00371048
0.00281255 0 0.0516078 0.126893 0.0411663 0.00196985
0.0128095 -2.71051e-20 0.0500754 0.0151652 0.00435465 -0.000514733
-0.0128095 2.71051e-20 0.0500754 0.0198445 0.0107446 0.00152843
-0.0062505 2.00641e-20 0.0513114 0.116554 0.0405496 0.00457211
0.00624972 0 0.0513114 0.108076 0.0362938 0.000600327
0.0109367 2.71051e-20 0.0505339 0.0505964 0.0177828 -0.000834796
-0.0109367 -2.71051e-20 0.0505339 0.0630499 0.0274057 0.00387254
0.0137016 -6.77626e-21 0.0498556 0 0 0
-0.0137016 0 0.0498556 0 0 0
-0.0075001 5.29396e-23 0.0511575 0.106931 0.0382923 0.00464318
0.0075001 1.05879e-22 0.0511576 0.0969598 0.0328456 0.00014889
0.0137443 0 0.0498545 0 0 0
-0.0137443 0 0.0498545 0 0 0
0.00343756 0 0.0516077 0.126578 0.0409857 0.0016149
-0.00343756 2.71051e-20 0.0516077 0.131008 0.0429508 0.0040829
-0.0137879 0 0.0498533 0 0 0
0.0137879 6.77626e-21 0.0498533 0 0 0
-0.0137045 0 0.0498836 0.00266242 0.00141117 0.000237792
0.0137045 0 0.0498836 0.00191672 0.000481075 -8.29815e-05
0.00843772 2.71051e-20 0.0510423 0.0905822 0.031741 -0.000173477
-0.00843772 5.42101e-20 0.0510423 0.102873 0.0384569 0.00494827
0.0099984 -2.11758e-22 0.0507738 0.0700817 0.0245317 -0.000609107
-0.0100013 -2.11758e-22 0.0507738 0.0830143 0.0329048 0.0045382
-0.0137855 0 0.0498824 0.00274956 0.00144446 0.000247061
0.0137855 0 0.0498824 0.00193584 0.000458499 -8.40959e-05
0.0040626 -5.42101e-20 0.0516075 0.12622 0.0408028 0.00158215
-0.0040626 2.71051e-20 0.0516075 0.1315 0.0431196 0.00418197
-0.00687461 0 0.0513107 0.117164 0.0407563 0.00481887
0.00687461 0 0.0513107 0.10781 0.0360893 0.000436774
-0.00812515 0 0.0511321 0.105862 0.0381109 0.00482835
0.00812515 0 0.0511321 0.0950401 0.0321574 -1.91135e-05
0.00468763 0 0.0516072 0.125934 0.0406253 0.00122821
-0.00468763 0 0.0516072 0.131949 0.0432829 0.00456044
0.0124985 0 0.0502903 0.0325074 0.0107552 -0.000774089
-0.0124985 8.47033e-22 0.0502903 0.0420285 0.0192736 0.00294875
-0.0115618 0 0.0505295 0.0637641 0.0276829 0.00411321
0.0115618 2.71051e-20 0.0505295 0.0504469 0.0175594 -0.000918871
0.0134342 -2.71051e-20 0.0500653 0.0150809 0.00416363 -0.000543815
-0.0134342 2.71051e-20 0.0500653 0.0201603 0.0108591 0.00162705
0.00906271 0 0.0510407 0.0903344 0.0315173 -0.000273131
-0.00906271 5.42101e-20 0.0510407 0.103628 0.0387071 0.0051795
-0.00875017 2.11758e-22 0.0511035 0.104603 0.03788 0.00500463
0.00875017 0 0.0511035 0.0929261 0.0314118 -0.000181874
-0.00750083 -3.36696e-20 0.0513099 0.11779 0.0409612 0.00507656
0.00749953 0 0.051311 0.107551 0.0358833 0.000273734
0.0143207 0 0.049839 0 0 0
-0.0143207 0 0.049839 0 0 0
0.0143689 0 0.0498377 0 0 0
-0.0143689 -6.77626e-21 0.0498377 0 0 0
0.0106232 1.46113e-20 0.0507689 0.0699175 0.0243179 -0.000714326
-0.0106263 0 0.0507689 0.0837798 0.033172 0.0047913
0.00531265 0 0.0516068 0.125603 0.0404455 0.00120253
-0.00531265 0 0.0516068 0.132459 0.0434385 0.00467114
-0.014418 0 0.0498363 0 0 0
0.014418 6.77626e-21 0.0498363 0 0 0
-0.0143242 0 0.049871 0.00304164 0.00159791 0.000273306
0.0143242 6.77626e-21 0.049871 0.00214148 0.000507204 -9.30291e-05
-4.01264e-11 0 0.0519027 0.139089 0.042771 0.00316446
0.00062499 0 0.0519027 0.138614 0.0426134 0.00295446
-0.000624992 0 0.0519027 0.13931 0.042909 0.00336761
-0.0144152 -6.77626e-21 0.0498696 0.00313104 0.00163639 0.000284252
0.0144152 0 0.0498696 0.00216515 0.000479782 -9.52793e-05
0.00125006 6.61744e-24 0.0519027 0.138407 0.0424733 0.00275704
-0.00125006 4.15576e-21 0.0519027 0.139795 0.0430595 0.00358369
-0.00937512 1.05879e-22 0.0510757 0.103438 0.0376649 0.00518049
0.00937512 0 0.0510757 0.0908932 0.0306825 -0.000334912
0.00187495 0 0.0519025 0.137945 0.042312 0.00255251
-0.00187495 -1.32349e-23 0.0519025 0.140028 0.0431909 0.00379377
0.00593765 -2.71051e-20 0.0516065 0.125343 0.0402689 0.000852426
-0.00593765 2.71051e-20 0.0516065 0.132942 0.0435921 0.00505108
-0.00812604 -1.0482e-20 0.0513089 0.118434 0.0411654 0.00533881
0.00812444 0 0.0513104 0.107298 0.0356775 0.000109981
0.00968766 -2.71051e-20 0.051039 0.0901157 0.0312938 -0.00045545
-0.00968766 5.42101e-20 0.051039 0.104392 0.0389459 0.00547607
0.00250013 1.32349e-23 0.0519025 0.137761 0.0421697 0.00236009
-0.00249993 -3.04402e-22 0.0519027 0.140526 0.0433341 0.00401768
0.0131232 2.82344e-22 0.0502825 0.0323525 0.0105319 -0.000825447
-0.0131232 2.82344e-22 0.0502825 0.042527 0.0194462 0.00310345
-0.0121869 -2.71051e-20 0.0505245 0.0644727 0.0279397 0.00434029
0.0121869 -2.71051e-20 0.0505245 0.050273 0.017326 -0.00101891
0.0140588 5.42101e-20 0.050055 0.015009 0.00396569 -0.000558392
-0.0140588 -5.42101e-20 0.050055 0.0205027 0.0109908 0.00171961
0.0031249 -2.64698e-23 0.0519024 0.137322 0.0420064 0.0021599
-0.0031249 0 0.0519024 0.140774 0.043459 0.00423677
0.0112482 3.59989e-20 0.0507658 0.0697532 0.024097 -0.000826356
-0.0112516 2.11758e-22 0.0507658 0.0845418 0.033426 0.00505489
0.0149395 -6.77626e-21 0.0498223 0 0 0
-0.0149395 0 0.0498223 0 0 0
0.00656266 2.71051e-20 0.0516061 0.125034 0.0400847 0.000835117
-0.00656266 -2.71051e-20 0.0516061 0.133482 0.0437351 0.00517433
-0.01 2.11758e-22 0.0510557 0.102872 0.0375859 0.00538272
0.01 0 0.0510558 0.0894368 0.0301119 -0.000475428
0.0149933 -6.77626e-21 0.0498208 0 0 0
-0.0149933 0 0.0498208 0 0 0
-0.00375023 1.15144e-20 0.0519026 0.141279 0.0435938 0.0044699
0.00374987 -2.64698e-23 0.0519022 0.137163 0.0418647 0.00197124
-0.0150481 0 0.0498193 0 0 0
0.0150481 0 0.0498193 0 0 0
-0.00875123 0 0.0513079 0.119097 0.0413637 0.00560291
0.00875124 0 0.0513096 0.107053 0.0354731 -5.01659e-05
-0.0149436 6.77626e-21 0.0498585 0.00342771 0.00179144 0.000311185
0.0149436 -6.77626e-21 0.0498585 0.0023703 0.000525241 -0.000104307
0.0103126 -5.42101e-20 0.0510372 0.0898977 0.0310674 -0.000546449
-0.0103126 0 0.0510372 0.105187 0.0391779 0.00571711
-0.0150448 6.77626e-21 0.0498569 0.00350999 0.00182965 0.00032093
0.0150448 0 0.0498569 0.0023894 0.000490871 -0.000104512
-0.0043753 -3.39872e-20 0.0519021 0.141541 0.0437125 0.00469815
0.00437484 -2.64698e-23 0.0519021 0.136747 0.0417015 0.00177424
0.00718768 2.71051e-20 0.0516056 0.124797 0.0399028 0.000487152
-0.00718768 0 0.0516056 0.133994 0.0438783 0.00556097
0.0128118 5.42101e-20 0.050519 0.0500876 0.0170773 -0.00108351
-0.0128118 -2.71051e-20 0.050519 0.0652149 0.0281837 0.00455041
0.013748 0 0.0502746 0.0322321 0.0103081 -0.000872644
-0.013748 1.12938e-21 0.0502746 0.0430688 0.0196277 0.00326027
0.0118771 -1.52466e-20 0.0507621 0.0695756 0.0238686 -0.000942161
-0.011877 0 0.0507655 0.085296 0.0336665 0.00531171
-0.00500037 -4.04988e-20 0.0519024 0.142055 0.0438369 0.00493785
0.00500037 0 0.0519018 0.136611 0.0415621 0.00158873
-0.0106251 0 0.0510497 0.103307 0.0377345 0.00563165
0.0106251 2.11758e-22 0.0510497 0.0889554 0.0298164 -0.000605927
0.0146836 2.71051e-20 0.0500442 0.0149278 0.00373759 -0.00058336
-0.0146836 -2.71051e-20 0.0500442 0.0207687 0.0110932 0.0018113
-0.00937413 -2.05405e-20 0.0513067 0.119775 0.0415528 0.0058649
0.00937639 0 0.0513067 0.106814 0.0352655 -0.000205553
0.0155585 -6.77626e-21 0.0498055 0 0 0
-0.0155585 0 0.0498055 0 0 0
0.00781273 -5.42101e-20 0.0516051 0.124498 0.0397093 0.000474944
-0.00781273 0 0.0516051 0.134562 0.0440176 0.00570157
0.0109377 -2.71051e-20 0.0510351 0.0897117 0.0308452 -0.000726593
-0.0109377 -2.71051e-20 0.0510351 0.10598 0.039399 0.00602837
0.0156176 0 0.0498039 0 0 0
-0.0156176 0 0.0498039 0 0 0
-0.00562545 8.99973e-22 0.0519017 0.142337 0.0439467 0.00517152
0.00562473 -5.29396e-23 0.0519017 0.136214 0.0413973 0.0013964
-0.0156777 -6.77626e-21 0.0498022 0 0 0
0.0156777 -6.77626e-21 0.0498022 0 0 0
0.000300839 5.42101e-20 0.0522172 0.149 0.0435275 0.0034408
-0.000300839 -2.71051e-20 0.0522172 0.15 0.0435755 0.00360929
-0.0155632 -6.77626e-21 0.0498457 0.00378168 0.00197128 0.000345772
0.0155632 0 0.0498457 0.00257435 0.000528867 -0.000112602
-0.000949183 0 0.0522172 0.149583 0.0437538 0.00385271
0.000949183 -5.42101e-20 0.0522172 0.149442 0.0433517 0.00320452
-0.00155086 2.71051e-20 0.0522172 0.15057 0.0437841 0.00402523
0.00155086 0 0.0522172 0.148428 0.043288 0.00303962
-0.0156739 -6.77626e-21 0.0498438 0.0038556 0.00200777 0.000355057
0.0156739 0 0.0498438 0.00259197 0.000496802 -0.000114011
-0.00219919 0 0.0522171 0.150181 0.0439648 0.00427634
0.00219919 0 0.0522171 0.148899 0.0431153 0.00281011
-0.0134366 0 0.0505133 0.0659994 0.0284339 0.00477798
0.0134366 2.71051e-20 0.0505133 0.0499507 0.0168368 -0.00117099
-0.0100015 3.55754e-20 0.0513078 0.120468 0.0417344 0.00613057
0.00999892 0 0.0513078 0.106585 0.0350553 -0.000356332