# p  POINT_DATA 49466
# x  y  z  p
0 4.18564e-09 1.88991e-09 -0.00535533
-2.06795e-25 0.000325396 0 -0.00535436
0 -0.000312499 0.000268959 -0.00535631
0 0.0003125 0.000268959 -0.00535435
-5.16988e-26 8.2094e-10 0.000441267 -0.00555344
-1.03398e-25 8.7794e-11 0.000537325 -0.00559656
-4.1359e-25 -0.000624994 2.25501e-09 -0.00535743
0 0.000625 1.74012e-09 -0.00535347
7.27014e-26 -0.000624999 0.000538028 -0.00559886
0 0.000625001 0.000537326 -0.00559461
2.71051e-20 -0.000312499 0.000800934 -0.0058376
2.71051e-20 0.0003125 0.000800934 -0.00583544
2.71051e-20 -0.000937499 0.000268959 -0.00535854
0 0.0009375 0.000268959 -0.00535259
3.57301e-20 -9.96447e-10 0.00106275 -0.00611195
2.06795e-25 -0.000625001 0.00106275 -0.00611431
-4.1359e-25 0.000624999 0.00106275 -0.00610987
0 -0.0009375 0.000800933 -0.00584005
0 0.0009375 0.000800933 -0.00583352
0 -0.00125 2.58917e-09 -0.00535972
-4.1359e-25 0.00125 2.46546e-09 -0.00535176
0 -0.000312499 0.00130939 -0.00638395
0 0.000312501 0.00130939 -0.0063817
2.06795e-25 0.00125 0.000537325 -0.00559281
-3.01405e-20 -0.00125 0.000537324 -0.00560114
0 -0.00125 0.000612745 -0.00567516
5.40976e-22 -2.4317e-09 0.00155263 -0.0066499
-5.42101e-20 0.0015625 0.000268959 -0.00535093
2.71051e-20 -0.0015625 0.000268959 -0.0053609
0 -0.000937499 0.00130939 -0.00638649
0 0.0009375 0.00130939 -0.00637968
4.1359e-25 0.00125 0.00106275 -0.00610793
-2.06795e-25 -0.00125 0.00106275 -0.00611682
1.77058e-20 -0.000625002 0.00155263 -0.00665237
1.68149e-20 0.000624997 0.00155263 -0.0066477
2.71051e-20 0.0015625 0.000800933 -0.00583167
0 -0.0015625 0.000800933 -0.00584253
0 -0.000312498 0.00177922 -0.00691317
-2.71051e-20 0.000312501 0.00177922 -0.00691078
-4.1359e-25 0.001875 3.03506e-09 -0.00535026
-4.1359e-25 -0.001875 2.8701e-09 -0.00536223
0 0.001875 0.000537326 -0.00559124
-3.63706e-21 -0.001875 0.000537324 -0.00560375
-2.06795e-25 -0.001875 0.000643455 -0.00570794
-9.70531e-21 0.00125 0.00155263 -0.00664566
0 -0.00125 0.00155263 -0.006655
0 6.16903e-09 0.002 -0.00691198
2.71051e-20 -0.000937497 0.00177922 -0.00691585
2.71051e-20 0.000937501 0.00177922 -0.00690865
-2.71051e-20 0.0015625 0.00130939 -0.0063777
0 -0.0015625 0.00130939 -0.00638906
-8.27181e-25 -0.00062499 0.002 -0.00691451
0 0.000625006 0.002 -0.00690971
0 0.001875 0.00106275 -0.00610623
-2.06795e-25 -0.001875 0.00106275 -0.00611957
0 -0.0021875 0.000268959 -0.00536356
2.71051e-20 0.0021875 0.000268959 -0.00534959
2.71051e-20 0.0021875 0.000800933 -0.00583025
2.71051e-20 -0.0021875 0.000800933 -0.00584545
0 -0.00124998 0.002 -0.00691721
0 0.00125001 0.002 -0.00690763
5.42101e-20 -0.0015625 0.00177922 -0.00691858
0 0.0015625 0.00177922 -0.0069066
2.07548e-20 0.001875 0.00155263 -0.00664387
0 -0.001875 0.00155263 -0.00665788
4.1359e-25 0.0025 3.12649e-09 -0.00534893
-4.1359e-25 -0.0025 3.03698e-09 -0.00536489
-2.71051e-20 0.0021875 0.00130939 -0.00637617
0 -0.0021875 0.00130939 -0.0063921
-3.6228e-20 0.0025 0.000537326 -0.00558985
-1.28067e-20 -0.0025 0.000537324 -0.00560651
-1.55096e-25 -0.0025 0.00064455 -0.00571181
-2.45784e-20 0.0025 0.00106275 -0.00610472
0 -0.0025 0.00106275 -0.0061225
8.27181e-25 -0.00187498 0.002 -0.00692017
0 0.00187501 0.002 -0.0069058
0 -0.0021875 0.00177922 -0.00692176
0 0.0021875 0.00177922 -0.00690501
0 0.0028125 0.000268959 -0.00534827
2.71051e-20 -0.0028125 0.000268959 -0.00536622
0 -0.0028125 0.000800933 -0.00584828
0 0.0028125 0.000800933 -0.00582876
-8.54643e-21 0.0025 0.00155263 -0.00664228
0 -0.0025 0.00155263 -0.00666094
0 0.0028125 0.00130939 -0.00637457
5.42101e-20 -0.0028125 0.00130939 -0.00639503
-4.1359e-25 -0.003125 3.07354e-09 -0.00536775
0 0.003125 2.74434e-09 -0.00534783
0 0.003125 0.000537325 -0.00558869
0 -0.003125 0.000537325 -0.00560948
5.16988e-26 -0.003125 0.000585069 -0.00565638
8.27181e-25 -0.00249999 0.002 -0.00692331
0 0.00250001 0.002 -0.00690418
4.1359e-25 0.003125 0.00106275 -0.00610344
-2.06795e-25 -0.003125 0.00106275 -0.00612564
2.71051e-20 -0.0028125 0.00177922 -0.00692486
2.71051e-20 0.0028125 0.00177922 -0.00690336
-2.71051e-20 0.0034375 0.000268959 -0.00534739
0 -0.0034375 0.000268959 -0.00536928
0 -0.00344352 0.000537325 -0.0056111
0 0.003125 0.00155263 -0.00664092
0 -0.003125 0.00155263 -0.00666422
5.42101e-20 0.0034375 0.000800933 -0.0058278
2.71051e-20 -0.0034375 0.000800934 -0.00585161
-2.06795e-25 0.00359328 0 -0.00534716
2.71051e-20 0.0034375 0.00130939 -0.00637351
2.71051e-20 -0.0034375 0.00130939 -0.00639849
5.16988e-26 -0.00370589 0 -0.00537059
0 -0.00312499 0.002 -0.00692667
0 0.00312502 0.002 -0.0069028
0 0.00375 9.18467e-10 -0.00534694
-5.16988e-26 -0.00375 2.33397e-10 -0.0053708
1.03398e-25 0.00375 0.000283573 -0.00547402
0 0.00375 0.000537325 -0.00558774
0 -0.00375 0.000537325 -0.00561265
-2.06795e-25 -0.00380584 0 -0.00537109
0 -0.0034375 0.00177922 -0.00692847
2.71051e-20 0.0034375 0.00177922 -0.00690225
0 0.00375 0.00106275 -0.00610238
-2.06795e-25 -0.00375 0.00106275 -0.00612897
8.27181e-25 0.00375 0.00155263 -0.00663978
0 -0.00375 0.00155263 -0.0066677
-2.71051e-20 -0.0040625 0.000268959 -0.00537233
2.71051e-20 0.0040625 0.000268959 -0.00534647
0 0.0040625 0.000800933 -0.00582674
2.71051e-20 -0.0040625 0.000800933 -0.00585484
0 -0.00375 0.002 -0.00693023
8.27181e-25 0.00375002 0.002 -0.00690164
0 0.0040625 0.00130939 -0.00637235
2.71051e-20 -0.0040625 0.00130939 -0.00640182
0 -0.004375 2.37901e-09 -0.00537404
2.06795e-25 0.004375 1.4914e-09 -0.00534623
-5.16988e-26 0.004375 0.000427651 -0.00553784
0 -0.004375 0.000475997 -0.00558838
5.16988e-26 0.004375 0.000537324 -0.00558698
0 -0.004375 0.000537324 -0.005616
-2.71051e-20 -0.0040625 0.00177922 -0.00693199
-2.71051e-20 0.0040625 0.00177922 -0.00690103
0 0.004375 0.00106275 -0.00610153
-2.06795e-25 -0.004375 0.00106275 -0.0061325
0 0.004375 0.00155263 -0.00663887
0 -0.004375 0.00155263 -0.00667138
-5.42101e-20 -0.0046875 0.000268959 -0.00537574
0 0.0046875 0.000268959 -0.00534598
2.71051e-20 0.0046875 0.000800933 -0.0058262
0 -0.0046875 0.000800933 -0.00585855
2.06795e-25 -0.00480155 0 -0.00537636
0 -0.004375 0.002 -0.006934
0 0.00437502 0.002 -0.0069007
0 -0.0046875 0.00130939 -0.00640567
2.71051e-20 0.0046875 0.00130939 -0.00637172
0 0.005 1.88412e-09 -0.00534573
0 -0.005 1.10679e-09 -0.00537744
-2.71051e-20 -0.0046875 0.00177922 -0.006936
0 0.0046875 0.00177922 -0.00690037
0 0.005 0.000475235 -0.00555863
0 -0.005 0.000537324 -0.00561954
0 0.005 0.000537324 -0.00558645
0 0.005 0.00106275 -0.00610091
0 -0.005 0.00106275 -0.00613623
0 0.005 0.00155263 -0.00663818
-4.1359e-25 -0.005 0.00155263 -0.00667526
3.10193e-25 -0.0052374 0 -0.0053788
0 -0.0053125 0.000268959 -0.00537914
0 0.0053125 0.000268959 -0.00534549
0 -0.0053125 0.000800933 -0.00586217
0 0.0053125 0.000800933 -0.00582559
0 -0.005 0.002 -0.00693797
0 0.00500002 0.002 -0.0069
0 0.0053125 0.00130939 -0.00637102
-2.71051e-20 -0.0053125 0.00130939 -0.0064094
5.42101e-20 -0.0053125 0.00177922 -0.00693992
0 0.0053125 0.00177922 -0.00689963
0 0.005625 1.97865e-09 -0.00534545
-4.1359e-25 -0.005625 1.80704e-09 -0.00538103
5.16988e-26 0.005625 0.000452329 -0.00554805
0 -0.005625 0.000459045 -0.00558797
-5.16988e-26 0.005625 0.000537324 -0.00558612
0 -0.005625 0.000537324 -0.00562326
0 0.005625 0.00106275 -0.0061005
0 -0.005625 0.00106275 -0.00614015
0 0.005625 0.00155263 -0.00663772
4.1359e-25 -0.005625 0.00155263 -0.00667933
-2.71051e-20 -0.0059375 0.000268959 -0.00538292
-2.71051e-20 0.0059375 0.000268959 -0.0053454
0 0.005625 0.002 -0.00689952
0 -0.005625 0.002 -0.00694212
0 -0.0059375 0.000800933 -0.00586624
5.42101e-20 0.0059375 0.000800933 -0.00582547
-2.06795e-25 0.00603562 0 -0.0053454
2.71051e-20 -0.0059375 0.00130939 -0.00641362
0 0.0059375 0.00130939 -0.00637083
2.71051e-20 -0.0059375 0.00177922 -0.00694432
-2.71051e-20 0.0059375 0.00177922 -0.00689942
0 -0.00625 1.73527e-09 -0.00538482
0 0.00625 1.03302e-09 -0.00534538
-2.58494e-26 -0.00625 0.00048138 -0.00560194
0 0.00625 0.000537324 -0.00558602
-5.16988e-26 -0.00625 0.000537324 -0.00562717
0 0.00625 0.00106275 -0.00610033
0 -0.00625 0.00106275 -0.00614426
0 0.00643483 0 -0.00534542
0 0.00625 0.00155263 -0.0066375
0 -0.00625 0.00155263 -0.0066836
0 -0.00624999 0.002 -0.00694649
0 0.00625001 0.002 -0.00689929
2.71051e-20 -0.0065625 0.000268959 -0.00538672
2.71051e-20 0.0065625 0.000268959 -0.00534535
-2.71051e-20 0.0065625 0.000800933 -0.00582532
2.71051e-20 -0.0065625 0.000800933 -0.00587025
2.71051e-20 0.0065625 0.00130939 -0.0063706
0 -0.0065625 0.00130939 -0.00641776
0 -0.0065625 0.00177922 -0.00694866
2.71051e-20 0.0065625 0.00177922 -0.00689917
0 0.006875 2.46002e-09 -0.00534552
2.06795e-25 -0.006875 1.5666e-09 -0.00538878
0 -0.006875 0.000444085 -0.00558918
-2.58494e-26 0.006875 0.000496296 -0.00556776
5.16988e-26 -0.006875 0.000537324 -0.00563126
0 0.006875 0.000537324 -0.00558613
0 0.006875 0.00106275 -0.00610037
2.06795e-25 -0.006875 0.00106275 -0.00614854
8.27181e-25 -0.006875 0.00155263 -0.00668806
4.1359e-25 0.006875 0.00155263 -0.0066375
0 -0.00687498 0.002 -0.00695104
0 0.00687501 0.002 -0.00689929
-1.03398e-25 -0.00718784 0 -0.00539084
0 0.0071875 0.000268959 -0.00534567
2.71051e-20 -0.0071875 0.000268959 -0.00539084
0 0.00719922 0.000537324 -0.0055863
0 -0.0071875 0.000800933 -0.00587467
2.71051e-20 0.0071875 0.000800933 -0.00582563
0 -0.0071875 0.00130939 -0.00642233
0 0.0071875 0.00130939 -0.00637084
-2.71051e-20 -0.0071875 0.00177922 -0.00695342
0 0.0071875 0.00177922 -0.0068994
-4.1359e-25 0.0075 3.01477e-09 -0.00534587
0 -0.0075 1.56323e-09 -0.00539291
1.03398e-25 -0.0075 0.000537325 -0.00563552
0 0.0075 0.000537324 -0.00558646
-2.58494e-26 0.0075 0.000601631 -0.00564939
0 -0.0075 0.00106275 -0.00615302
0 0.0075 0.00106275 -0.00610065
0 -0.0075 0.00155263 -0.0066927
0 0.0075 0.00155263 -0.00663775
0 -0.00749998 0.002 -0.00695578
0 0.00750002 0.002 -0.00689952
-2.71051e-20 -0.0078125 0.000268959 -0.00539497
0 0.0078125 0.000268959 -0.00534607
0 0.0078125 0.000800933 -0.00582594
-2.71051e-20 -0.0078125 0.000800933 -0.00587905
2.71051e-20 -0.0078125 0.00130939 -0.00642685
2.71051e-20 0.0078125 0.00130939 -0.00637109
0 -0.0078125 0.00177922 -0.00695814
-2.71051e-20 0.0078125 0.00177922 -0.00689965
0 0.008125 3.31891e-09 -0.00534645
0 -0.008125 1.18008e-09 -0.00539719
2.50714e-20 0.008125 0.000537324 -0.00558702
0 -0.008125 0.000537324 -0.00563995
5.16988e-26 0.008125 0.000675356 -0.00572208
2.06795e-25 -0.008125 0.00106275 -0.00615766
0 0.008125 0.00106275 -0.00610116
0 -0.008125 0.00155263 -0.00669752
8.27181e-25 0.008125 0.00155263 -0.00663822
-4.1359e-25 -0.00831693 0 -0.00539856
8.27181e-25 -0.00812498 0.002 -0.0069607
0 0.00812501 0.002 -0.0069
-2.71051e-20 -0.0084375 0.000268959 -0.00539941
-5.42101e-20 0.0084375 0.000268959 -0.00534682
2.71051e-20 -0.0084375 0.000800933 -0.00588381
2.71051e-20 0.0084375 0.000800933 -0.00582669
2.71051e-20 -0.0084375 0.00130939 -0.00643177
2.71051e-20 0.0084375 0.00130939 -0.0063718
-2.71051e-20 -0.0084375 0.00177922 -0.00696326
0 0.0084375 0.00177922 -0.00690035
-1.9387e-26 -0.00872439 0.000537324 -0.00564436
8.27181e-25 0.00875 3.4154e-09 -0.00534724
0 -0.00875 2.66276e-09 -0.00540165
-8.82933e-21 0.00875 0.000537325 -0.00558779
-1.65089e-20 -0.00875 0.000537324 -0.00564455
5.16988e-26 -0.00875 0.000544053 -0.00565118
0 0.00875 0.000721296 -0.0057678
2.06795e-25 -0.00875 0.00106275 -0.00616248
0 0.00875 0.00106275 -0.0061019
0 -0.00875 0.00155263 -0.00670252
8.27181e-25 0.00875 0.00155263 -0.00663894
0 -0.00874999 0.002 -0.0069658
0 0.00875001 0.002 -0.00690072
-8.13152e-20 0.0090625 0.000268959 -0.00534765
2.71051e-20 -0.0090625 0.000268959 -0.00540388
2.71051e-20 -0.0090625 0.000800933 -0.00588854
0 0.0090625 0.000800933 -0.00582747
5.42101e-20 -0.0090625 0.00130939 -0.00643665
2.71051e-20 0.0090625 0.00130939 -0.00637252
0 -0.0090625 0.00177922 -0.00696835
5.42101e-20 0.0090625 0.00177922 -0.00690108
-8.27181e-25 -0.009375 3.41999e-09 -0.00540626
0 0.009375 3.38892e-09 -0.00534823
4.53481e-21 0.009375 0.000537325 -0.00558878
3.71354e-20 -0.009375 0.000537325 -0.00564931
1.03398e-25 -0.009375 0.000657842 -0.00576816
-1.03398e-25 0.009375 0.000733189 -0.00578042
-2.06795e-25 -0.009375 0.00106275 -0.00616747
-2.06795e-25 0.009375 0.00106275 -0.00610286
8.27181e-25 -0.009375 0.00155263 -0.00670769
-4.1359e-25 0.009375 0.00155263 -0.00663988
-8.27181e-25 -0.00937499 0.002 -0.00697107
8.27181e-25 0.00937502 0.002 -0.00690167
2.71051e-20 -0.0096875 0.000268959 -0.00540863
-2.71051e-20 0.0096875 0.000268959 -0.00534881
-2.71051e-20 0.0096875 0.000800933 -0.00582867
0 -0.0096875 0.000800933 -0.00589363
-2.71051e-20 -0.0096875 0.00130939 -0.00644189
2.71051e-20 0.0096875 0.00130939 -0.00637368
0 -0.0096875 0.00177922 -0.0069738
2.71051e-20 0.0096875 0.00177922 -0.00690226
0 -0.01 3.84591e-09 -0.00541104
4.1359e-25 0.01 3.10988e-09 -0.00534946
-2.69368e-20 0.01 0.000537325 -0.00559001
-1.66121e-20 -0.01 0.000537325 -0.00565424
-1.03398e-25 -0.01 0.000705515 -0.00582018
-1.03398e-25 0.01 0.000715197 -0.00576403
0 -0.01 0.00106275 -0.00617263
-2.06795e-25 0.01 0.00106275 -0.00610407
0 -0.01 0.00155263 -0.00671303
8.27181e-25 0.01 0.00155263 -0.00664108
-8.27181e-25 -0.00999999 0.002 -0.00697653
0 0.01 0.002 -0.00690287
5.42101e-20 -0.0103125 0.000268959 -0.00541343
5.42101e-20 0.0103125 0.000268959 -0.00535009
-2.71051e-20 -0.0103125 0.000800933 -0.00589871
2.71051e-20 0.0103125 0.000800933 -0.00582992
2.71051e-20 0.0103125 0.00130939 -0.00637489
5.42101e-20 -0.0103125 0.00130939 -0.00644713
2.71051e-20 0.0103125 0.00177922 -0.00690349
5.42101e-20 -0.0103125 0.00177922 -0.00697925
0 -0.010625 3.859e-09 -0.00541597
0 0.010625 2.71477e-09 -0.0053509
1.97464e-20 -0.010625 0.000537325 -0.00565933
3.2301e-20 0.010625 0.000537324 -0.00559145
5.16988e-26 0.010625 0.00064136 -0.00569324
1.03398e-25 -0.010625 0.000713693 -0.00583342
-2.06795e-25 0.010625 0.00106275 -0.0061055
2.06795e-25 -0.010625 0.00106275 -0.00617795
4.1359e-25 0.010625 0.00155263 -0.0066425
-4.1359e-25 -0.010625 0.00155263 -0.00671854
0 0.010625 0.002 -0.00690431
0 -0.010625 0.002 -0.00698214
2.71051e-20 0.0109375 0.000268959 -0.0053517
0 -0.0109375 0.000268959 -0.0054185
2.71051e-20 -0.0109375 0.000800933 -0.00590411
2.71051e-20 0.0109375 0.000800933 -0.00583156
-2.71051e-20 -0.0109375 0.00130939 -0.0064527
0 0.0109375 0.00130939 -0.00637651
0 0.0109375 0.00177922 -0.00690513
2.71051e-20 -0.0109375 0.00177922 -0.00698504
-2.58494e-25 0.0111652 0 -0.00535234
0 -0.01125 5.75756e-10 -0.00542107
0 0.01125 4.26441e-10 -0.00535256
0 0.01125 0.000518313 -0.00558461
-1.25575e-20 -0.01125 0.000537325 -0.00566459
-3.23117e-27 0.01125 0.000537324 -0.00559313
-9.37041e-26 0.01125 0.000543682 -0.00559935
1.03398e-25 -0.01125 0.000709323 -0.00583444
0 0.01125 0.00106275 -0.00610716
0 -0.01125 0.00106275 -0.00618344
-2.06795e-25 0.0113285 0 -0.0053528
0 0.01125 0.00155263 -0.00664418
4.1359e-25 -0.01125 0.00155263 -0.00672422
0 0.01125 0.002 -0.006906
8.27181e-25 -0.01125 0.002 -0.00698793
0 0.0115625 0.000268959 -0.00535343
0 -0.0115625 0.000268959 -0.00542364
0 0.0115625 0.000800933 -0.00583328
2.71051e-20 -0.0115625 0.000800933 -0.00590952
-2.71051e-20 0.0115625 0.00130939 -0.0063782
0 -0.0115625 0.00130939 -0.00645827
2.71051e-20 0.0115625 0.00177922 -0.00690687
2.71051e-20 -0.0115625 0.00177922 -0.00699082
0 0.0118072 0.000537324 -0.00559481
0 -0.011875 3.61699e-09 -0.00542633
0 0.011875 2.96792e-09 -0.00535444
0 0.011875 0.000537324 -0.00559499
-2.65005e-20 -0.011875 0.000537325 -0.00566999
-5.16988e-26 -0.011875 0.000741806 -0.005872
4.03897e-27 0.0118891 0.000537324 -0.00559507
0 0.011875 0.00106275 -0.00610906
-2.06795e-25 -0.011875 0.00106275 -0.00618908
0 0.011875 0.00155263 -0.00664609
0 -0.011875 0.00155263 -0.00673005
0 0.011875 0.002 -0.00690793
8.27181e-25 -0.011875 0.002 -0.00699387
0 -0.0121875 0.000268959 -0.005429
0 0.0121875 0.000268959 -0.00535545
0 0.0121875 0.000800933 -0.00583537
0 -0.0121875 0.000800933 -0.00591521
-2.71051e-20 0.0121875 0.00130939 -0.00638029
0 -0.0121875 0.00130939 -0.00646413
-2.71051e-20 -0.0121875 0.00177922 -0.00699692
-2.71051e-20 0.0121875 0.00177922 -0.006909
0 -0.0125 3.636e-09 -0.00543171
2.58494e-26 0.0125 1.91769e-10 -0.00535654
1.21809e-20 -0.0125 0.000537325 -0.00567553
0 0.0125 0.000537325 -0.00559714
5.16988e-26 0.0125 0.000568104 -0.00562725
-1.03398e-25 -0.0125 0.000751933 -0.00588765
2.06795e-25 0.0125 0.00106275 -0.0061112
0 -0.0125 0.00106275 -0.00619487
0 0.0125 0.00155263 -0.00664825
0 -0.0125 0.00155263 -0.00673604
0 0.0125 0.002 -0.00691011
0 -0.0125 0.002 -0.00699997
-5.42101e-20 0.0128125 0.000268959 -0.00535763
0 -0.0128125 0.000268959 -0.00543442
2.71051e-20 -0.0128125 0.000800933 -0.00592093
0 0.0128125 0.000800934 -0.00583757
0 0.0128125 0.00130939 -0.00638247
-2.71051e-20 -0.0128125 0.00130939 -0.00647001
2.71051e-20 -0.0128125 0.00177922 -0.00700302
0 0.0128125 0.00177922 -0.00691123
-8.27181e-25 0.013125 3.40077e-09 -0.00535887
-4.1359e-25 -0.013125 3.11795e-09 -0.00543724
-5.36023e-21 -0.013125 0.000537324 -0.00568122
1.07052e-20 0.013125 0.000537325 -0.00559948
0 0.013125 0.00064427 -0.00570412
1.55096e-25 -0.013125 0.000688444 -0.00583066
0 0.013125 0.00106275 -0.00611357
2.06795e-25 -0.013125 0.00106275 -0.0062008
0 0.013125 0.00155263 -0.00665064
8.27181e-25 -0.013125 0.00155263 -0.00674217
0 0.013125 0.002 -0.00691254
8.27181e-25 -0.013125 0.002 -0.00700621
0 0.0134375 0.000268959 -0.0053601
-5.42101e-20 -0.0134375 0.000268959 -0.00544005
0 -0.0134375 0.000800933 -0.0059269
-2.71051e-20 0.0134375 0.000800933 -0.00584011
0 -0.0134375 0.00130939 -0.00647616
5.42101e-20 0.0134375 0.00130939 -0.00638502
5.42101e-20 -0.0134375 0.00177922 -0.0070094
0 0.0134375 0.00177922 -0.00691385
8.27181e-25 0.01375 3.54584e-09 -0.0053614
4.1359e-25 -0.01375 2.12214e-09 -0.00544289
3.62485e-20 0.01375 0.000537325 -0.00560206
-8.28012e-21 -0.01375 0.000537324 -0.00568704
2.90806e-26 -0.01375 0.000545943 -0.00569557
5.16988e-26 0.01375 0.000717791 -0.00577864
-2.06795e-25 -0.01375 0.00106275 -0.00620687
0 0.01375 0.00106275 -0.00611618
-3.23117e-27 -0.0137867 0.000537324 -0.00568739
8.27181e-25 -0.01375 0.00155263 -0.00674845
0 0.01375 0.00155263 -0.00665328
0 -0.01375 0.002 -0.00701261
0 0.01375 0.002 -0.00691521
2.71051e-20 -0.0140625 0.000268959 -0.00544574
0 0.0140625 0.000268959 -0.0053627
-2.71051e-20 -0.0140625 0.000800933 -0.00593291
-2.71051e-20 0.0140625 0.000800933 -0.00584278
0 -0.0140625 0.00130939 -0.00648234
0 0.0140625 0.00130939 -0.00638769
-5.42101e-20 -0.0140625 0.00177922 -0.00701581
0 0.0140625 0.00177922 -0.00691658
0 0.014375 3.7675e-09 -0.00536415
2.06795e-25 -0.014375 1.49636e-09 -0.00544869
0 -0.014375 0.000427154 -0.00564291
2.24612e-20 0.014375 0.000537325 -0.00560485
0 -0.014375 0.000537324 -0.005693
1.03398e-25 0.014375 0.000755837 -0.00581868
0 -0.014375 0.00106275 -0.00621309
0 0.014375 0.00106275 -0.00611901
-8.27181e-25 -0.014375 0.00155263 -0.00675487
0 0.014375 0.00155263 -0.00665616
0 -0.014375 0.002 -0.00701914
0 0.014375 0.002 -0.00691813
0 0.0146875 0.000268959 -0.00536559
0 -0.0146875 0.000268959 -0.00545164
-2.71051e-20 0.0146875 0.000800933 -0.00584577
0 -0.0146875 0.000800933 -0.00593916
0 -0.0146875 0.00130939 -0.00648876
-2.71051e-20 0.0146875 0.00130939 -0.00639071
-2.71051e-20 0.0146875 0.00177922 -0.00691968
2.71051e-20 -0.0146875 0.00177922 -0.00702247
0 0.015 3.93871e-09 -0.00536712
0 -0.015 1.62451e-09 -0.00545461
5.16988e-26 -0.015 0.000410974 -0.00564161
1.90446e-20 0.015 0.000537325 -0.00560786
0 -0.015 0.000537324 -0.0056991
-1.03398e-25 0.015 0.000777991 -0.0058434
0 -0.015 0.00106275 -0.00621944
0 0.015 0.00106275 -0.00612209
0 -0.015 0.00155263 -0.00676142
-8.27181e-25 0.015 0.00155263 -0.00665929
0 -0.015 0.002 -0.00702581
8.27181e-25 0.015 0.002 -0.00692129
0 0.0153125 0.000268959 -0.00536864
-2.71051e-20 -0.0153125 0.000268959 -0.00545758
2.71051e-20 0.0153125 0.000800933 -0.0058489
2.71051e-20 -0.0153125 0.000800933 -0.00594543
2.71051e-20 0.0153125 0.00130939 -0.00639386
0 -0.0153125 0.00130939 -0.00649521
2.71051e-20 0.0153125 0.00177922 -0.0069229
2.71051e-20 -0.0153125 0.00177922 -0.00702915
-8.27181e-25 0.015625 3.92351e-09 -0.00537031
-4.1359e-25 -0.015625 2.10611e-09 -0.00546065
0 -0.015625 0.000467989 -0.00567374
2.71605e-21 0.015625 0.000537325 -0.00561111
0 -0.015625 0.000537324 -0.00570531
-1.03398e-25 0.015625 0.000771322 -0.00584015
0 -0.015625 0.00106275 -0.00622591
-2.06795e-25 0.015625 0.00106275 -0.0061254
0 -0.015625 0.00155263 -0.00676811
0 0.015625 0.00155263 -0.00666265
-8.27181e-25 -0.015625 0.002 -0.00703261
0 0.015625 0.002 -0.00692469
-2.71051e-20 -0.0159375 0.000268959 -0.00546372
0 0.0159375 0.000268959 -0.00537198
0 0.0159375 0.000800933 -0.00585236
0 -0.0159375 0.000800933 -0.00595193
0 -0.0159375 0.00130939 -0.00650188
-2.71051e-20 0.0159375 0.00130939 -0.00639735
-2.71051e-20 -0.0159375 0.00177922 -0.00703607
2.71051e-20 0.0159375 0.00177922 -0.00692649
-1.77715e-26 -0.0162329 0.000537324 -0.00571149
0 0.01625 3.69811e-09 -0.00537372
0 -0.01625 2.60422e-09 -0.00546683
1.90073e-20 0.01625 0.000537325 -0.00561457
-1.61559e-27 -0.01625 0.000540326 -0.00571215
1.03398e-25 0.01625 0.000724966 -0.00579827
0 -0.01625 0.00106275 -0.00623252
0 0.01625 0.00106275 -0.00612894
0 -0.01625 0.00155263 -0.00677492
0 0.01625 0.00155263 -0.00666626
0 0.01625 0.002 -0.00692835
0 -0.01625 0.002 -0.00703955
-2.71051e-20 -0.0165625 0.000268959 -0.00546994
2.71051e-20 0.0165625 0.000268959 -0.00537546
0 -0.0165625 0.000800933 -0.00595846
5.42101e-20 0.0165625 0.000800933 -0.00585595
2.71051e-20 -0.0165625 0.00130939 -0.00650861
-5.42101e-20 0.0165625 0.00130939 -0.00640098
-5.42101e-20 0.0165625 0.00177922 -0.00693022
0 -0.0165625 0.00177922 -0.00704303
0 0.016875 3.366e-09 -0.00537735
0 -0.016875 3.06135e-09 -0.00547313
-1.85091e-20 0.016875 0.000537324 -0.00561826
1.57543e-20 -0.016875 0.000537324 -0.00571813
-5.16988e-26 -0.016875 0.000631513 -0.00581154
0 0.016875 0.000644396 -0.0057231
2.06795e-25 0.016875 0.00106275 -0.00613271
-2.06795e-25 -0.016875 0.00106275 -0.00623925
0 0.016875 0.00155263 -0.0066701
0 -0.016875 0.00155263 -0.00678186
0 0.016875 0.002 -0.00693225
8.27181e-25 -0.016875 0.002 -0.00704661
-2.71051e-20 -0.0171875 0.000268959 -0.00547631
2.71051e-20 0.0171875 0.000268959 -0.00537923
0 -0.0171875 0.000800933 -0.0059652
0 0.0171875 0.000800933 -0.00585986
0 0.0171875 0.00130939 -0.00640493
0 -0.0171875 0.00130939 -0.00651552
-2.71051e-20 -0.0171875 0.00177922 -0.00705019
-2.71051e-20 0.0171875 0.00177922 -0.00693428
-6.46235e-27 0.0174374 0.000537324 -0.00562178
0 -0.0175 3.53916e-09 -0.00547954
0 0.0175 2.99805e-09 -0.00538119
0 0.0175 0.000530413 -0.00561907
3.57311e-21 -0.0175 0.000537325 -0.00572471
0 0.0175 0.000537324 -0.00562217
1.03398e-25 -0.0175 0.000704934 -0.00589103
0 0.0175 0.00106275 -0.00613671
0 -0.0175 0.00106275 -0.00624609
0 0.0175 0.00155263 -0.00667418
-2.27359e-20 -0.0175 0.00155263 -0.00678892
-8.27181e-25 0.0175 0.002 -0.00693638
0 -0.0175 0.002 -0.00705378
-5.42101e-20 0.0178125 0.000268959 -0.00538315
2.71051e-20 -0.0178125 0.000268959 -0.00548276
0 -0.0178125 0.000800934 -0.00597197
0 0.0178125 0.000800933 -0.00586391
0 0.0178125 0.00130939 -0.00640903
0 -0.0178125 0.00130939 -0.00652247
0 -0.0178125 0.00177922 -0.00705738
0 0.0178125 0.00177922 -0.00693849
3.10193e-25 0.0180422 0 -0.0053847
0 -0.018125 4.01068e-09 -0.00548605
0 0.018125 4.57842e-10 -0.00538524
-1.43971e-20 -0.018125 0.000537326 -0.00573139
0 0.018125 0.000537324 -0.00562629
-1.03398e-25 -0.018125 0.000773089 -0.00596546
2.06795e-25 0.018125 0.00106275 -0.00614094
0 -0.018125 0.00106275 -0.00625305
0 0.018125 0.00155263 -0.0066785
8.80906e-21 -0.018125 0.00155263 -0.00679609
1.55096e-25 0.018229 0 -0.00538595
-8.27181e-25 0.018125 0.002 -0.00694076
0 -0.018125 0.002 -0.00706107
-5.42101e-20 0.0184375 0.000268959 -0.00538733
-2.71051e-20 -0.0184375 0.000268959 -0.00548934
-2.71051e-20 0.0184375 0.000800933 -0.00586825
2.71051e-20 -0.0184375 0.000800934 -0.00597892
-2.71051e-20 0.0184375 0.00130939 -0.00641344
2.71051e-20 -0.0184375 0.00130939 -0.00652962
2.71051e-20 -0.0184375 0.00177922 -0.00706476
0 0.0184375 0.00177922 -0.00694303
-8.27181e-25 -0.01875 4.32767e-09 -0.00549267
-4.1359e-25 0.01875 2.2926e-09 -0.0053895
0 0.01875 0.000466553 -0.00559887
-1.22658e-20 -0.01875 0.000537326 -0.00573819
0 0.01875 0.000537324 -0.00563063
0 -0.01875 0.000822342 -0.0060213
0 0.01875 0.00106275 -0.00614539
0 -0.01875 0.00106275 -0.00626011
8.27181e-25 0.01875 0.00155263 -0.00668305
7.47316e-21 -0.01875 0.00155263 -0.00680336
-8.27181e-25 0.01875 0.002 -0.00694537
0 -0.01875 0.002 -0.00706847
-2.71051e-20 -0.0190625 0.000268959 -0.00549598
0 0.0190625 0.000268959 -0.00539167
5.42101e-20 0.0190625 0.000800933 -0.00587275
-2.71051e-20 -0.0190625 0.000800934 -0.00598592
-2.71051e-20 0.0190625 0.00130939 -0.00641801
2.71051e-20 -0.0190625 0.00130939 -0.00653678
0 -0.0190625 0.00177922 -0.00707217
0 0.0190625 0.00177922 -0.00694772
0 -0.019375 4.36723e-09 -0.00549939
-4.1359e-25 0.019375 1.95547e-09 -0.00539396
0 0.019375 0.000444026 -0.0055933
1.6325e-20 -0.019375 0.000537325 -0.00574509
0 0.019375 0.000537324 -0.00563518
-1.03398e-25 -0.019375 0.000836096 -0.00604202
2.06795e-25 0.019375 0.00106275 -0.00615006
0 -0.019375 0.00106275 -0.00626727
-9.90466e-21 0.019375 0.00155263 -0.00668783
4.93082e-21 -0.019375 0.00155263 -0.00681074
0 0.019375 0.002 -0.00695022
8.27181e-25 -0.019375 0.002 -0.00707597
0 0.0196875 0.000268959 -0.00539624
2.71051e-20 -0.0196875 0.000268959 -0.00550278
-2.71051e-20 0.0196875 0.000800933 -0.00587752
2.71051e-20 -0.0196875 0.000800933 -0.00599308
4.1359e-25 0.0197155 0 -0.0053965
-5.42101e-20 -0.0196875 0.00130939 -0.00654412
-2.71051e-20 0.0196875 0.00130939 -0.00642286
-2.71051e-20 -0.0196875 0.00177922 -0.00707977
-2.71051e-20 0.0196875 0.00177922 -0.00695272
0 -0.02 4.16789e-09 -0.00550621
-4.1359e-25 0.02 1.63357e-09 -0.00539862
-1.16484e-20 -0.02 0.000537325 -0.00575209
-2.46517e-20 0.02 0.000537325 -0.00563994
0 -0.02 0.000811466 -0.00602468
1.73133e-20 0.02 0.00106275 -0.00615495
0 -0.02 0.00106275 -0.00627454
8.61591e-21 0.02 0.00155263 -0.00669283
-3.27646e-21 -0.02 0.00155263 -0.00681822
0 0.02 0.002 -0.00695529
0 -0.02 0.002 -0.00708358
0 -0.0203125 0.000268959 -0.00550964
0 0.0203125 0.000268959 -0.00540099
0 0.0203125 0.000800934 -0.00588245
2.71051e-20 -0.0203125 0.000800933 -0.00600027
-2.71051e-20 0.0203125 0.00130939 -0.00642787
-2.71051e-20 -0.0203125 0.00130939 -0.00655149
-5.42101e-20 -0.0203125 0.00177922 -0.00708738
2.71051e-20 0.0203125 0.00177922 -0.00695786
1.03398e-25 0.020416 0 -0.00540186
0 -0.020625 3.8189e-09 -0.00551313
0 0.020625 8.20659e-10 -0.00540349
-2.06795e-25 0.020625 0.000252906 -0.00551712
0 0.020625 0.000537326 -0.0056449
1.93304e-20 -0.020625 0.000537325 -0.00575919
0 -0.020625 0.000758915 -0.00597963
0 0.020625 0.00106275 -0.00616006
-2.06795e-25 -0.020625 0.00106275 -0.0062819
0 0.020625 0.00155263 -0.00669805
9.6685e-21 -0.020625 0.00155263 -0.0068258
0 -0.020625 0.002 -0.00709127
-1.03398e-25 0.020625 0.002 -0.00696058
-1.03398e-25 0.0207754 0 -0.00540471
2.71051e-20 0.0209375 0.000268959 -0.00540598
-5.42101e-20 -0.0209375 0.000268959 -0.00551662
-2.71051e-20 0.0209375 0.000800934 -0.00588764
0 -0.0209375 0.000800933 -0.00600762
0 -0.0209375 0.00130939 -0.00655902
0 0.0209375 0.00130939 -0.00643316
0 0.0209375 0.00177922 -0.0069633
0 -0.0209375 0.00177922 -0.00709516
0 -0.02125 3.42441e-09 -0.00552017
-4.1359e-25 0.02125 2.58998e-09 -0.00540855
0 0.02125 0.000537326 -0.00565007
5.70827e-21 -0.02125 0.000537324 -0.00576639
5.16988e-26 -0.02125 0.000691615 -0.00591996
0 0.02125 0.00106275 -0.00616538
-2.06795e-25 -0.02125 0.00106275 -0.00628937
0 0.02125 0.00155263 -0.0067035
0 -0.02125 0.00155263 -0.00683347
8.27181e-25 0.02125 0.002 -0.0069661
-2.06795e-25 -0.02125 0.002 -0.00709907
0 0.0215625 0.000268959 -0.00541113
0 -0.0215625 0.000268959 -0.0055237
2.71051e-20 -0.0215625 0.000800933 -0.00601503
2.71051e-20 0.0215625 0.000800934 -0.00589299
-5.42101e-20 0.0215625 0.00130939 -0.0064386
0 -0.0215625 0.00130939 -0.00656659
5.42101e-20 0.0215625 0.00177922 -0.0069689
2.71051e-20 -0.0215625 0.00177922 -0.00710297
8.27181e-25 -0.021875 3.17079e-09 -0.00552731
0 0.021875 2.40638e-09 -0.00541381
2.06795e-25 0.021875 0.000537325 -0.00565543
1.46779e-20 -0.021875 0.000537324 -0.0057737
-5.16988e-26 -0.021875 0.000657152 -0.00589303
0 0.021875 0.00106275 -0.0061709
0 -0.021875 0.00106275 -0.00629693
0 0.021875 0.00155263 -0.00670915
4.1359e-25 -0.021875 0.00155263 -0.00684124
0 -0.021875 0.002 -0.00710695
0 0.021875 0.002 -0.00697183
0 -0.0221875 0.000268959 -0.00553091
0 0.0221875 0.000268959 -0.00541649
2.71051e-20 -0.0221875 0.000800933 -0.00602258
0 0.0221875 0.000800933 -0.00589858
0 -0.0221875 0.00130939 -0.00657431
2.71051e-20 0.0221875 0.00130939 -0.0064443
-2.71051e-20 -0.0221875 0.00177922 -0.00711093
-2.71051e-20 0.0221875 0.00177922 -0.00697476
2.06795e-25 0.0223143 0 -0.00541763
0 -0.0225 3.06383e-09 -0.00553454
2.06795e-25 0.0225 1.01736e-09 -0.00541924
0 0.0225 0.000250256 -0.00553183
2.06795e-25 0.0225 0.000537325 -0.00566098
-1.99542e-21 -0.0225 0.000537324 -0.00578111
1.55096e-25 -0.0225 0.000659436 -0.00590277
0 0.0225 0.00106275 -0.00617662
0 -0.0225 0.00106275 -0.00630459
0 0.0225 0.00155263 -0.00671501
0 -0.0225 0.00155263 -0.00684909
0 -0.0225 0.002 -0.00711493
-8.27181e-25 0.0225 0.002 -0.00697778
0 0.0227144 0 -0.00542116
-2.71051e-20 0.0228125 0.000268959 -0.00542199
-2.71051e-20 -0.0228125 0.000268959 -0.00553817
2.71051e-20 -0.0228125 0.000800933 -0.00603017
0 0.0228125 0.000800933 -0.00590432
0 0.0228125 0.00130939 -0.00645016
-5.42101e-20 -0.0228125 0.00130939 -0.00658206
-5.42101e-20 -0.0228125 0.00177922 -0.00711892
0 0.0228125 0.00177922 -0.00698079
0 -0.023125 2.83233e-09 -0.00554186
0 0.023125 1.94898e-09 -0.00542483
0 0.023125 0.000537325 -0.0056667
-5.16988e-26 -0.023125 0.000537324 -0.0057886
0 -0.023125 0.000629874 -0.00588085
0 0.023125 0.00106275 -0.00618253
0 -0.023125 0.00106275 -0.00631232
8.27181e-25 -0.023125 0.00155263 -0.00685703