# k  POINT_DATA 27219
# x  y  z  k
-0.0130568 0 4.20224e-06 1.66449e-06
0.0130568 0 4.20467e-06 7.9355e-10
0.0130538 0 6.66496e-06 7.80938e-10
-0.0130538 0 6.66145e-06 1.65366e-06
-0.0130538 0 0.000644966 2.253e-06
0.0130538 0 0.000645285 7.84257e-10
-0.0130538 0 0.00065941 2.29793e-06
0.0130538 0 0.00065974 7.94506e-10
-0.0130538 0 0.000674665 2.30639e-06
0.0130538 0 0.000675 7.85141e-10
-0.0130603 8.47033e-22 0.000649852 2.26393e-06
0.0130603 0 0.000650175 7.85417e-10
-0.0130603 0 0.000668993 2.29982e-06
0.0130603 0 0.000669326 7.85847e-10
-0.0130709 5.0822e-21 0.000658297 2.29925e-06
0.0130709 -1.43996e-20 0.000658629 8.2458e-10
-0.0130538 0 0.00133823 2.63083e-06
0.0130538 0 0.00133856 7.56267e-10
-0.0130538 -1.69407e-21 0.00135482 2.64361e-06
0.0130538 0 0.00135516 7.65521e-10
-0.0130538 -1.69407e-21 0.00137229 2.60126e-06
0.0130538 1.69407e-21 0.00137264 7.53102e-10
-0.0130609 0 0.00134178 2.62843e-06
0.0130609 0 0.00134211 7.56612e-10
-0.0130605 0 0.00136344 2.60681e-06
0.0130605 0 0.00136379 7.54231e-10
-0.0130744 8.47033e-21 0.00134763 2.56063e-06
0.0130744 5.0822e-21 0.00134797 7.35694e-10
-0.0130556 0 0.00208219 3.19171e-06
0.0130566 4.23516e-22 0.0020858 9.70377e-10
-0.0130676 -4.23516e-22 0.00208096 3.22777e-06
0.0130676 -4.23516e-22 0.00208096 9.78019e-10
-0.0133442 0 8.05854e-08 2.21181e-06
0.0133442 -2.03288e-20 8.05851e-08 1.44399e-09
-0.0133452 0 0.000326595 2.17594e-06
0.0133452 4.51751e-21 0.00032676 1.3673e-09
-0.0133372 3.38813e-21 0.000960076 2.72788e-06
0.0133372 -3.38813e-21 0.000960432 8.1112e-10
-0.0132973 -4.51751e-21 0.00155434 2.21745e-06
0.0132973 4.51751e-21 0.00155458 6.82606e-10
-0.0132406 3.38813e-21 0.00216285 4.05571e-06
0.0132406 3.38813e-21 0.00216285 1.22642e-09
-0.0132805 3.38813e-21 0.00206436 3.9694e-06
0.0132806 -3.38813e-21 0.00206428 1.13898e-09
0.0133175 2.71051e-20 0.00219404 1.62632e-09
-0.0133175 2.71051e-20 0.00219405 4.32255e-06
-0.0133831 0 0.00186926 3.57971e-06
0.0133831 0 0.00186938 1.04987e-09
-0.0135632 2.03288e-20 9.24943e-08 4.50451e-06
0.0135632 -1.35525e-20 9.24941e-08 4.0482e-09
-0.0134965 4.51751e-21 0.00146628 1.60375e-06
0.0134965 0 0.00146652 4.05358e-10
-0.0136117 -6.77626e-21 8.70578e-05 5.02061e-06
0.0136117 6.77626e-21 8.70948e-05 4.6217e-09
-0.0136152 0 8.46271e-08 5.00124e-06
0.0136152 -1.35525e-20 8.46272e-08 4.59691e-09
-0.0136416 0 8.06399e-08 5.17009e-06
0.0136416 1.35525e-20 8.06405e-08 4.70693e-09
-0.0136355 4.06576e-21 0.000679005 3.06922e-06
0.0136355 -2.93638e-21 0.00067928 2.1145e-09
0.0134812 0 0.00226051 2.12688e-09
-0.0134812 1.35525e-20 0.00226053 5.35447e-06
-0.0136197 2.07052e-21 0.00119016 1.43085e-06
0.0136197 -1.50584e-21 0.00119046 3.9603e-10
-0.0136061 1.50584e-21 0.00162993 1.90483e-06
0.0136061 -4.51751e-21 0.00163012 5.60883e-10
0.0137235 -6.77626e-21 7.39517e-08 5.55376e-09
-0.0137235 1.35525e-20 7.39504e-08 6.05074e-06
0.0137252 0 9.16503e-05 5.6222e-09
-0.0137252 0 9.16307e-05 6.1197e-06
-0.0137102 2.25875e-22 0.00202489 5.5339e-06
0.0137103 0 0.00202497 2.19131e-09
-0.0136752 -6.77626e-21 0.00233929 5.78894e-06
0.0136753 6.77626e-21 0.00233932 2.57651e-09
-0.0137679 0 0.00237695 5.79779e-06
0.013768 0 0.00237697 2.70267e-09
0.0139849 1.35525e-20 0.000399215 6.8253e-09
-0.0139849 -2.71051e-20 0.000399115 7.3016e-06
-0.0139861 4.51751e-21 0.00091313 1.98339e-06
0.0139861 4.51751e-21 0.000913297 1.26339e-09
-0.0139546 -4.51751e-21 0.00150392 1.26523e-06
0.0139546 -1.35525e-20 0.00150406 4.29357e-10
-0.0140935 -1.35525e-20 0.000126399 9.07001e-06
0.0140935 -1.35525e-20 0.000126419 8.55003e-09
-0.0141016 -2.71051e-20 1.51491e-08 9.05774e-06
0.0141016 -2.71051e-20 1.51471e-08 8.53779e-09
-0.013961 -8.47033e-22 0.00245528 6.1938e-06
0.0139612 -3.38813e-21 0.00245534 3.07433e-09
-0.0141702 0 0.000612168 5.52648e-06
0.0141702 2.71051e-20 0.000612269 4.59715e-09
-0.0139759 0 0.00246133 6.21539e-06
0.0139761 -8.47033e-22 0.00246136 3.09207e-09
-0.0139804 -8.47033e-22 0.00244924 6.21493e-06
0.0139805 -2.5411e-21 0.00244934 3.0941e-09
-0.0141583 0 0.00121281 1.29152e-06
0.0141583 0 0.00121293 5.63082e-10
-0.0142138 0 6.98128e-09 9.87969e-06
0.0142138 1.35525e-20 6.9805e-09 9.04454e-09
-0.0141062 -2.71051e-20 0.00185466 2.84654e-06
0.0141063 0 0.00185473 1.13718e-09
-0.0140936 -2.25875e-21 0.00222221 5.86147e-06
0.0140937 0 0.00222227 2.89335e-09
0.0143442 2.71051e-20 6.46171e-09 1.04306e-08
-0.0143442 -1.35525e-20 6.46231e-09 1.13481e-05
-0.0141439 6.77626e-21 0.00239274 6.13529e-06
0.014144 0 0.0023928 3.0516e-09
0.014345 0 0.000135094 1.05135e-08
-0.014345 1.35525e-20 0.000135094 1.14461e-05
-0.0141783 1.35525e-20 0.00254352 6.09175e-06
0.0141784 0 0.00254356 2.99305e-09
0.0144148 2.71051e-21 0.000393106 1.02213e-08
-0.0144148 -8.13152e-21 0.000393046 1.13759e-05
-0.0142931 -6.77626e-21 0.00252723 5.9346e-06
0.0142932 -6.77626e-21 0.00252727 2.82879e-09
-0.0142857 6.77626e-21 0.00258704 5.89163e-06
0.0142858 0 0.00258706 2.76497e-09
-0.0145008 4.51751e-21 0.000915437 2.90872e-06
0.0145009 -1.12938e-20 0.000915525 2.21941e-09
-0.0143708 1.69407e-21 0.00229753 5.00887e-06
0.0143709 0 0.00229758 2.42056e-09
-0.0144716 -9.03502e-21 0.00154756 1.3285e-06
0.0144716 0 0.00154763 5.39841e-10
-0.0144657 4.51751e-21 0.00205594 2.72833e-06
0.0144658 1.807e-20 0.002056 1.1758e-09
-0.0146705 -2.71051e-20 0.000150455 1.48101e-05
0.0146705 0 0.000150466 1.31468e-08
-0.01468 0 6.30408e-09 1.48074e-05
0.01468 0 6.30387e-09 1.31378e-08
-0.0144708 2.71051e-20 0.00266196 5.93294e-06
0.014471 0 0.00266201 2.68975e-09
-0.0145058 5.42101e-21 0.00250608 5.97658e-06
0.0145059 -1.35525e-20 0.00250612 2.82238e-09
0.0148234 -1.35525e-20 5.71489e-09 1.30972e-08
-0.0148234 -2.71051e-20 5.71495e-09 1.56925e-05
-0.0148746 4.51751e-21 0.000558343 1.02645e-05
0.0148746 2.25875e-21 0.000558392 8.36727e-09
-0.0147687 0 0.00191044 2.44035e-06
0.0147687 -2.71051e-20 0.00191049 1.09923e-09
-0.0146404 0 0.00273067 7.34444e-06
0.0146406 2.71051e-20 0.00273071 3.75155e-09
-0.0148827 1.16165e-20 0.0011685 2.10729e-06
0.0148828 0 0.00116856 1.24511e-09
0.0149747 1.35525e-20 4.96058e-09 1.35184e-08
-0.0149747 0 4.96059e-09 1.6939e-05
0.0149752 -1.35525e-20 0.000142276 1.35118e-08
-0.0149752 1.35525e-20 0.000142271 1.69162e-05
-0.0148162 9.03502e-21 0.00236391 4.61324e-06
0.0148163 2.25875e-21 0.00236395 2.23766e-09
-0.0150223 -4.51751e-21 0.00156468 1.43795e-06
0.0150223 9.03502e-21 0.00156474 6.62071e-10
-0.0151425 -2.71051e-20 0.000304852 1.82948e-05
0.0151425 2.71051e-20 0.000304883 1.43696e-08
-0.014892 -6.77626e-21 0.00283336 7.42143e-06
0.0148921 6.77626e-21 0.0028334 4.12141e-09
-0.0151422 0 0.000920375 2.83368e-06
0.0151422 2.71051e-20 0.000920434 1.83493e-09
-0.015042 1.6263e-20 0.00210477 1.94241e-06
0.0150421 1.0842e-20 0.00210482 7.94978e-10
-0.0150532 9.03502e-21 0.00270351 7.42317e-06
0.0150534 0 0.00270357 4.05115e-09
-0.0150254 -2.03288e-20 0.00288744 7.60464e-06
0.0150256 3.38813e-20 0.00288752 4.24422e-09
-0.0153086 1.35525e-20 2.24178e-09 1.94102e-05
0.0153086 0 2.24177e-09 1.46203e-08
-0.0153122 0 0.000140816 1.94104e-05
0.0153122 -1.35525e-20 0.000140822 1.4624e-08
0.0154577 0 1.48792e-09 1.48603e-08
-0.0154577 0 1.48787e-09 2.01123e-05
-0.0154655 -4.51751e-21 0.00060398 1.19389e-05
0.0154655 -9.03502e-21 0.000604018 8.49582e-09
-0.0154631 2.25875e-21 0.00123926 2.23608e-06
0.0154631 1.35525e-20 0.00123931 1.17538e-09
-0.0152765 0 0.0029899 7.97804e-06
0.0152766 -2.71051e-20 0.00298996 4.47515e-09
-0.0154691 -2.25875e-21 0.00188066 1.29361e-06
0.0154691 -4.51751e-21 0.00188071 4.51606e-10
0.0156043 -1.35525e-20 1.30288e-09 1.51847e-08
-0.0156043 0 1.30283e-09 2.12247e-05
0.0156046 1.35525e-20 0.000132291 1.51804e-08
-0.0156046 -1.35525e-20 0.000132288 2.11892e-05
-0.0153943 1.35525e-20 0.00303866 7.26072e-06
0.0153944 0 0.00303871 4.08742e-09
-0.0154266 -1.35525e-20 0.00293734 7.30813e-06
0.0154267 1.35525e-20 0.00293741 4.08827e-09
-0.0155042 2.63521e-21 0.00256117 4.72335e-06
0.0155043 -3.76459e-21 0.00256122 2.38881e-09
0.0157872 2.71051e-20 0.000299894 1.54513e-08
-0.0157872 2.71051e-20 0.000299869 2.237e-05
-0.0157972 2.71051e-20 0.000914956 3.93508e-06
0.0157972 2.71051e-20 0.000915008 2.01447e-09
-0.015799 0 0.00156064 1.15976e-06
0.015799 -2.71051e-20 0.00156069 4.54161e-10
-0.0156185 -6.77626e-21 0.00313206 7.12041e-06
0.0156185 6.77626e-21 0.00313207 3.85413e-09
-0.0158092 2.71051e-20 0.00221249 1.38198e-06
0.0158093 0 0.00221254 3.73401e-10
-0.0159653 -2.71051e-20 5.84434e-10 2.32403e-05
0.0159653 2.71051e-20 5.84428e-10 1.56002e-08
-0.0159712 0 0.000124936 2.32378e-05
0.0159712 0 0.000124938 1.56025e-08
-0.015693 0 0.00316295 7.20888e-06
0.0156931 0 0.00316301 3.93377e-09
-0.0157206 1.35525e-20 0.0031026 7.29299e-06
0.0157208 0 0.00310257 3.98768e-09
-0.0158002 4.51751e-21 0.00293364 7.01865e-06
0.0158003 -3.01167e-21 0.0029337 3.81406e-09
-0.0157817 0 0.00319963 7.09304e-06
0.015782 0 0.00319974 3.84798e-09
0.0161034 -1.35525e-20 4.04844e-10 1.54603e-08
-0.0161034 -1.35525e-20 4.04848e-10 2.33969e-05
-0.016119 -4.51751e-21 0.000594151 1.41594e-05
0.016119 0 0.000594174 8.93574e-09
-0.01613 4.51751e-21 0.00122518 2.9248e-06
0.01613 2.25875e-21 0.00122521 1.30934e-09
0.0162343 -1.35525e-20 3.59814e-10 1.55659e-08
-0.0162343 -2.71051e-20 3.59814e-10 2.40422e-05
0.0162345 -1.35525e-20 0.000113277 1.55693e-08
-0.0162345 -1.35525e-20 0.000113279 2.40211e-05
-0.0161354 9.03502e-21 0.00188647 1.3675e-06
0.0161355 -4.51751e-21 0.00188651 4.28128e-10
-0.0161281 2.25875e-21 0.00255569 3.1e-06
0.0161282 0 0.00255574 1.38636e-09
-0.015998 1.35525e-20 0.0032882 6.73735e-06
0.0159982 2.71051e-20 0.00328826 3.46817e-09
-0.0160357 0 0.00323052 6.82282e-06
0.0160358 0 0.00323061 3.53763e-09
-0.016091 -1.35525e-20 0.00332623 7.76773e-06
0.0160912 1.35525e-20 0.00332628 4.15066e-09
0.0164377 -2.71051e-20 0.000292336 1.57347e-08
-0.0164377 -5.42101e-20 0.000292322 2.49026e-05
0.0164553 0 0.000897692 2.14211e-09
-0.0164553 5.42101e-20 0.00089766 4.9599e-06
-0.0162072 3.61401e-21 0.00298944 5.47479e-06
0.0162073 0 0.00298952 2.786e-09
-0.016466 2.71051e-20 0.00154116 1.57963e-06
0.016466 0 0.00154119 5.83764e-10
-0.016253 -1.35525e-20 0.00328154 8.26868e-06
0.016253 -1.35525e-20 0.00328162 4.43024e-09
-0.0162529 1.35525e-20 0.00339231 8.49418e-06
0.016253 -1.35525e-20 0.00339232 4.53944e-09
-0.0164659 0 0.00220933 1.34173e-06
0.016466 2.71051e-20 0.00220938 2.93979e-10
-0.0166389 0 1.04271e-10 2.52978e-05
0.0166389 1.35525e-20 1.04262e-10 1.55115e-08
-0.0166447 0 0.000100566 2.52961e-05
0.0166447 1.35525e-20 0.000100563 1.55138e-08
-0.0165069 0 0.00278852 2.06742e-06
0.016507 2.71051e-20 0.00278859 6.91228e-10
0.0167551 0 6.18359e-11 1.53273e-08
-0.0167551 0 6.18413e-11 2.50833e-05
-0.0167741 4.51751e-21 0.000577078 1.55214e-05
0.0167741 2.25875e-21 0.000577088 8.96935e-09
-0.0164731 0 0.00325216 8.20837e-06
0.0164733 0 0.00325224 4.33377e-09
-0.0167929 -1.12938e-21 0.00119995 3.66968e-06
0.0167929 2.25875e-21 0.00119996 1.56701e-09
-0.0164937 0 0.00349064 9.28032e-06
0.016494 1.35525e-20 0.00349077 5.05336e-09
0.0168627 -1.35525e-20 5.62475e-11 1.51577e-08
-0.0168627 -1.35525e-20 5.62517e-11 2.54343e-05
0.0168631 1.35525e-20 9.00315e-05 1.51644e-08
-0.0168631 -1.35525e-20 9.00368e-05 2.54312e-05
-0.0167974 1.12938e-21 0.0018671 1.67453e-06
0.0167974 -5.64689e-21 0.00186712 5.60662e-10
-0.016565 1.35525e-20 0.00339846 9.26602e-06
0.0165653 2.71051e-20 0.00339864 5.08555e-09
-0.0168042 -3.38813e-21 0.00251849 1.78341e-06
0.0168043 -1.12938e-21 0.00251854 5.46928e-10
-0.0166661 2.71051e-20 0.00356101 9.53865e-06
0.0166663 2.71051e-20 0.00356109 5.44197e-09
-0.0167843 -5.64689e-21 0.00309016 6.06689e-06
0.0167844 -2.25875e-21 0.00309022 3.22365e-09
0.0170872 2.71051e-20 0.000280474 1.49566e-08
-0.0170872 -2.71051e-20 0.000280467 2.58212e-05
0.0171094 -2.71051e-20 0.000869698 2.54146e-09
-0.0171094 0 0.000869686 5.83512e-06
-0.017124 0 0.00151088 2.21342e-06
0.017124 2.71051e-20 0.0015109 9.24341e-10
-0.016855 -6.77626e-21 0.00363794 1.13205e-05
0.016855 -1.35525e-20 0.00363795 6.75872e-09
-0.0171219 -2.71051e-20 0.00218641 1.56887e-06
0.0171219 -2.71051e-20 0.00218644 4.37631e-10
-0.0173128 0 1.50015e-11 2.56927e-05
0.0173128 1.35525e-20 1.49999e-11 1.39032e-08
-0.017316 0 7.61108e-05 2.56918e-05
0.017316 0 7.61049e-05 1.39009e-08
-0.016994 4.51751e-21 0.00347025 1.10196e-05
0.0169942 -9.03502e-21 0.00347044 6.62904e-09
-0.0169523 6.77626e-21 0.00367759 1.15793e-05
0.0169528 1.35525e-20 0.00367779 7.03176e-09
-0.0171196 -2.71051e-20 0.00284364 2.1248e-06
0.0171197 -2.71051e-20 0.00284371 7.45721e-10
0.0174041 1.35525e-20 1.00263e-11 1.39768e-08
-0.0174041 1.35525e-20 1.00267e-11 2.52738e-05
0.0174225 0 0.000552277 8.72423e-09
-0.0174225 0 0.000552274 1.61315e-05
-0.0174465 -2.25875e-21 0.00116234 4.60382e-06
0.0174465 -2.25875e-21 0.00116235 2.62135e-09
0.0174883 0 9.27523e-12 1.2722e-08
-0.0174883 0 9.27554e-12 2.54492e-05
0.0174886 1.35525e-20 6.91564e-05 1.27287e-08
-0.0174886 0 6.91614e-05 2.54503e-05
-0.0174525 2.25875e-21 0.00183359 2.17975e-06
0.0174525 1.12938e-21 0.0018336 1.05162e-09
-0.0171558 -4.06576e-20 0.00376044 1.04138e-05
0.0171561 0 0.00376058 6.51982e-09
-0.0174398 2.25875e-21 0.00252756 1.84633e-06
0.0174399 5.64689e-21 0.0025276 6.79798e-10
-0.0172703 0 0.00381189 9.60291e-06
0.0172706 1.35525e-20 0.003812 6.30154e-09
-0.0173099 -1.35525e-20 0.00368922 9.78734e-06
0.0173101 0 0.00368943 6.37973e-09
-0.0174177 -7.52918e-22 0.0032729 6.71272e-06
0.0174179 -1.12938e-21 0.00327297 3.93006e-09
0.0177262 0 0.000264495 1.17122e-08
-0.0177263 -2.71051e-20 0.000264494 2.53237e-05
0.017753 -2.71051e-20 0.000830849 4.85966e-09
-0.017753 0 0.000830841 6.93041e-06
-0.0177739 0 0.00146634 3.2857e-06
0.0177739 2.71051e-20 0.00146635 1.97435e-09
-0.0174674 0 0.00388874 9.58332e-06
0.0174675 -6.77626e-21 0.0038888 5.82141e-09
-0.0177697 0 0.00215829 1.67654e-06
0.0177697 2.71051e-20 0.0021583 8.72177e-10
-0.0175192 6.77626e-21 0.0039114 9.60325e-06
0.0175194 0 0.00391155 5.84018e-09
-0.0175515 0 0.00385282 9.7066e-06
0.0175519 0 0.00385278 5.9373e-09
-0.0177417 0 0.00287714 1.99314e-06
0.0177418 -2.71051e-20 0.0028772 6.55047e-10
0.017981 -6.77626e-21 1.39444e-12 1.39171e-08
-0.017981 -6.77626e-21 1.3943e-12 2.46274e-05
0.0179821 0 5.25103e-05 1.39243e-08
-0.0179821 -6.77626e-21 5.25107e-05 2.46268e-05
-0.0175795 2.03288e-20 0.00394118 9.4959e-06
0.01758 -1.35525e-20 0.00394143 5.66928e-09
-0.0176602 6.02335e-21 0.00367713 9.50058e-06
0.0176605 0 0.00367727 5.86086e-09
0.0180463 0 7.99282e-13 1.58656e-08
-0.0180463 -6.77626e-21 7.99057e-13 2.44159e-05
0.0180587 1.12938e-21 0.000513287 1.44849e-08
-0.0180587 0 0.000513287 1.68855e-05
0.0181036 0 4.49211e-05 1.61549e-08
-0.0181036 0 4.4918e-05 2.45621e-05
0.0181054 0 7.64381e-13 1.60991e-08
-0.0181054 6.77626e-21 7.64199e-13 2.45612e-05
0.0181063 -9.03502e-22 0.00109871 1.01163e-08
-0.0181063 9.03502e-22 0.00109871 6.92741e-06
-0.0181013 0 0.00178214 3.04035e-06
0.0181014 1.69407e-21 0.00178215 2.46471e-09
-0.0180751 0 0.002514 1.86458e-06
0.0180751 -3.38813e-21 0.00251403 1.05499e-09
-0.0177928 1.35525e-20 0.00406344 9.23804e-06
0.0177931 1.35525e-20 0.00406363 4.90314e-09
-0.0178461 1.35525e-20 0.00400264 9.3454e-06
0.0178465 0 0.00400286 5.04085e-09
-0.018018 4.51751e-21 0.00326638 4.34832e-06
0.0180181 2.25875e-21 0.00326648 2.32438e-09
0.0183484 0 0.000235241 1.83575e-08
-0.0183484 0 0.000235238 2.38797e-05
-0.0178962 0 0.00412302 9.94425e-06
0.0178965 0 0.00412318 5.40879e-09
0.0183932 -2.71051e-20 0.000764488 2.11848e-08
-0.0183932 0 0.000764489 1.05449e-05
-0.0180569 -2.03288e-21 0.00374603 7.42623e-06
0.0180571 -1.807e-21 0.00374614 3.97466e-09
-0.0184338 -2.71051e-20 0.00138083 5.41467e-06
0.0184338 0 0.00138083 5.08511e-09
-0.0184038 5.42101e-20 0.00212475 1.90986e-06
0.0184038 -2.71051e-20 0.00212477 2.02969e-09
-0.0185327 3.38813e-21 3.11486e-13 2.82738e-05
0.0185329 -3.38813e-21 3.11329e-13 9.86684e-08
-0.0180751 -1.35525e-20 0.00422612 1.09797e-05
0.0180753 -1.35525e-20 0.00422622 5.68004e-09
-0.0183783 -2.71051e-20 0.00286013 1.87013e-06
0.0183783 0 0.00286017 6.99763e-10
0.0186585 3.95282e-21 0.000460868 9.36263e-08
-0.0186585 -3.95282e-21 0.000460863 2.32671e-05
-0.0181758 0 0.00428412 1.12206e-05
0.0181761 0 0.00428433 5.64243e-09
-0.0182334 -4.51751e-21 0.00409678 1.08299e-05
0.0182336 4.51751e-21 0.00409694 5.5725e-09
-0.0183787 0 0.00352164 2.95108e-06
0.0183789 0 0.00352172 9.51544e-10
-0.018738 0 2.24787e-13 2.95092e-05
0.018738 0 2.24588e-13 1.29443e-07
-0.0187383 3.38813e-21 1.8583e-05 2.95324e-05
0.0187383 0 1.85606e-05 1.29837e-07
-0.0187394 0 0.000144294 2.78756e-05
0.0187394 0 0.000144153 1.24321e-07
-0.0187637 0 5.2385e-14 2.98452e-05
0.0187638 0 5.23963e-14 1.34107e-07
0.018782 3.38813e-21 1.5237e-05 1.31294e-07
-0.018782 -3.38813e-21 1.52548e-05 2.95252e-05
0.0187834 -3.38813e-21 4.17921e-14 1.30878e-07
-0.0187835 -6.77626e-21 4.17719e-14 2.9496e-05
0.0187414 5.64689e-23 0.00174786 5.95868e-09
-0.0187414 0 0.00174787 4.4534e-06
0.0188423 3.38813e-21 3.05852e-14 1.42621e-07
-0.0188424 -3.38813e-21 3.05567e-14 3.07438e-05
-0.0188306 4.51751e-21 0.000951028 1.77014e-05
0.0188306 -9.03502e-21 0.000951028 6.71331e-08
-0.0183689 -2.71051e-20 0.00439542 1.09709e-05
0.0183691 -2.71051e-20 0.00439559 5.29758e-09
-0.0187534 -4.03349e-23 0.00244424 2.28838e-06
0.0187534 -3.22679e-22 0.00244427 2.47921e-09
-0.0186869 0 0.00320185 2.32231e-06
0.018687 0 0.00320189 9.51459e-10
-0.0184805 1.35525e-20 0.00445982 1.11019e-05
0.0184807 0 0.00445997 5.12461e-09
-0.0185301 -1.35525e-20 0.00433158 1.10846e-05
0.0185303 1.35525e-20 0.00433174 5.20025e-09
-0.0186603 -3.76459e-22 0.00393311 7.41317e-06
0.0186605 -1.12938e-21 0.0039332 3.30189e-09
0.0191245 0 0.000340867 2.43018e-07
-0.0191245 -1.12938e-21 0.000340856 3.49244e-05
0.0192203 -1.35525e-20 9.46707e-15 2.28631e-07
-0.0192204 1.35525e-20 9.45324e-15 3.48041e-05
-0.0191646 0 0.00146339 8.00102e-06
0.0191646 0 0.00146338 1.12762e-08
-0.0190143 0 0.00283781 2.02e-06
0.0190144 2.71051e-20 0.00283783 1.52701e-09
-0.0186819 0 0.00457601 1.15736e-05
0.0186821 0 0.00457612 4.79549e-09
-0.0187038 0 0.00458864 1.15996e-05
0.018704 1.69407e-21 0.00458877 4.81057e-09
-0.01916 -2.71051e-20 0.00195783 3.77033e-06
0.01916 -5.42101e-20 0.00195783 7.10635e-09
-0.0187217 0 0.00456119 1.15898e-05
0.0187219 0 0.00456127 4.85322e-09
-0.0187284 1.01644e-20 0.00460285 1.16987e-05
0.0187286 1.01644e-20 0.00460299 4.75764e-09
-0.0189854 2.71051e-20 0.00354614 2.38519e-06
0.0189855 -2.71051e-20 0.00354618 6.3881e-10
-0.0188773 -7.52918e-21 0.00434122 1.0823e-05
0.0188775 4.51751e-21 0.00434132 4.86689e-09
-0.0193797 0 0.000837434 3.00634e-05
0.0193798 0 0.000837383 1.25748e-07
-0.0193834 2.11758e-21 0.00085584 2.99136e-05
0.0193835 2.11758e-21 0.000855835 1.21037e-07
-0.0194038 -1.27055e-21 0.000856716 3.03735e-05
0.0194039 -1.27055e-21 0.000856714 1.22169e-07
0.0194237 0 1.54975e-15 2.20086e-07
-0.0194238 -1.35525e-20 1.53986e-15 4.54986e-05
-0.0193729 0 0.00169001 6.65054e-06
0.0193729 0 0.00169001 1.18017e-08
-0.0193777 -7.05861e-22 0.00244586 3.32085e-06
0.0193778 -1.41172e-22 0.00244587 4.02288e-09
-0.0189667 1.35525e-20 0.0047403 1.25345e-05
0.0189668 -1.35525e-20 0.00474041 4.17823e-09
-0.0193197 -3.38813e-21 0.00318402 2.51918e-06
0.0193198 1.12938e-21 0.00318404 1.27074e-09
-0.0190326 1.35525e-20 0.0046715 1.25632e-05
0.0190327 0 0.00467159 4.31027e-09
-0.0195819 0 0.00142153 9.38157e-06
0.019582 2.71051e-20 0.00142152 2.09896e-08
-0.019255 2.25875e-21 0.00392942 5.50989e-06
0.019255 0 0.00392947 1.95413e-09
-0.019653 0 3.99218e-16 5.80985e-05
0.019653 2.03288e-20 4.03295e-16 3.18794e-07
-0.0195685 0 0.00193727 5.61689e-06
0.0195685 -2.71051e-20 0.00193726 8.89181e-09
-0.0190798 2.71051e-20 0.00480552 1.39452e-05
0.0190799 0 0.00480561 4.61752e-09
-0.0197213 0 0.000269929 6.28926e-05
0.0197213 2.25875e-21 0.000269962 3.21576e-07
-0.0192752 2.25875e-21 0.00441197 1.00583e-05
0.0192754 -1.807e-21 0.00441204 3.43485e-09
0.0198342 0 4.71809e-16 3.31788e-07
-0.0198343 3.38813e-21 4.68214e-16 6.75682e-05
-0.0192473 0 0.00490218 1.65563e-05
0.0192474 -6.77626e-21 0.00490225 5.02863e-09
-0.0196698 -2.71051e-20 0.00278692 2.93131e-06
0.0196698 -2.71051e-20 0.00278693 2.33242e-09
-0.0196163 2.71051e-20 0.00353247 2.74779e-06
0.0196163 2.71051e-20 0.0035325 6.21416e-10
-0.019321 -3.38813e-20 0.00494469 1.67833e-05
0.0193211 -6.77626e-21 0.00494477 4.91216e-09
-0.0194215 -4.51751e-21 0.00475386 1.54749e-05
0.0194216 -1.35525e-20 0.00475393 4.80336e-09
-0.0200351 0 -3.29861e-17 7.89004e-05
0.0200352 0 -3.30812e-17 3.42771e-07
-0.0200397 8.47033e-22 0.000879744 5.14181e-05
0.0200398 -8.47033e-22 0.000879732 1.87011e-07
-0.0196209 0 0.00418606 4.77492e-06
0.0196209 2.71051e-20 0.0041861 8.42444e-10
-0.0200081 0 0.00168408 8.57346e-06
0.0200082 -2.82344e-22 0.00168407 1.45995e-08
-0.0200926 0 6.73549e-05 8.50703e-05
0.0200928 0 6.74599e-05 4.02097e-07
-0.0200965 0 -7.17225e-19 8.507e-05
0.0200967 0 -7.66423e-19 4.01309e-07
-0.0201334 0 8.63193e-18 8.40175e-05
0.0201336 1.35525e-20 8.60253e-18 3.44085e-07
-0.019508 -1.35525e-20 0.00505259 1.59494e-05
0.0195081 -2.71051e-20 0.00505265 4.27755e-09
-0.0200346 1.12938e-21 0.00229471 5.25284e-06
0.0200346 -2.25875e-21 0.0022947 6.31487e-09
-0.0199605 -2.03288e-21 0.00311687 3.37718e-06
0.0199605 -2.03288e-21 0.00311687 2.17537e-09
-0.0202249 0 6.9338e-05 8.6742e-05
0.0202254 1.35525e-20 6.9446e-05 2.98224e-07
-0.0202304 0 -1.76858e-17 8.67452e-05
0.0202308 0 -1.76992e-17 2.98156e-07
-0.0199313 -1.12938e-21 0.0038555 3.81737e-06
0.0199314 1.12938e-21 0.00385553 6.65493e-10
-0.0196734 -1.35525e-20 0.00514806 1.68764e-05
0.0196735 2.03288e-20 0.00514812 4.17973e-09
-0.0198941 3.61401e-21 0.00456699 9.50081e-06
0.0198942 2.71051e-21 0.00456703 2.20225e-09
-0.0197657 6.77626e-21 0.00520128 1.727e-05
0.0197658 -1.35525e-20 0.00520135 3.9305e-09
-0.0198217 0 0.00501122 1.62711e-05
0.0198218 0 0.00501128 3.91945e-09
-0.0202896 -2.71051e-20 0.00277321 3.8311e-06
0.0202896 0 0.00277322 3.39609e-09
-0.0202612 -2.71051e-20 0.00349053 3.33478e-06
0.0202612 2.71051e-20 0.00349054 8.77203e-10
-0.0199064 0 0.00528243 1.65807e-05
0.0199065 0 0.0052825 3.01359e-09
-0.020245 0 0.0041794 4.36216e-06
0.0202451 2.71051e-20 0.00417943 3.24466e-10
-0.0206572 0 0.00171988 1.08746e-05
0.0206573 5.42101e-20 0.00171988 1.42105e-08
-0.0201293 -1.50584e-21 0.00498603 1.34734e-05
0.0201293 -1.50584e-21 0.00498607 2.34013e-09
-0.0200531 0 0.00536707 1.84581e-05
0.0200531 -6.77626e-21 0.00536711 2.74357e-09
0.0206314 7.05861e-23 0.00242248 5.94909e-09
-0.0206314 1.41172e-22 0.0024225 5.71576e-06
-0.0207755 -5.42101e-20 0.00051497 0.000109493
0.0207756 0 0.000514975 9.84899e-08
-0.0205987 0 0.00311579 4.14713e-06
0.0205987 5.64689e-22 0.00311579 2.36398e-09
-0.0203104 -2.71051e-20 0.00476269 6.57191e-06
0.0203105 -2.71051e-20 0.00476272 5.16428e-10
-0.0201708 1.35525e-20 0.00543499 1.97604e-05
0.0201709 2.71051e-20 0.00543504 2.59285e-09
-0.0202176 -9.03502e-21 0.00527687 1.87115e-05
0.0202177 -4.51751e-21 0.00527691 2.659e-09
-0.0205738 -3.38813e-21 0.0038174 4.75557e-06
0.0205738 -1.12938e-21 0.00381741 6.93936e-10
-0.0205818 2.25875e-21 0.00447088 6.49404e-06
0.0205819 -1.12938e-21 0.0044709 3.64919e-10
-0.0203369 2.71051e-20 0.00553082 2.09096e-05
0.020337 1.35525e-20 0.00553084 2.38624e-09
-0.0209426 0 0.00274702 4.64029e-06
0.0209426 0 0.00274701 3.92779e-09
-0.0209032 -2.71051e-20 0.00344945 4.72818e-06
0.0209032 -2.71051e-20 0.00344946 1.24864e-09
-0.0204446 1.35525e-20 0.00559295 2.26877e-05
0.0204447 1.35525e-20 0.00559297 2.26905e-09
-0.0204857 0 0.00548988 2.23208e-05
0.0204858 0 0.0054899 2.32039e-09
-0.0206003 -1.50584e-21 0.00512926 1.54846e-05
0.0206004 2.25875e-21 0.00512929 1.51064e-09
-0.0208994 2.71051e-20 0.00412603 6.55192e-06
0.0208995 2.71051e-20 0.00412604 3.48068e-10
-0.0213129 0 8.97567e-05 0.000118073
0.0213129 2.71051e-20 8.97114e-05 1.04006e-07
-0.0213195 0 -2.89258e-18 0.000118064
0.0213195 2.71051e-20 -2.81088e-18 1.03996e-07
-0.0213562 0 0.00112757 6.81254e-05
0.0213563 -4.51751e-21 0.00112758 6.26048e-08
-0.0206271 0 0.00569824 2.46877e-05
0.0206272 0 0.00569827 2.11542e-09
-0.0208932 0 0.00478634 8.47575e-06
0.0208932 -2.71051e-20 0.00478636 2.52333e-10
-0.0213143 0 0.00228576 8.49969e-06
0.0213143 2.25875e-21 0.00228575 8.58969e-09
-0.0214402 -1.35525e-20 1.08036e-18 0.000120455
0.0214402 0 1.08377e-18 1.09967e-07
-0.0206783 -6.77626e-21 0.00572779 2.49351e-05
0.0206784 0 0.00572782 2.13193e-09
0.0212371 5.64689e-22 0.00307352 3.05412e-09
-0.0212371 0 0.00307353 5.47195e-06
-0.0207149 -6.77626e-21 0.00567146 2.46444e-05
0.0207149 3.38813e-21 0.00567151 2.1889e-09
-0.0207374 -1.35525e-20 0.00576188 2.64681e-05
0.0207375 0 0.0057619 2.03754e-09
-0.0208292 1.05409e-20 0.00551236 2.27473e-05
0.0208293 1.50584e-21 0.0055124 2.22745e-09
0.0215471 1.35525e-20 0.000109109 1.1039e-07
-0.0215472 0 0.000109168 0.000123846
0.0215567 -1.35525e-20 9.64873e-19 1.10416e-07
-0.0215568 -1.35525e-20 9.62153e-19 0.00012388
-0.0212592 -3.5293e-22 0.00373092 6.38577e-06
0.0212592 0 0.00373093 1.08508e-09
-0.0212041 1.12938e-21 0.0044583 8.34091e-06
0.0212042 3.38813e-21 0.00445832 3.29071e-10
-0.0209534 -1.35525e-20 0.00588666 3.07828e-05
0.0209535 0 0.00588668 1.71735e-09
-0.0211675 2.25875e-21 0.00514627 1.51863e-05
0.0211675 2.25875e-21 0.0051463 8.81766e-10
-0.0210047 0 0.00583277 3.08378e-05
0.0210048 0 0.0058328 1.77158e-09
-0.0216644 0 0.00284436 7.04802e-06
0.0216644 0 0.00284436 4.34471e-09
-0.0210554 0 0.00594571 3.31175e-05
0.0210555 0 0.00594574 1.84983e-09
-0.0216615 2.71051e-20 0.00329946 6.49582e-06
0.0216616 2.71051e-20 0.00329946 2.16189e-09
-0.0215296 0 0.00411133 8.09899e-06
0.0215297 2.71051e-20 0.00411133 5.32313e-10
-0.0212153 7.52316e-38 0.0055934 2.57167e-05
0.0212154 1.35525e-21 0.00559344 1.39609e-09
-0.0219545 -5.42101e-20 0.00177021 1.42248e-05
0.0219546 0 0.0017702 1.59338e-08
-0.0220218 0 0.000571119 0.000132564
0.0220218 -5.42101e-20 0.000571112 1.16522e-07
-0.0215067 -2.71051e-20 0.00478713 1.01436e-05
0.0215068 0 0.00478717 1.85671e-10
-0.0219097 1.12938e-21 0.00242093 9.51803e-06
0.0219097 1.12938e-21 0.00242091 8.11064e-09
-0.021227 0 0.00604562 4.02442e-05
0.0212271 0 0.00604568 1.8358e-09
-0.021872 1.35525e-20 0.00306771 7.29919e-06
0.0218721 -1.35525e-20 0.00306771 3.3709e-09
-0.0215266 -2.71051e-20 0.00539884 1.6181e-05
0.0215266 2.71051e-20 0.00539887 3.06282e-10
-0.021392 4.51751e-21 0.0059417 4.02588e-05
0.0213921 -9.03502e-21 0.00594175 1.80166e-09
-0.0218838 1.69407e-21 0.00375446 8.75618e-06
0.0218838 5.64689e-22 0.00375445 1.28791e-09
-0.0213574 -2.03288e-20 0.0061213 4.32127e-05
0.0213575 -1.35525e-20 0.00612135 1.75758e-09
-0.0218345 -2.25875e-21 0.00443966 1.04481e-05
0.0218345 -4.51751e-21 0.00443967 4.45536e-10
-0.0221011 2.71051e-20 0.00283878 8.12334e-06
0.0221011 2.71051e-20 0.00283879 4.54977e-09
-0.0220656 2.71051e-20 0.0032889 7.97735e-06
0.0220656 -2.71051e-20 0.0032889 2.44946e-09
-0.0218182 2.25875e-21 0.00510345 1.4308e-05
0.0218183 3.38813e-21 0.00510348 2.4127e-10
-0.0215448 0 0.00623066 4.31758e-05
0.0215449 0 0.00623073 1.60425e-09
-0.0225383 0 9.17545e-05 0.000134991
0.0225385 -1.35525e-20 9.1676e-05 1.20104e-07
-0.0225403 1.35525e-20 1.77349e-19 0.000134952
0.0225405 0 1.79243e-19 1.20066e-07
-0.0216442 -1.35525e-20 0.00630958 4.31491e-05
-0.0221735 -2.71051e-20 0.00407696 1.07082e-05
0.0221736 0 0.00407697 7.94935e-10
0.0216443 0 0.00630967 1.47856e-09
-0.0216896 -1.35525e-20 0.00619113 4.31272e-05
0.0216897 -1.35525e-20 0.0061912 1.53325e-09
-0.0218102 -1.50584e-21 0.00580095 3.20153e-05
0.0218103 -3.76459e-22 0.00580099 1.01638e-09
-0.0225989 4.51751e-21 0.00115697 7.79957e-05
0.0225989 0 0.00115697 7.00406e-08
-0.0226373 -1.35525e-20 8.07456e-20 0.000135434
0.0226374 0 8.21344e-20 1.21115e-07
-0.0221352 0 0.00476855 1.2786e-05
0.0221353 -2.71051e-20 0.00476855 2.74586e-10
-0.022582 2.25875e-21 0.00236337 1.38704e-05
0.022582 9.03502e-21 0.00236337 1.01849e-08
-0.022501 0 0.00305827 9.81067e-06
0.022501 0 0.00305827 3.69939e-09
-0.0225096 4.23516e-22 0.00305557 9.8498e-06
0.0225095 0 0.00306051 3.70431e-09
-0.0227256 1.35525e-20 8.82314e-05 0.000136578
0.0227256 0 8.81536e-05 1.22201e-07
-0.0227308 0 3.0902e-20 0.000136586
0.0227308 -1.35525e-20 3.15503e-20 1.22223e-07
-0.0218386 1.69407e-21 0.00644697 4.30012e-05
0.0218387 0 0.00644705 1.31371e-09
-0.0221178 -2.71051e-20 0.00543871 1.79627e-05
0.0221179 0 0.00543874 1.92178e-10
-0.0218565 0 0.0064596 4.32451e-05
0.0218566 1.69407e-21 0.00645967 1.31418e-09
-0.0218725 0 0.00643778 4.34322e-05
0.0218726 0 0.00643786 1.33292e-09
-0.0218744 8.47033e-21 0.00647346 4.29745e-05
0.0218745 -1.52466e-20 0.00647351 1.28211e-09
-0.0225287 -4.51751e-22 0.00364569 1.17348e-05
0.0225287 0 0.00364569 1.7804e-09
-0.0224649 -5.64689e-22 0.00441819 1.3804e-05
0.022465 -5.64689e-22 0.00441819 6.9216e-10
-0.0220385 1.50584e-21 0.00622588 4.40983e-05
0.0220386 -1.50584e-21 0.00622593 1.44493e-09
-0.0224373 2.25875e-21 0.00510163 1.69929e-05
0.0224374 0 0.00510165 3.03078e-10
-0.022069 1.35525e-20 0.00662862 4.03241e-05
0.0220691 -1.35525e-20 0.00662868 9.7266e-10
-0.0221728 -1.35525e-20 0.00656826 4.09091e-05
0.0221729 0 0.00656832 1.02203e-09
-0.0223901 6.77626e-21 0.00581142 2.87471e-05
0.0223902 4.51751e-21 0.00581146 5.9176e-10
-0.0227864 5.42101e-20 0.00407104 1.45391e-05
0.0227864 2.71051e-20 0.00407104 1.17887e-09
-0.0221653 -1.35525e-20 0.00670524 4.01117e-05
0.0221653 0 0.0067053 9.785e-10
-0.0232274 -5.42101e-20 0.000581689 0.000139247
0.0232275 5.42101e-20 0.000581683 1.25995e-07
-0.0227665 2.71051e-20 0.00474854 1.70492e-05
0.0227666 2.71051e-20 0.00474855 5.10973e-10
-0.0231993 5.42101e-20 0.00176869 2.15291e-05
0.0231993 0 0.00176868 1.78587e-08
-0.0222608 -1.35525e-20 0.00678083 3.97499e-05
0.0222609 -1.35525e-20 0.0067809 8.54975e-10
-0.0223061 1.35525e-20 0.00667609 4.045e-05
0.0223061 0 0.00667615 9.31052e-10
-0.0224559 6.45358e-22 0.00637515 3.70805e-05
0.0224559 4.03349e-22 0.00637519 8.01653e-10
-0.023153 -5.42101e-20 0.00306262 1.40001e-05
0.023153 -5.42101e-20 0.00306262 4.03613e-09
-0.0227373 -2.71051e-20 0.00543368 2.00293e-05