# kMean  POINT_DATA 15411
# x  y  z  kMean
-1.35525e-20 0.015557 5.70113e-08 4.93523e-10
1.35525e-20 -0.015557 5.70113e-08 1.97034e-06
0 -0.015557 0.000135955 1.96939e-06
6.77626e-21 0.015557 0.000135978 4.97277e-10
0 -0.015557 0.000527091 2.3954e-06
-6.77626e-21 0.015557 0.000527192 5.70407e-10
0 -0.015557 0.000659598 2.70455e-06
0 0.015557 0.00065972 6.1739e-10
-6.77626e-21 -0.015557 0.000798595 3.00418e-06
0 0.015557 0.000798713 6.77818e-10
-6.77626e-21 -0.0155569 0.00121618 3.23509e-06
-6.77626e-21 0.0155569 0.00121632 7.43504e-10
0 -0.0155569 0.0013548 3.11033e-06
-6.77626e-21 0.0155569 0.00135493 7.29247e-10
0 -0.0156159 6.66059e-05 1.95034e-06
-6.77626e-21 0.0156159 6.66205e-05 4.89924e-10
6.77626e-21 -0.015617 5.86706e-08 1.95056e-06
6.77626e-21 0.015617 5.86703e-08 4.90008e-10
0 -0.0156133 0.000594009 2.52237e-06
0 0.0156134 0.000594136 5.88294e-10
0 -0.0156101 0.000720993 2.82363e-06
6.77626e-21 0.0156101 0.000721135 6.41527e-10
0 -0.0155569 0.00150202 2.93827e-06
-6.77626e-21 0.0155569 0.00150211 7.29905e-10
6.77626e-21 -0.0156099 0.00127802 3.13228e-06
0 0.0156099 0.00127818 7.29257e-10
6.77626e-21 -0.0156067 0.00140494 2.98221e-06
0 0.0156067 0.00140508 7.22845e-10
6.77626e-21 -0.0156758 6.25745e-08 2.51194e-06
6.77626e-21 0.0156759 6.25738e-08 8.32277e-10
0 -0.0155569 0.00193256 3.33159e-06
-6.77626e-21 0.015557 0.00193259 8.33204e-10
1.35525e-20 -0.0156643 0.000653665 2.73897e-06
2.71051e-20 0.0156643 0.000653856 7.1741e-10
-6.77626e-21 0.015557 0.002087 9.49224e-10
6.77626e-21 -0.015557 0.002087 3.86737e-06
1.35525e-20 -0.0156581 0.00132517 2.7342e-06
0 0.0156581 0.00132537 6.36468e-10
6.77626e-21 0.0156109 0.00197559 8.61121e-10
0 -0.0156109 0.00197556 3.5147e-06
-6.77626e-21 -0.01562 0.00210848 4.04125e-06
-6.77626e-21 0.01562 0.00210848 9.39342e-10
6.77626e-21 0.0156426 0.00205606 9.21129e-10
0 -0.0156426 0.00205603 3.9165e-06
-6.77626e-21 0.0156707 0.00197917 8.00734e-10
0 -0.0156707 0.00197909 3.36132e-06
1.35525e-20 -0.0156949 0.00213398 4.14577e-06
0 0.0156949 0.00213398 1.08462e-09
-3.38813e-20 -0.015885 7.41481e-08 2.36683e-06
-6.77626e-21 0.015885 7.41479e-08 7.59857e-10
-1.12938e-21 -0.01589 0.000347638 2.29013e-06
0 0.01589 0.000347812 7.13583e-10
1.35525e-21 -0.0158834 0.000956224 3.05642e-06
-1.807e-21 0.0158834 0.000956574 7.28076e-10
1.50584e-21 -0.0158471 0.00154369 2.36987e-06
-3.76459e-21 0.0158471 0.00154397 5.95256e-10
5.64689e-22 0.0158414 0.00196399 9.07517e-10
0 -0.0158414 0.00196388 3.63632e-06
2.03288e-20 -0.015839 0.00218308 4.21587e-06
-6.77626e-21 0.015839 0.00218308 1.13402e-09
-1.35525e-20 -0.0159079 0.00220656 5.02792e-06
1.35525e-20 0.0159079 0.00220657 1.49948e-09
-2.25875e-21 -0.0160357 0.0016614 2.65765e-06
3.38813e-21 0.0160357 0.00166177 7.07058e-10
0 -0.0161336 1.64294e-05 5.00104e-06
-4.23516e-22 0.0161337 1.62936e-05 2.52499e-09
0 -0.0161343 5.30972e-08 5.00579e-06
4.23516e-22 0.0161345 5.3091e-08 2.52812e-09
1.35525e-20 -0.0159895 0.00223437 5.40975e-06
-2.71051e-20 0.0159895 0.00223438 1.64736e-09
0 -0.0161453 5.24536e-08 5.16222e-06
4.23516e-22 0.0161478 5.2446e-08 2.62606e-09
-3.38813e-21 -0.0161363 0.000658379 3.61145e-06
-3.38813e-21 0.0161363 0.000658899 1.40064e-09
0 -0.0161079 0.00123674 2.42301e-06
-2.25875e-21 0.0161079 0.00123731 6.0928e-10
7.52918e-22 -0.0162278 0.00195621 5.05239e-06
7.52918e-22 0.0162278 0.0019565 1.51938e-09
0 -0.0161978 0.00230533 5.74773e-06
0 0.016198 0.00230539 1.88104e-09
0 -0.0162561 0.00232518 5.90648e-06
-6.77626e-21 0.0162561 0.00232519 1.97366e-09
-6.77626e-21 0.016267 0.00230123 1.96014e-09
0 -0.016267 0.00230114 5.881e-06
-6.77626e-21 0.0162975 0.0022713 1.82837e-09
0 -0.0162976 0.0022711 5.53669e-06
3.38813e-20 0.0162993 0.00233988 1.96239e-09
0 -0.0162994 0.00233991 5.90727e-06
-1.807e-20 0.0164712 0.000318829 4.41524e-09
0 -0.0164713 0.000318482 8.00938e-06
9.03502e-21 0.0164838 0.000934255 9.14097e-10
-4.51751e-21 -0.0164839 0.000933479 2.70357e-06
-1.35525e-20 0.0165151 8.91806e-08 4.65265e-09
0 -0.0165152 8.91797e-08 8.6662e-06
-9.03502e-21 0.0164768 0.00151157 5.6651e-10
0 -0.0164769 0.00151091 1.85982e-06
2.71051e-20 0.0166394 9.23356e-08 4.4776e-09
0 -0.0166395 9.23348e-08 9.59042e-06
1.35525e-20 0.0165053 0.00240993 2.02818e-09
-4.06576e-20 -0.0165054 0.00240993 5.99235e-06
2.71051e-20 0.0167038 0.000635453 2.66346e-09
-2.71051e-20 -0.0167039 0.000634624 6.25497e-06
2.82344e-22 0.0165943 0.00217414 1.85574e-09
-3.10579e-21 -0.0165944 0.00217395 5.52694e-06
0 0.0167298 0.00122683 6.4905e-10
-5.42101e-20 -0.0167299 0.00122587 2.25624e-06
2.71051e-20 0.0166885 0.00181396 9.02382e-10
0 -0.0166886 0.00181342 3.04224e-06
0 -0.0166609 0.002463 5.71632e-06
0 0.0166609 0.00246301 1.89447e-09
0 0.0168423 7.09371e-08 5.37603e-09
-1.35525e-20 -0.0168424 7.09349e-08 1.14716e-05
0 0.0169749 0.000303028 5.67669e-09
-2.25875e-21 -0.016975 0.000302617 1.21615e-05
0 0.0168731 0.00220951 1.30703e-09
0 -0.0168731 0.0022093 4.2492e-06
0 0.016996 0.000918651 9.66426e-10
0 -0.0169961 0.00091773 2.55886e-06
-2.03288e-20 0.0168624 0.00253141 1.61311e-09
6.77626e-21 -0.0168624 0.00253143 5.31129e-06
4.51751e-21 0.0169886 0.00152444 3.36264e-10
-3.38813e-21 -0.0169887 0.00152368 1.24083e-06
-2.71051e-20 0.0170875 2.46042e-08 6.24042e-09
-1.35525e-20 -0.0170876 2.4598e-08 1.32864e-05
-4.51751e-21 0.0169822 0.0019947 5.84081e-10
4.51751e-21 -0.0169822 0.00199432 2.29695e-06
-9.03502e-21 -0.0169517 0.00241974 5.46751e-06
4.51751e-21 0.0169517 0.00241984 1.7338e-09
-2.03288e-20 -0.0169618 0.00256517 5.62181e-06
-2.71051e-20 0.0169619 0.0025652 1.76594e-09
-2.71051e-20 0.0172725 0.000609723 3.53489e-09
2.71051e-20 -0.0172727 0.000608854 8.25861e-06
2.71051e-20 0.017301 3.8681e-09 6.52136e-09
2.71051e-20 -0.0173012 3.85985e-09 1.44848e-05
2.71051e-20 0.0172756 0.00121852 6.03173e-10
2.71051e-20 -0.0172759 0.00121756 1.85931e-06
5.42101e-20 0.0172503 0.00183266 7.0977e-10
0 -0.0172504 0.00183216 2.19218e-06
-2.71051e-20 -0.0171626 0.00263335 7.79345e-06
0 0.0171626 0.00263335 2.90365e-09
0 0.0172628 0.00228364 1.69007e-09
-1.69407e-21 -0.0172628 0.00228347 4.84544e-06
-2.71051e-20 0.0175152 3.90385e-09 8.12678e-09
-1.35525e-20 -0.0175152 3.89758e-09 1.68773e-05
-2.25875e-21 0.0176167 0.000304206 8.4277e-09
-4.51751e-21 -0.0176168 0.0003039 1.73471e-05
-1.12938e-21 0.0176138 0.000914405 1.50262e-09
7.90564e-21 -0.0176139 0.000913728 3.44806e-06
-5.64689e-21 -0.0175987 0.00154607 1.23716e-06
-1.12938e-21 0.0175986 0.00154661 4.17494e-10
-8.47033e-22 0.0174822 0.00274305 3.02973e-09
-1.52466e-20 -0.0174824 0.00274311 8.84966e-06
2.37169e-20 -0.0174953 0.00274748 8.90807e-06
-1.10114e-20 0.0174954 0.00274754 3.05172e-09
-1.35525e-20 0.0177276 5.30319e-09 9.2119e-09
0 -0.0177276 5.30115e-09 1.89551e-05
2.25875e-21 -0.0176266 0.0021181 2.45868e-06
2.25875e-21 0.0176266 0.00211837 9.69112e-10
2.25875e-21 -0.0175734 0.00255388 8.43789e-06
4.51751e-21 0.0175734 0.00255396 2.96667e-09
0 -0.0179395 5.3668e-09 1.98418e-05
0 0.0179395 5.36695e-09 9.12243e-09
0 0.0179446 0.000602116 5.2483e-09
-2.71051e-20 -0.0179448 0.000601729 1.17892e-05
0 0.0179404 0.00122928 8.38831e-10
2.71051e-20 -0.0179405 0.00122883 2.40997e-06
0 -0.0179 0.00190857 2.65739e-06
0 0.0179 0.00190883 9.7245e-10
-2.71051e-20 -0.0177925 0.00284977 1.01088e-05
-2.71051e-20 0.0177926 0.00284978 4.23413e-09
0 -0.0179476 0.00242616 6.50112e-06
-2.71051e-20 0.0179477 0.00242626 2.55157e-09
-2.71051e-20 -0.0181451 4.40312e-09 2.14228e-05
1.35525e-20 0.0181451 4.40323e-09 9.47355e-09
0 -0.0180151 0.00292661 1.14465e-05
0 0.0180152 0.00292666 4.80216e-09
4.51751e-21 0.0182715 0.000300951 9.01699e-09
4.51751e-21 -0.0182716 0.000300824 2.07522e-05
4.51751e-21 0.0182775 0.000913256 2.02763e-09
-2.25875e-21 -0.0182775 0.000912982 5.37209e-06
1.12938e-20 -0.0182701 0.00156202 1.64531e-06
-2.25875e-21 0.0182702 0.00156226 5.38584e-10
2.25875e-21 -0.0182365 0.00214905 2.35522e-06
2.25875e-21 0.0182365 0.00214918 8.59388e-10
0 0.0181446 0.0029715 4.82851e-09
-6.77626e-21 -0.0181446 0.00297151 1.11499e-05
4.51751e-22 -0.018187 0.00270962 1.10192e-05
-9.03502e-22 0.018187 0.00270971 4.54494e-09
-1.35525e-20 0.0183922 2.43152e-09 9.89361e-09
1.35525e-20 -0.0183922 2.43142e-09 2.29171e-05
0 -0.0185886 1.4653e-09 2.31416e-05
0 0.0185886 1.46536e-09 1.00223e-08
2.71051e-20 -0.0183436 0.00304025 1.04017e-05
-2.71051e-20 0.0183438 0.00304031 4.73776e-09
2.71051e-20 0.0185996 0.000594964 5.81074e-09
0 -0.0185997 0.000594844 1.39828e-05
-1.16165e-20 -0.0186737 0.00129279 2.53292e-06
0 0.0186737 0.00129292 8.26394e-10
-1.35525e-20 -0.0187703 1.23407e-09 2.39771e-05
-2.71051e-20 0.0187703 1.23411e-09 1.03485e-08
-2.71051e-20 -0.0185172 0.00309968 1.03114e-05
3.38813e-20 0.0185172 0.00309971 4.83175e-09
1.807e-20 0.0187147 0.00187627 4.75958e-10
9.03502e-21 -0.0187147 0.00187618 1.64944e-06
-1.50584e-21 0.0186673 0.00253576 2.23981e-09
1.50584e-21 -0.0186673 0.00253569 5.46304e-06
-4.51751e-21 0.018823 0.000903617 2.25349e-09
0 -0.018823 0.000903518 6.49368e-06
6.77626e-21 0.0188705 0.000248278 9.87172e-09
-4.51751e-21 -0.0188706 0.000248244 2.31152e-05
1.35525e-20 -0.0186433 0.00294006 1.00448e-05
5.42101e-21 0.0186434 0.00294015 4.7593e-09
0 -0.0189391 0.0015442 1.54161e-06
0 0.018939 0.00154428 4.92888e-10
1.27055e-21 0.01877 0.00318707 4.42261e-09
2.22346e-21 -0.0187697 0.00318691 9.07832e-06
0 -0.0188366 0.00285351 7.61438e-06
6.77626e-21 0.0188366 0.0028535 3.57251e-09
1.35525e-20 0.0190684 6.42266e-10 1.05395e-08
0 -0.0190684 6.42229e-10 2.47962e-05
2.71051e-20 -0.0189469 0.0022033 1.72153e-06
0 0.0189469 0.00220336 4.34109e-10
0 -0.0189609 0.002942 7.66946e-06
6.77626e-21 0.018961 0.00294206 3.73774e-09
0 -0.0192376 4.1695e-10 2.432e-05
0 0.0192376 4.16977e-10 1.04523e-08
9.03502e-21 0.0192505 0.000578849 6.1813e-09
-2.25875e-21 -0.0192506 0.000578823 1.53384e-05
6.77626e-21 0.0192653 0.00120345 1.21133e-09
-2.25875e-21 -0.0192654 0.00120342 3.82983e-06
6.77626e-21 -0.0192727 0.00186892 1.8124e-06
-6.77626e-21 0.0192727 0.00186895 5.40892e-10
-1.35525e-20 -0.0190867 0.00329553 8.26613e-06
1.35525e-20 0.0190869 0.00329559 4.06146e-09
1.35525e-20 0.0193938 3.58667e-10 1.0315e-08
0 -0.0193938 3.58645e-10 2.45313e-05
1.35525e-20 0.0193936 0.000130558 1.03147e-08
1.35525e-20 -0.0193936 0.000130549 2.4528e-05
0 -0.019134 0.00323281 8.38452e-06
0 0.0191342 0.00323291 4.1322e-09
-2.25875e-21 -0.019259 0.0025456 3.76018e-06
-4.51751e-21 0.019259 0.00254567 1.46685e-09
2.71051e-20 -0.0192049 0.00333603 9.58627e-06
1.35525e-20 0.019205 0.00333606 5.17537e-09
-2.25875e-22 -0.0193216 0.00298789 6.74372e-06
-2.48463e-21 0.0193217 0.00298796 3.21676e-09
-2.71051e-20 0.0195688 0.0002809 1.03735e-08
2.71051e-20 -0.0195688 0.000280889 2.46633e-05
0 0.019589 0.000871785 1.93825e-09
2.71051e-20 -0.0195891 0.000871776 6.21491e-06
-2.71051e-20 0.019374 0.00328238 5.31979e-09
-2.71051e-20 -0.019374 0.00328231 1.00431e-05
2.71051e-20 0.0196057 0.00151362 7.76566e-10
0 -0.0196057 0.0015136 2.28818e-06
-1.35525e-20 0.0193742 0.00339401 5.54105e-09
2.71051e-20 -0.0193743 0.00339402 1.0327e-05
2.71051e-20 -0.0196062 0.00219166 1.69798e-06
2.71051e-20 0.0196062 0.0021917 4.45777e-10
-1.35525e-20 0.0197445 1.18814e-10 9.88167e-09
0 -0.0197445 1.18805e-10 2.46404e-05
-1.35525e-20 0.0197496 0.000118775 9.87469e-09
2.71051e-20 -0.0197497 0.000118768 2.4639e-05
0 -0.0196349 0.00277745 2.68145e-06
2.71051e-20 0.0196349 0.00277749 8.63518e-10
2.71051e-20 -0.0195953 0.00324393 9.70821e-06
1.35525e-20 0.0195954 0.00324399 5.13323e-09
-1.35525e-20 0.0198868 6.23618e-11 9.95285e-09
1.35525e-20 -0.0198869 6.23578e-11 2.42625e-05
-2.25875e-21 0.0199025 0.000551659 6.3131e-09
-2.25875e-21 -0.0199025 0.000551656 1.5763e-05
-1.35525e-20 -0.0196374 0.00348418 1.10367e-05
-2.71051e-20 0.0196377 0.00348428 6.35103e-09
0 0.0199263 0.001165 2.16996e-09
-1.12938e-21 -0.0199263 0.001165 4.59866e-06
1.35525e-20 -0.0197066 0.00339972 1.09489e-05
0 0.0197068 0.00339991 6.34984e-09
-1.35525e-20 0.0200175 0.000104914 8.43061e-09
0 -0.0200175 0.000104929 2.43207e-05
0 0.020018 5.47771e-11 8.41798e-09
0 -0.0200181 5.47715e-11 2.43178e-05
0 -0.0199354 0.00184126 2.14561e-06
-1.12938e-21 0.0199354 0.00184128 9.01341e-10
4.51751e-21 -0.0199396 0.00250633 2.21105e-06
2.25875e-21 0.0199397 0.00250637 8.16953e-10
-1.35525e-20 -0.0198049 0.00354152 1.11124e-05
-1.35525e-20 0.019805 0.00354156 7.17023e-09
1.12938e-21 -0.0199176 0.00307602 7.05241e-06
-4.51751e-21 0.0199177 0.00307606 4.02287e-09
0 -0.0202108 0.000262556 2.43051e-05
2.71051e-20 0.0202108 0.00026255 7.95136e-09
0 0.0202372 0.000828992 4.1267e-09
2.71051e-20 -0.0202372 0.000828987 7.04806e-06
0 0.0199792 0.00344752 8.12185e-09
-2.71051e-20 -0.0199793 0.00344738 1.21768e-05
-6.77626e-21 0.0199875 0.00360402 9.02856e-09
-1.35525e-20 -0.0199877 0.00360407 1.29687e-05
0 0.0202611 0.00146964 1.60808e-09
-2.71051e-20 -0.0202612 0.00146963 2.71169e-06
-2.71051e-20 -0.0202613 0.00216726 1.90423e-06
-5.42101e-20 0.0202614 0.00216729 7.76056e-10
-1.35525e-20 -0.020424 1.48352e-11 2.31495e-05
1.35525e-20 0.0204241 1.48335e-11 1.02029e-08
0 -0.0204263 8.83644e-05 2.3144e-05
1.35525e-20 0.0204264 8.83482e-05 1.02256e-08
6.77626e-21 -0.0201259 0.00365139 1.33085e-05
2.71051e-20 -0.0202574 0.00283427 2.50761e-06
-2.71051e-20 0.0202575 0.00283433 1.17831e-09
6.77626e-21 0.0201264 0.00365156 9.58814e-09
0 -0.0202301 0.00346725 1.27629e-05
0 0.0202303 0.00346745 9.00202e-09
0 -0.0205367 8.07365e-12 2.26041e-05
0 0.0205367 8.07331e-12 1.25835e-08
4.51751e-21 -0.0205431 0.000507253 1.53142e-05
-2.25875e-21 0.0205431 0.000507255 1.2405e-08
-2.25875e-21 0.0205806 0.00109812 7.31563e-09
0 -0.0205806 0.00109812 5.73642e-06
-1.35525e-20 0.0206332 7.23344e-05 1.40423e-08
-1.35525e-20 -0.0206332 7.23369e-05 2.18058e-05
0 0.0206362 7.47662e-12 1.3946e-08
-1.35525e-20 -0.0206362 7.47681e-12 2.18487e-05
1.35525e-20 -0.0203259 0.00371982 1.17593e-05
0 0.0203262 0.0037199 8.79373e-09
1.12938e-21 -0.0205919 0.0017924 2.82289e-06
-2.25875e-21 0.0205919 0.00179242 1.90921e-09
-4.51751e-21 -0.0205776 0.00251315 2.25038e-06
-3.38813e-21 0.0205776 0.00251319 1.04467e-09
-1.35525e-20 -0.0204397 0.00376151 1.17284e-05
1.35525e-20 0.0204398 0.00376155 8.69625e-09
-1.35525e-20 -0.0204727 0.00364916 1.16954e-05
-1.35525e-20 0.0204728 0.00364933 8.59935e-09
3.76459e-21 -0.0205733 0.00324403 7.51973e-06
0 0.0205734 0.00324407 5.00719e-09
0 0.0208433 0.000231582 1.6311e-08
2.71051e-20 -0.0208434 0.000231576 2.06278e-05
2.71051e-20 0.0208763 0.000747827 1.96259e-08
0 -0.0208763 0.000747825 8.24318e-06
-2.71051e-20 0.0209306 0.00137574 4.01432e-09
-2.71051e-20 -0.0209307 0.00137573 4.67801e-06
1.35525e-20 0.0206256 0.00382198 8.02701e-09
1.35525e-20 -0.0206258 0.00382201 1.06948e-05
2.71051e-20 -0.0209017 0.00213763 2.1339e-06
-2.71051e-20 0.0209017 0.00213766 1.36244e-09
6.77626e-21 -0.0207137 0.00385275 1.03638e-05
6.77626e-21 0.0207139 0.00385285 8.04564e-09
0 -0.0208885 0.0028589 2.45355e-06
0 0.0208886 0.00285896 8.81433e-10
-1.35525e-20 -0.02076 0.00376312 1.03317e-05
6.77626e-21 0.0207604 0.00376287 8.0888e-09
1.50584e-21 -0.0211429 0.000434515 1.99172e-05
-4.51751e-21 0.0211429 0.000434517 9.67587e-08
2.25875e-21 -0.020841 0.00362678 9.76505e-06
-2.25875e-21 0.0208412 0.00362688 7.70316e-09
6.77626e-21 -0.0208385 0.00389815 1.02879e-05
6.77626e-21 0.0208392 0.00389846 7.91462e-09
-2.96462e-21 0.0212597 5.23664e-13 1.41884e-07
-4.23516e-22 -0.0212598 5.24304e-13 2.67351e-05
-8.47033e-22 0.0212767 1.41034e-05 1.43877e-07
4.23516e-22 0.0212812 1.48332e-06 1.44669e-07
8.89385e-21 -0.0212768 1.40587e-05 2.66344e-05
0 -0.0212769 1.7356e-06 2.68218e-05
0 0.0212896 2.69174e-13 1.45802e-07
0 -0.0212896 2.70632e-13 2.70369e-05
-1.69407e-21 0.0212724 0.000879015 7.36298e-08
-1.8823e-22 -0.0212724 0.000879006 1.44376e-05
6.77626e-22 0.0212426 0.00171822 7.67048e-09
1.35525e-21 -0.0212427 0.00171817 4.26715e-06
-3.38813e-21 -0.0212146 0.00249699 2.43831e-06
3.38813e-21 0.0212146 0.00249702 1.43649e-09
1.35525e-20 -0.0210353 0.00398137 9.68919e-06
1.35525e-20 0.0210356 0.00398151 7.33488e-09
-2.25875e-21 -0.021178 0.00323684 4.90444e-06
-2.25875e-21 0.0211781 0.00323695 2.93587e-09
1.35525e-20 -0.0210737 0.00393718 9.75095e-06
-2.71051e-20 0.0210739 0.00393742 7.42448e-09
1.35525e-20 -0.0211187 0.00402023 1.01921e-05
0 0.0211188 0.00402028 8.17958e-09
9.68038e-22 -0.0212477 0.00368159 7.5997e-06
0 0.0212477 0.00368165 5.54118e-09
2.71051e-20 0.0215747 0.00130741 1.25264e-08
2.71051e-20 -0.0215747 0.0013074 6.10972e-06
0 0.0212487 0.00397497 8.68973e-09
0 -0.0212488 0.00397483 1.04724e-05
6.77626e-21 0.0212528 0.00408536 9.13922e-09
-6.77626e-21 -0.021253 0.00408547 1.07047e-05
-2.25875e-21 0.0216407 0.000331745 2.57244e-07
0 -0.0216408 0.000331738 3.57917e-05
-2.71051e-20 0.0215441 0.00209933 2.71185e-09
0 -0.0215441 0.00209931 2.71349e-06
2.71051e-20 -0.0215224 0.00284519 2.47255e-06
-2.71051e-20 0.0215225 0.00284524 8.63147e-10
0 0.0217961 7.90662e-14 2.4007e-07
1.35525e-20 -0.0217961 7.93941e-14 3.83242e-05
0 -0.0215506 0.0034709 3.0725e-06
-2.71051e-20 0.0215507 0.00347098 1.33969e-09
4.06576e-20 -0.021496 0.00395182 1.00719e-05
2.71051e-20 0.0214961 0.00395191 8.24481e-09
0 -0.0214981 0.0042046 1.06289e-05
-6.77626e-21 0.0214986 0.00420483 9.54621e-09
0 0.0218605 0.00170496 7.87305e-09
3.29402e-22 -0.0218606 0.0017049 5.03783e-06
-2.25875e-22 0.0219212 0.000827144 9.76342e-08
-2.48463e-21 -0.0219212 0.00082713 2.70083e-05
-2.71051e-20 0.0219609 4.00731e-14 1.83723e-07
1.35525e-20 -0.021961 4.01624e-14 4.43594e-05
5.64689e-22 -0.0218494 0.00247004 2.58541e-06
-5.64689e-22 0.0218494 0.00247006 2.07939e-09
0 -0.0216144 0.0041396 1.03316e-05
1.35525e-20 0.0216146 0.0041399 9.2428e-09
0 -0.0216502 0.00427848 1.01302e-05
0 0.0216504 0.00427858 9.04626e-09
-5.64689e-22 -0.0218421 0.00317491 2.75577e-06
1.12938e-21 0.0218422 0.00317497 1.19577e-09
0 -0.0217324 0.0043183 1.00499e-05
0 0.0217325 0.00431833 9.07609e-09
0 -0.0217584 0.00423542 9.97228e-06
-1.35525e-20 0.0217584 0.00423558 8.97082e-09
0 0.0221732 2.80694e-14 2.67951e-07
0 -0.0221734 2.81206e-14 5.66299e-05
0 -0.0218663 0.00385214 6.65715e-06
-7.05861e-23 0.0218671 0.00385266 5.28727e-09
-2.71051e-20 0.0222021 0.00129535 1.46719e-08
-2.71051e-20 -0.0222022 0.00129534 9.81591e-06
-3.5293e-23 -0.0222511 0.000329013 6.27123e-05
0 0.0222517 0.000329756 3.03652e-07
-2.71051e-20 0.0221693 0.00208073 3.58295e-09
0 -0.0221694 0.00208072 2.3258e-06
1.35525e-20 0.0218632 0.00438168 8.53197e-09
-1.35525e-20 -0.0218633 0.00438173 1.00625e-05
-6.77626e-21 -0.0223211 1.21337e-14 6.00842e-05
-2.03288e-20 0.0223211 1.20993e-14 2.74771e-07
2.71051e-20 -0.0221597 0.00282092 2.817e-06
0 0.0221597 0.00282095 1.20945e-09
-2.71051e-20 -0.0221457 0.00350906 2.66261e-06
2.71051e-20 0.0221457 0.00350913 1.36355e-09
2.03288e-20 -0.0220147 0.00445519 9.92919e-06
-6.77626e-21 0.0220149 0.00445527 8.47096e-09
5.42101e-20 0.0225414 1.2233e-15 1.98293e-07
0 -0.0225415 1.22688e-15 6.01468e-05
-5.64689e-22 -0.0221394 0.00425953 9.37764e-06
2.25875e-21 0.0221395 0.00425957 8.23434e-09
-8.47033e-22 0.0224964 0.00168457 8.53302e-09
4.23516e-21 -0.0224964 0.00168462 6.7364e-06
1.10114e-20 0.0225019 0.00169156 8.51172e-09
4.23516e-22 -0.0225021 0.00168484 6.71337e-06
-4.23516e-22 -0.0225129 0.001688 6.76549e-06
0 0.0225131 0.001688 8.55383e-09
0 0.022576 0.000874286 9.30706e-08
1.807e-21 -0.0225761 0.000874279 3.50138e-05
5.64689e-22 0.0225135 0.00242347 2.79269e-09
3.22679e-22 -0.0225135 0.0024234 3.37354e-06
1.12938e-21 -0.0224593 0.00318118 2.82366e-06
-3.38813e-21 0.0224593 0.00318122 1.39143e-09
0 -0.0223014 0.00459401 1.09425e-05
0 0.0223021 0.00459434 1.009e-08
-2.71051e-21 -0.0224349 0.00390494 6.24358e-06
-5.87276e-21 0.0224349 0.00390503 5.22599e-09
-9.74088e-21 0.0228058 8.71796e-16 3.16189e-07
4.23516e-22 -0.022806 8.73835e-16 6.98155e-05
2.5411e-21 0.022811 2.493e-05 3.18616e-07
-4.23516e-22 -0.0228111 2.41514e-05 7.0135e-05
0 -0.0223411 0.0046132 1.10401e-05
3.38813e-21 0.0223413 0.00461331 1.01624e-08
0 -0.0228141 8.54706e-16 6.99917e-05
5.64689e-22 0.0228117 0.000334111 2.91325e-07
2.96462e-21 0.0228142 8.52135e-16 3.16373e-07
-2.25875e-21 -0.0228118 0.000334123 6.95087e-05
0 -0.0223469 0.00460662 1.10396e-05
-3.38813e-21 0.022347 0.00460681 1.02008e-08
0 -0.0223544 0.00461967 1.11263e-05
0 0.0223545 0.00461971 1.03464e-08
0 -0.0223624 0.00458463 1.08262e-05
0 0.0223623 0.00458505 1.00758e-08
-1.69407e-21 0.0223809 0.00461205 1.04192e-08
0 -0.0223811 0.00461193 1.10647e-05
0 0.0223956 0.00463962 1.0506e-08
1.69407e-21 -0.022396 0.00463981 1.10928e-05
1.35525e-20 -0.0225313 0.00433152 1.04155e-05
0 0.0225314 0.00433163 1.05461e-08
0 -0.0227767 0.00282449 2.83353e-06
5.42101e-20 0.0227767 0.00282452 1.66936e-09
2.71051e-20 0.0229169 0.00145352 1.01235e-08
2.71051e-20 -0.022917 0.00145354 1.00815e-05
0 0.0229127 0.00195201 5.80463e-09
2.71051e-20 -0.0229127 0.00195199 6.42707e-06
5.42101e-20 -0.0227583 0.00352767 2.979e-06
-2.71051e-20 0.0227583 0.00352773 1.33329e-09
6.77626e-21 -0.0226788 0.00436536 1.05242e-05
-1.35525e-20 0.0226788 0.00436543 1.11574e-08
-1.35525e-20 -0.0231146 6.2653e-16 8.2026e-05
1.35525e-20 0.0231146 6.24699e-16 2.30986e-07
-2.82344e-22 0.0231263 0.00085734 1.14344e-07
-8.47033e-22 -0.0231263 0.00085738 4.81171e-05
-1.35525e-20 0.0231204 0.00168687 9.35472e-09
-1.35525e-20 -0.0231204 0.00168687 9.04314e-06
0 -0.022691 0.00478261 1.22395e-05
1.35525e-20 0.0226912 0.00478269 1.19414e-08
4.23516e-22 0.0231332 0.00244156 3.50801e-09
-2.82344e-22 -0.0231332 0.00244155 4.90289e-06
1.35525e-20 -0.0227887 0.00466778 1.28538e-05
-1.35525e-20 0.0227888 0.00466792 1.22954e-08
1.12938e-21 -0.0230834 0.00317451 3.41777e-06
4.51751e-21 0.0230834 0.00317454 1.56301e-09
0 -0.023319 3.12047e-16 0.000101971
0 0.0233192 3.1085e-16 2.87191e-07
2.25875e-21 -0.0230283 0.00391279 5.98335e-06
-2.25875e-21 0.0230283 0.00391288 4.22468e-09
-2.71051e-20 -0.0233299 0.00142278 1.26903e-05
0 0.02333 0.00142275 1.51493e-08
5.42101e-20 -0.0233168 0.00194192 7.88527e-06
0 0.0233168 0.00194193 6.84997e-09
5.42101e-20 -0.0228965 0.00488208 1.61576e-05
5.42101e-20 0.0228965 0.0048821 1.3918e-08
4.51751e-21 0.0234102 0.000267349 2.75897e-07
0 -0.0234102 0.000267197 0.000103829
-1.50584e-21 -0.0229985 0.00439045 1.06001e-05
-2.25875e-21 0.0229986 0.00439055 8.75315e-09
-1.35525e-20 0.023516 1.75113e-16 2.69665e-07
-6.77626e-21 -0.0235163 1.75792e-16 0.000104467
2.71051e-20 -0.0234234 0.00278582 4.53364e-06
-2.71051e-20 0.0234234 0.00278584 2.19975e-09
0 -0.023065 0.00496366 2.00202e-05
0 0.0230651 0.00496372 1.66869e-08
2.71051e-20 -0.0233787 0.00352555 3.34186e-06
0 0.0233787 0.00352559 1.05139e-09
0 0.023716 -1.12992e-16 2.10958e-07
-1.35525e-20 -0.0237161 -1.12641e-16 9.37995e-05
-1.35525e-21 -0.0232667 0.00471649 1.95705e-05
0 0.0232668 0.00471653 1.60229e-08
0 -0.0233857 0.00417623 5.69001e-06
0 0.0233857 0.00417629 2.39834e-09
0 0.0232203 0.00503884 1.7607e-08
-1.35525e-20 -0.0232204 0.00503886 2.17041e-05
1.12938e-21 0.0237642 0.00087167 1.26142e-07
3.10579e-21 -0.0237642 0.000871743 6.44466e-05
-2.71051e-20 -0.0237896 9.69124e-05 9.47667e-05
0 0.0237897 9.71024e-05 2.31865e-07
0 -0.0237941 4.97837e-16 9.45713e-05
-1.35525e-20 0.0237941 5.00227e-16 2.32392e-07
1.41172e-22 -0.0237453 0.00168599 1.12805e-05
-5.64689e-22 0.0237454 0.00168598 1.12657e-08
1.35525e-20 -0.0238503 -3.62296e-16 9.56588e-05
0 0.0238505 -3.64289e-16 2.20616e-07
-2.25875e-21 -0.0237771 0.00232528 6.74383e-06
-3.16226e-21 0.0237771 0.00232532 5.06646e-09
0 -0.0233449 0.00509915 2.16874e-05
0 0.023345 0.00509919 1.68738e-08
-2.25875e-21 -0.0237117 0.00315189 4.14338e-06
2.25875e-21 0.0237118 0.0031519 1.8661e-09
1.35525e-20 -0.0239753 0.000105662 0.000102292
1.35525e-20 0.0239757 0.000105887 1.87302e-07
0 -0.0240028 2.38539e-16 0.000102218
1.12938e-21 -0.0236913 0.00385633 4.85793e-06
4.51751e-21 0.0236913 0.00385637 1.53284e-09
0 0.0240033 2.38657e-16 1.84877e-07
-1.69407e-20 -0.0235265 0.00518704 2.2663e-05
2.37169e-20 0.0235265 0.00518705 1.65025e-08
1.50584e-21 0.0237117 0.00456141 8.27436e-09
7.52918e-21 -0.0237117 0.00456136 1.34417e-05
-1.01644e-20 -0.0235864 0.00521602 2.24054e-05
-3.38813e-21 0.0235866 0.00521614 1.61385e-08
-1.0842e-20 -0.0236568 0.00499178 2.21896e-05
-1.6263e-20 0.0236569 0.00499184 1.60368e-08
-2.71051e-20 -0.0240359 0.00277848 4.44595e-06
2.71051e-20 0.0240359 0.00277849 3.07222e-09
-2.71051e-20 -0.0240146 0.00349442 4.21199e-06
0 0.0240146 0.00349445 1.15642e-09
1.35525e-20 -0.0237108 0.00516846 2.1705e-05
-1.35525e-20 0.0237109 0.00516865 1.53653e-08
1.35525e-20 -0.0237216 0.00528148 2.13074e-05
0 0.0237216 0.0052815 1.46364e-08
3.38813e-21 0.0238516 0.00489339 1.19069e-08
-6.77626e-21 -0.0238517 0.00489346 1.81784e-05
0 -0.0239976 0.00419233 6.06284e-06
0 0.0239977 0.00419237 1.45216e-09
-6.77626e-21 0.0238168 0.00514851 1.3513e-08
0 -0.0238169 0.0051483 2.00207e-05
1.35525e-20 0.0238282 0.00525495 1.40539e-08
-6.77626e-21 -0.0238283 0.00525489 2.04626e-05
0 0.0238429 0.00534021 1.34478e-08
6.77626e-21 -0.023843 0.00534027 1.98652e-05
5.42101e-20 0.0243893 0.00171904 1.19716e-08
5.42101e-20 -0.0243893 0.00171904 1.40204e-05
2.71051e-20 -0.0239789 0.0048986 1.70815e-05
0 0.0239789 0.0048987 1.01625e-08
1.41172e-22 0.0243696 0.00243126 5.25547e-09
1.41172e-22 -0.0243706 0.00243183 7.55558e-06
5.42101e-20 -0.0244866 0.000512679 0.000118908
5.42101e-20 0.0244867 0.000512677 1.0339e-07
0 -0.0243442 0.00312513 5.16447e-06
2.25875e-21 0.0243442 0.00312514 2.28922e-09
2.71051e-20 -0.0239577 0.00539577 1.96712e-05
-2.03288e-20 0.0239577 0.00539581 1.28896e-08
2.71051e-21 0.0240299 0.00521685 1.36033e-08
-1.35525e-20 -0.0240299 0.00521681 2.04805e-05
1.12938e-21 -0.0243197 0.00383759 5.54487e-06
1.12938e-21 0.0243197 0.00383762 1.26194e-09
-4.51751e-21 -0.0242836 0.00455354 1.11631e-05
-1.12938e-20 0.0242836 0.00455361 4.705e-09
0 0.0241601 0.00549381 1.55042e-08
-1.35525e-20 -0.0241602 0.00549381 2.53344e-05
-4.51751e-21 -0.0242635 0.00502104 1.8178e-05
-2.25875e-21 0.0242636 0.0050211 1.00436e-08
-2.71051e-20 -0.0246819 0.00275431 6.77886e-06
0 0.0246819 0.00275432 3.51212e-09
0 -0.0246457 0.00346487 5.23126e-06
0 0.0246457 0.00346489 1.43333e-09
0 -0.0243131 0.00556781 3.03766e-05
0 0.0243131 0.00556784 1.86633e-08
2.71051e-20 0.0249637 3.14343e-16 1.01338e-07
0 -0.0249638 3.14534e-16 0.000128183
0 0.0249658 0.000127132 1.01198e-07
2.71051e-20 -0.0249658 0.000127056 0.000129219
-2.71051e-20 -0.0246319 0.00416565 6.55916e-06
0 0.0246319 0.00416568 9.81608e-10
-2.25875e-21 0.0250669 0.0011139 5.7789e-08
0 -0.0250669 0.0011139 7.8122e-05
5.42101e-21 -0.0245277 0.0053337 3.05848e-05
-1.807e-21 0.0245277 0.00533373 1.8581e-08
0 -0.0246411 0.00480615 1.14734e-05
-5.42101e-20 0.0246411 0.00480619 2.72366e-09
0 -0.0251264 -5.56035e-18 0.000133247
2.71051e-20 0.0251265 -5.53943e-18 1.13987e-07
-6.77626e-21 0.0244891 0.00565307 2.00997e-08
0 -0.0244893 0.00565312 3.33692e-05
3.38813e-21 0.0250457 0.00228488 7.4189e-09
-1.12938e-21 -0.0250457 0.00228488 1.06678e-05
-5.64689e-22 -0.0249744 0.00307723 6.67007e-06
-2.82344e-22 0.0249744 0.00307727 2.95844e-09
-2.71051e-20 0.0245965 0.00570506 1.93691e-08
0 -0.0245965 0.00570504 3.35006e-05
-2.71051e-20 -0.0252751 0.000134702 0.000140972
0 -0.0249933 0.00376618 6.79354e-06
-1.12938e-21 0.0249934 0.00376619 1.34468e-09
0 0.0252752 0.000134769 9.67884e-08
0 -0.0252845 -2.39213e-18 0.000141026
1.35525e-20 0.0252846 -2.39376e-18 9.66821e-08
-2.25875e-21 -0.0249434 0.00449171 9.70416e-06
-2.25875e-21 0.0249434 0.00449173 1.60151e-09
-3.38813e-20 0.0247822 0.00579494 1.89548e-08
-2.37169e-20 -0.0247823 0.00579495 3.52e-05
0 0.0249666 0.00518174 9.47062e-09
-7.52918e-21 -0.0249666 0.0051817 2.24731e-05
0 -0.0248294 0.00581779 3.49181e-05
6.77626e-21 0.0248297 0.00581793 1.86614e-08
0 -0.0249104 0.00560263 3.4558e-05
1.89735e-20 0.0249104 0.00560269 1.84416e-08
-2.71051e-20 0.0254015 0.00285468 3.91772e-09
0 -0.0254015 0.00285468 7.63513e-06
-2.71051e-20 -0.0252645 0.00414469 8.49731e-06
2.71051e-20 0.0252645 0.00414472 9.74445e-10
0 0.0254031 0.00331055 2.23972e-09
-8.13152e-20 -0.0254031 0.00331053 7.27792e-06
-6.77626e-21 -0.0249623 0.00577177 3.38525e-05
6.77626e-21 0.0249624 0.00577198 1.77991e-08
0 -0.0249739 0.00588771 3.31622e-05
0 0.0249739 0.00588773 1.70059e-08
-2.71051e-20 -0.0252501 0.00482061 1.20862e-05
0 0.0252501 0.00482065 1.62496e-09
0 0.0257172 0.000556259 9.47073e-08
1.0842e-19 -0.0257173 0.000556256 0.000153506
0 0.0250722 0.00575404 1.5623e-08
0 -0.0250723 0.00575381 3.15916e-05
-5.42101e-20 0.0256698 0.00175088 1.36811e-08
0 -0.0256699 0.00175088 1.77963e-05
2.82344e-22 -0.0256382 0.00241569 1.10504e-05
-1.69407e-21 0.0256382 0.00241572 7.0317e-09
6.77626e-21 0.0250837 0.00586272 1.64095e-08
1.35525e-20 -0.0250838 0.00586267 3.19276e-05
1.35525e-20 -0.0256079 0.00307874 7.91852e-06
0 0.0256079 0.00307875 3.13355e-09
0 0.0250979 0.00594758 1.57947e-08
0 -0.025098 0.00594766 3.09881e-05
2.25875e-21 -0.0251925 0.0055531 2.96701e-05
0 0.0251926 0.00555306 1.36369e-08
0 0.0252317 0.00551488 1.16578e-08
-2.71051e-20 -0.0252317 0.00551479 2.83036e-05
2.25875e-21 -0.0255924 0.00379288 8.57379e-06
-3.01167e-21 0.0255924 0.00379288 1.4942e-09
1.35525e-20 -0.0252102 0.00600187 3.07253e-05
-6.77626e-21 0.0252102 0.00600189 1.53259e-08
-2.71051e-21 0.0252817 0.00582896 1.60411e-08
0 -0.0252818 0.00582894 3.20361e-05
0 -0.0255735 0.00447393 1.10431e-05
3.38813e-21 0.0255735 0.00447395 1.22425e-09
2.71051e-20 -0.0258318 0.00284479 8.83292e-06
0 0.0258318 0.00284478 4.00139e-09
-2.71051e-20 -0.0257993 0.00329833 8.4834e-06
0 0.0257993 0.00329834 2.49099e-09
2.25875e-21 0.0255336 0.00517881 5.42749e-09
-9.03502e-21 -0.0255336 0.00517875 2.00434e-05
0 0.025412 0.0060992 1.86483e-08
0 -0.0254121 0.00609922 3.9123e-05
-4.51751e-21 -0.0255488 0.00563572 2.95355e-05
2.25875e-21 0.0255489 0.00563577 1.15345e-08
0 0.0262228 -2.4481e-18 9.88619e-08
0 -0.0262229 -2.47071e-18 0.000158371
-1.35525e-20 0.0262241 0.000110141 9.89697e-08
0 -0.0262242 0.000110109 0.000158493
2.71051e-20 -0.025914 0.0040994 9.87362e-06
2.71051e-20 0.025914 0.00409942 1.1589e-09
-1.35525e-20 -0.0255675 0.00617786 4.66935e-05