# omega  POINT_DATA 15411
# x  y  z  omega
-1.35525e-20 0.015557 5.70113e-08 1596.68
1.35525e-20 -0.015557 5.70113e-08 1597.48
0 -0.015557 0.000135955 1592.73
6.77626e-21 0.015557 0.000135978 1591.91
0 -0.015557 0.000527091 1977.75
-6.77626e-21 0.015557 0.000527192 1976.98
0 -0.015557 0.000659598 2220.19
0 0.015557 0.00065972 2219.46
-6.77626e-21 -0.015557 0.000798595 2450.12
0 0.015557 0.000798713 2449.36
-6.77626e-21 -0.0155569 0.00121618 3071.95
-6.77626e-21 0.0155569 0.00121632 3071.41
0 -0.0155569 0.0013548 3222.59
-6.77626e-21 0.0155569 0.00135493 3222.17
0 -0.0156159 6.66059e-05 1608.83
-6.77626e-21 0.0156159 6.66205e-05 1607.99
6.77626e-21 -0.015617 5.86706e-08 1608.65
6.77626e-21 0.015617 5.86703e-08 1607.81
0 -0.0156133 0.000594009 2124.41
0 0.0156134 0.000594136 2123.65
0 -0.0156101 0.000720993 2357.3
6.77626e-21 0.0156101 0.000721135 2356.54
0 -0.0155569 0.00150202 3343.38
-6.77626e-21 0.0155569 0.00150211 3343.18
6.77626e-21 -0.0156099 0.00127802 3186.67
0 0.0156099 0.00127818 3186.19
6.77626e-21 -0.0156067 0.00140494 3322.9
0 0.0156067 0.00140508 3322.58
6.77626e-21 -0.0156758 6.25745e-08 1527.4
6.77626e-21 0.0156759 6.25738e-08 1526.41
0 -0.0155569 0.00193256 2633.76
-6.77626e-21 0.015557 0.00193259 2634.07
1.35525e-20 -0.0156643 0.000653665 2056.32
2.71051e-20 0.0156643 0.000653856 2047.32
-6.77626e-21 0.015557 0.002087 2022.32
6.77626e-21 -0.015557 0.002087 2021.97
1.35525e-20 -0.0156581 0.00132517 2931.97
0 0.0156581 0.00132537 2914.2
6.77626e-21 0.0156109 0.00197559 2367.52
0 -0.0156109 0.00197556 2367.16
-6.77626e-21 -0.01562 0.00210848 1782.26
-6.77626e-21 0.01562 0.00210848 1782.7
6.77626e-21 0.0156426 0.00205606 1892.93
0 -0.0156426 0.00205603 1892.48
-6.77626e-21 0.0156707 0.00197917 1950.1
0 -0.0156707 0.00197909 1965.54
1.35525e-20 -0.0156949 0.00213398 1856.75
0 0.0156949 0.00213398 1857.17
-3.38813e-20 -0.015885 7.41481e-08 1598.65
-6.77626e-21 0.015885 7.41479e-08 1597.62
-1.12938e-21 -0.01589 0.000347638 1572.42
0 0.01589 0.000347812 1568.74
1.35525e-21 -0.0158834 0.000956224 2644
-1.807e-21 0.0158834 0.000956574 2637.79
1.50584e-21 -0.0158471 0.00154369 3308.67
-3.76459e-21 0.0158471 0.00154397 3300.63
5.64689e-22 0.0158414 0.00196399 1788.2
0 -0.0158414 0.00196388 1787.41
2.03288e-20 -0.015839 0.00218308 1344.18
-6.77626e-21 0.015839 0.00218308 1344.9
-1.35525e-20 -0.0159079 0.00220656 1411.37
1.35525e-20 0.0159079 0.00220657 1411.74
-2.25875e-21 -0.0160357 0.0016614 1750.05
3.38813e-21 0.0160357 0.00166177 1735.03
0 -0.0161336 1.64294e-05 1145.2
-4.23516e-22 0.0161337 1.62936e-05 1143.33
0 -0.0161343 5.30972e-08 1144.37
4.23516e-22 0.0161345 5.3091e-08 1142.49
1.35525e-20 -0.0159895 0.00223437 1086.07
-2.71051e-20 0.0159895 0.00223438 1086.52
0 -0.0161453 5.24536e-08 1115.15
4.23516e-22 0.0161478 5.2446e-08 1113.51
-3.38813e-21 -0.0161363 0.000658379 1131.97
-3.38813e-21 0.0161363 0.000658899 1121.33
0 -0.0161079 0.00123674 1291.34
-2.25875e-21 0.0161079 0.00123731 1270.83
7.52918e-22 -0.0162278 0.00195621 953.094
7.52918e-22 0.0162278 0.0019565 951.645
0 -0.0161978 0.00230533 1287.19
0 0.016198 0.00230539 1287.98
0 -0.0162561 0.00232518 1313.93
-6.77626e-21 0.0162561 0.00232519 1314.65
-6.77626e-21 0.016267 0.00230123 1309.28
0 -0.016267 0.00230114 1308.52
-6.77626e-21 0.0162975 0.0022713 1231.05
0 -0.0162976 0.0022711 1233.74
3.38813e-20 0.0162993 0.00233988 1381.47
0 -0.0162994 0.00233991 1380.91
-1.807e-20 0.0164712 0.000318829 826.955
0 -0.0164713 0.000318482 834.259
9.03502e-21 0.0164838 0.000934255 517.501
-4.51751e-21 -0.0164839 0.000933479 550.47
-1.35525e-20 0.0165151 8.91806e-08 847.772
0 -0.0165152 8.91797e-08 850.407
-9.03502e-21 0.0164768 0.00151157 535.964
0 -0.0164769 0.00151091 561.367
2.71051e-20 0.0166394 9.23356e-08 894.993
0 -0.0166395 9.23348e-08 897.702
1.35525e-20 0.0165053 0.00240993 1715.09
-4.06576e-20 -0.0165054 0.00240993 1714.01
2.71051e-20 0.0167038 0.000635453 676.127
-2.71051e-20 -0.0167039 0.000634624 706.899
2.82344e-22 0.0165943 0.00217414 1544.21
-3.10579e-21 -0.0165944 0.00217395 1547.48
0 0.0167298 0.00122683 479.179
-5.42101e-20 -0.0167299 0.00122587 535.043
2.71051e-20 0.0166885 0.00181396 785.991
0 -0.0166886 0.00181342 831.254
0 -0.0166609 0.002463 1987.04
0 0.0166609 0.00246301 1988.49
0 0.0168423 7.09371e-08 873.512
-1.35525e-20 -0.0168424 7.09349e-08 876.832
0 0.0169749 0.000303028 829.283
-2.25875e-21 -0.016975 0.000302617 836.227
0 0.0168731 0.00220951 1610.89
0 -0.0168731 0.0022093 1646.32
0 0.016996 0.000918651 262.778
0 -0.0169961 0.00091773 292.376
-2.03288e-20 0.0168624 0.00253141 2597.87
6.77626e-21 -0.0168624 0.00253143 2596.47
4.51751e-21 0.0169886 0.00152444 260.635
-3.38813e-21 -0.0169887 0.00152368 290.023
-2.71051e-20 0.0170875 2.46042e-08 846.606
-1.35525e-20 -0.0170876 2.4598e-08 850.473
-4.51751e-21 0.0169822 0.0019947 611.576
4.51751e-21 -0.0169822 0.00199432 709.435
-9.03502e-21 -0.0169517 0.00241974 2455.08
4.51751e-21 0.0169517 0.00241984 2456.53
-2.03288e-20 -0.0169618 0.00256517 2619.15
-2.71051e-20 0.0169619 0.0025652 2620.34
-2.71051e-20 0.0172725 0.000609723 524.75
2.71051e-20 -0.0172727 0.000608854 545.049
2.71051e-20 0.017301 3.8681e-09 856.859
2.71051e-20 -0.0173012 3.85985e-09 860.729
2.71051e-20 0.0172756 0.00121852 222.585
2.71051e-20 -0.0172759 0.00121756 255.238
5.42101e-20 0.0172503 0.00183266 447.272
0 -0.0172504 0.00183216 480.494
-2.71051e-20 -0.0171626 0.00263335 1881.64
0 0.0171626 0.00263335 1882.17
0 0.0172628 0.00228364 1392.63
-1.69407e-21 -0.0172628 0.00228347 1420.86
-2.71051e-20 0.0175152 3.90385e-09 846.132
-1.35525e-20 -0.0175152 3.89758e-09 850.085
-2.25875e-21 0.0176167 0.000304206 805.245
-4.51751e-21 -0.0176168 0.0003039 811.032
-1.12938e-21 0.0176138 0.000914405 196.163
7.90564e-21 -0.0176139 0.000913728 228.63
-5.64689e-21 -0.0175987 0.00154607 191.635
-1.12938e-21 0.0175986 0.00154661 150.761
-8.47033e-22 0.0174822 0.00274305 1912.64
-1.52466e-20 -0.0174824 0.00274311 1912.98
2.37169e-20 -0.0174953 0.00274748 1907.46
-1.10114e-20 0.0174954 0.00274754 1906.94
-1.35525e-20 0.0177276 5.30319e-09 845.681
0 -0.0177276 5.30115e-09 849.513
2.25875e-21 -0.0176266 0.0021181 478.968
2.25875e-21 0.0176266 0.00211837 457.298
2.25875e-21 -0.0175734 0.00255388 1793.25
4.51751e-21 0.0175734 0.00255396 1791.61
0 -0.0179395 5.3668e-09 869.308
0 0.0179395 5.36695e-09 865.687
0 0.0179446 0.000602116 514.793
-2.71051e-20 -0.0179448 0.000601729 531.961
0 0.0179404 0.00122928 134.529
2.71051e-20 -0.0179405 0.00122883 167.364
0 -0.0179 0.00190857 365.998
0 0.0179 0.00190883 339.846
-2.71051e-20 -0.0177925 0.00284977 1475.15
-2.71051e-20 0.0177926 0.00284978 1474.47
0 -0.0179476 0.00242616 1033.69
-2.71051e-20 0.0179477 0.00242626 1017.48
-2.71051e-20 -0.0181451 4.40312e-09 880.617
1.35525e-20 0.0181451 4.40323e-09 877.029
0 -0.0180151 0.00292661 1296.09
0 0.0180152 0.00292666 1294.88
4.51751e-21 0.0182715 0.000300951 822.707
4.51751e-21 -0.0182716 0.000300824 828.554
4.51751e-21 0.0182775 0.000913256 208.739
-2.25875e-21 -0.0182775 0.000912982 234.284
1.12938e-20 -0.0182701 0.00156202 152.443
-2.25875e-21 0.0182702 0.00156226 122.187
2.25875e-21 -0.0182365 0.00214905 335.762
2.25875e-21 0.0182365 0.00214918 325.197
0 0.0181446 0.0029715 1339.3
-6.77626e-21 -0.0181446 0.00297151 1340.6
4.51751e-22 -0.018187 0.00270962 1265.3
-9.03502e-22 0.018187 0.00270971 1262.66
-1.35525e-20 0.0183922 2.43152e-09 890.729
1.35525e-20 -0.0183922 2.43142e-09 894.2
0 -0.0185886 1.4653e-09 912.429
0 0.0185886 1.46536e-09 909.097
2.71051e-20 -0.0183436 0.00304025 1506.27
-2.71051e-20 0.0183438 0.00304031 1505.12
2.71051e-20 0.0185996 0.000594964 533.379
0 -0.0185997 0.000594844 550.102
-1.16165e-20 -0.0186737 0.00129279 130.072
0 0.0186737 0.00129292 101.911
-1.35525e-20 -0.0187703 1.23407e-09 922.024
-2.71051e-20 0.0187703 1.23411e-09 918.726
-2.71051e-20 -0.0185172 0.00309968 1576.89
3.38813e-20 0.0185172 0.00309971 1575.55
1.807e-20 0.0187147 0.00187627 130.927
9.03502e-21 -0.0187147 0.00187618 163.361
-1.50584e-21 0.0186673 0.00253576 811.225
1.50584e-21 -0.0186673 0.00253569 841.924
-4.51751e-21 0.018823 0.000903617 215.321
0 -0.018823 0.000903518 243.882
6.77626e-21 0.0188705 0.000248278 880.081
-4.51751e-21 -0.0188706 0.000248244 885.069
1.35525e-20 -0.0186433 0.00294006 1590.94
5.42101e-21 0.0186434 0.00294015 1589.67
0 -0.0189391 0.0015442 97.6891
0 0.018939 0.00154428 72.2117
1.27055e-21 0.01877 0.00318707 1895.21
2.22346e-21 -0.0187697 0.00318691 1896.55
0 -0.0188366 0.00285351 1461.37
6.77626e-21 0.0188366 0.0028535 1436.29
1.35525e-20 0.0190684 6.42266e-10 946.956
0 -0.0190684 6.42229e-10 950.182
2.71051e-20 -0.0189469 0.0022033 180.403
0 0.0189469 0.00220336 148.695
0 -0.0189609 0.002942 1602.23
6.77626e-21 0.018961 0.00294206 1576.25
0 -0.0192376 4.1695e-10 989.204
0 0.0192376 4.16977e-10 986.068
9.03502e-21 0.0192505 0.000578849 571.064
-2.25875e-21 -0.0192506 0.000578823 586.089
6.77626e-21 0.0192653 0.00120345 111.373
-2.25875e-21 -0.0192654 0.00120342 138.923
6.77626e-21 -0.0192727 0.00186892 128.535
-6.77626e-21 0.0192727 0.00186895 96.5922
-1.35525e-20 -0.0190867 0.00329553 2298.96
1.35525e-20 0.0190869 0.00329559 2297.77
1.35525e-20 0.0193938 3.58667e-10 997.918
0 -0.0193938 3.58645e-10 1001.06
1.35525e-20 0.0193936 0.000130558 997.083
1.35525e-20 -0.0193936 0.000130549 1000.22
0 -0.019134 0.00323281 2259.75
0 0.0191342 0.00323291 2258.59
-2.25875e-21 -0.019259 0.0025456 565.026
-4.51751e-21 0.019259 0.00254567 510.536
2.71051e-20 -0.0192049 0.00333603 1961.12
1.35525e-20 0.019205 0.00333606 1960.02
-2.25875e-22 -0.0193216 0.00298789 1478.44
-2.48463e-21 0.0193217 0.00298796 1438.5
-2.71051e-20 0.0195688 0.0002809 1015.79
2.71051e-20 -0.0195688 0.000280889 1018.9
0 0.019589 0.000871785 158.186
2.71051e-20 -0.0195891 0.000871776 181.189
-2.71051e-20 0.019374 0.00328238 1881.41
-2.71051e-20 -0.019374 0.00328231 1882.45
2.71051e-20 0.0196057 0.00151362 63.458
0 -0.0196057 0.0015136 93.3728
-1.35525e-20 0.0193742 0.00339401 1832.84
2.71051e-20 -0.0193743 0.00339402 1833.82
2.71051e-20 -0.0196062 0.00219166 139.035
2.71051e-20 0.0196062 0.0021917 97.7517
-1.35525e-20 0.0197445 1.18814e-10 1055.11
0 -0.0197445 1.18805e-10 1058.18
-1.35525e-20 0.0197496 0.000118775 1055.23
2.71051e-20 -0.0197497 0.000118768 1058.31
0 -0.0196349 0.00277745 428.158
2.71051e-20 0.0196349 0.00277749 334.147
2.71051e-20 -0.0195953 0.00324393 2121.94
1.35525e-20 0.0195954 0.00324399 2121.15
-1.35525e-20 0.0198868 6.23618e-11 1114.09
1.35525e-20 -0.0198869 6.23578e-11 1117.1
-2.25875e-21 0.0199025 0.000551659 639.065
-2.25875e-21 -0.0199025 0.000551656 659.223
-1.35525e-20 -0.0196374 0.00348418 1746.66
-2.71051e-20 0.0196377 0.00348428 1745.55
0 0.0199263 0.001165 114.577
-1.12938e-21 -0.0199263 0.001165 148.677
1.35525e-20 -0.0197066 0.00339972 1770.78
0 0.0197068 0.00339991 1769.63
-1.35525e-20 0.0200175 0.000104914 1126.9
0 -0.0200175 0.000104929 1129.86
0 0.020018 5.47771e-11 1127.65
0 -0.0200181 5.47715e-11 1130.62
0 -0.0199354 0.00184126 109.783
-1.12938e-21 0.0199354 0.00184128 72.298
4.51751e-21 -0.0199396 0.00250633 244.317
2.25875e-21 0.0199397 0.00250637 186.155
-1.35525e-20 -0.0198049 0.00354152 1708.45
-1.35525e-20 0.019805 0.00354156 1707.33
1.12938e-21 -0.0199176 0.00307602 1110.36
-4.51751e-21 0.0199177 0.00307606 1077.87
0 -0.0202108 0.000262556 1168.17
2.71051e-20 0.0202108 0.00026255 1165.24
0 0.0202372 0.000828992 175.032
2.71051e-20 -0.0202372 0.000828987 227.827
0 0.0199792 0.00344752 1463.02
-2.71051e-20 -0.0199793 0.00344738 1464
-6.77626e-21 0.0199875 0.00360402 1261.34
-1.35525e-20 -0.0199877 0.00360407 1262.05
0 0.0202611 0.00146964 58.6763
-2.71051e-20 -0.0202612 0.00146963 89.7323
-2.71051e-20 -0.0202613 0.00216726 116.061
-5.42101e-20 0.0202614 0.00216729 68.2095
-1.35525e-20 -0.020424 1.48352e-11 1271.81
1.35525e-20 0.0204241 1.48335e-11 1269.01
0 -0.0204263 8.83644e-05 1272.14
1.35525e-20 0.0204264 8.83482e-05 1269.33
6.77626e-21 -0.0201259 0.00365139 1145.34
2.71051e-20 -0.0202574 0.00283427 268.742
-2.71051e-20 0.0202575 0.00283433 224.092
6.77626e-21 0.0201264 0.00365156 1144.11
0 -0.0202301 0.00346725 1263.38
0 0.0202303 0.00346745 1262.1
0 -0.0205367 8.07365e-12 1365.33
0 0.0205367 8.07331e-12 1362.55
4.51751e-21 -0.0205431 0.000507253 797.547
-2.25875e-21 0.0205431 0.000507255 782.683
-2.25875e-21 0.0205806 0.00109812 131.211
0 -0.0205806 0.00109812 163.569
-1.35525e-20 0.0206332 7.23344e-05 1399.24
-1.35525e-20 -0.0206332 7.23369e-05 1401.97
0 0.0206362 7.47662e-12 1394.29
-1.35525e-20 -0.0206362 7.47681e-12 1397.03
1.35525e-20 -0.0203259 0.00371982 1412.87
0 0.0203262 0.0037199 1411.5
1.12938e-21 -0.0205919 0.0017924 99.1252
-2.25875e-21 0.0205919 0.00179242 59.5853
-4.51751e-21 -0.0205776 0.00251315 169.46
-3.38813e-21 0.0205776 0.00251319 125.612
-1.35525e-20 -0.0204397 0.00376151 1493.06
1.35525e-20 0.0204398 0.00376155 1491.57
-1.35525e-20 -0.0204727 0.00364916 1489.41
-1.35525e-20 0.0204728 0.00364933 1487.93
3.76459e-21 -0.0205733 0.00324403 919.584
0 0.0205734 0.00324407 886.505
0 0.0208433 0.000231582 1504.23
2.71051e-20 -0.0208434 0.000231576 1506.85
2.71051e-20 0.0208763 0.000747827 226.84
0 -0.0208763 0.000747825 229.477
-2.71051e-20 0.0209306 0.00137574 59.7241
-2.71051e-20 -0.0209307 0.00137573 100.676
1.35525e-20 0.0206256 0.00382198 1770.26
1.35525e-20 -0.0206258 0.00382201 1772
2.71051e-20 -0.0209017 0.00213763 90.955
-2.71051e-20 0.0209017 0.00213766 51.973
6.77626e-21 -0.0207137 0.00385275 1791.68
6.77626e-21 0.0207139 0.00385285 1790.05
0 -0.0208885 0.0028589 191.118
0 0.0208886 0.00285896 147.731
-1.35525e-20 -0.02076 0.00376312 1753.2
6.77626e-21 0.0207604 0.00376287 1751.44
1.50584e-21 -0.0211429 0.000434515 885.234
-4.51751e-21 0.0211429 0.000434517 876.168
2.25875e-21 -0.020841 0.00362678 1586.67
-2.25875e-21 0.0208412 0.00362688 1574.07
6.77626e-21 -0.0208385 0.00389815 1917.25
6.77626e-21 0.0208392 0.00389846 1916.17
-2.96462e-21 0.0212597 5.23664e-13 1178.01
-4.23516e-22 -0.0212598 5.24304e-13 1181.31
-8.47033e-22 0.0212767 1.41034e-05 1164.23
4.23516e-22 0.0212812 1.48332e-06 1176.05
8.89385e-21 -0.0212768 1.40587e-05 1167.86
0 -0.0212769 1.7356e-06 1179.36
0 0.0212896 2.69174e-13 1174.37
0 -0.0212896 2.70632e-13 1177.71
-1.69407e-21 0.0212724 0.000879015 295.02
-1.8823e-22 -0.0212724 0.000879006 320.528
6.77626e-22 0.0212426 0.00171822 62.8522
1.35525e-21 -0.0212427 0.00171817 100.101
-3.38813e-21 -0.0212146 0.00249699 131.615
3.38813e-21 0.0212146 0.00249702 84.4375
1.35525e-20 -0.0210353 0.00398137 2214.07
1.35525e-20 0.0210356 0.00398151 2212.42
-2.25875e-21 -0.021178 0.00323684 629.878
-2.25875e-21 0.0211781 0.00323695 563.246
1.35525e-20 -0.0210737 0.00393718 2178.32
-2.71051e-20 0.0210739 0.00393742 2176.77
1.35525e-20 -0.0211187 0.00402023 1961.7
0 0.0211188 0.00402028 1960.58
9.68038e-22 -0.0212477 0.00368159 1479.48
0 0.0212477 0.00368165 1433.22
2.71051e-20 0.0215747 0.00130741 66.5807
2.71051e-20 -0.0215747 0.0013074 99.0808
0 0.0212487 0.00397497 1818.77
0 -0.0212488 0.00397483 1819.64
6.77626e-21 0.0212528 0.00408536 1714.88
-6.77626e-21 -0.021253 0.00408547 1715.49
-2.25875e-21 0.0216407 0.000331745 790.052
0 -0.0216408 0.000331738 797.132
-2.71051e-20 0.0215441 0.00209933 42.2935
0 -0.0215441 0.00209931 80.307
2.71051e-20 -0.0215224 0.00284519 159.647
-2.71051e-20 0.0215225 0.00284524 91.6721
0 0.0217961 7.90662e-14 916.123
1.35525e-20 -0.0217961 7.93941e-14 920.797
0 -0.0215506 0.0034709 461.913
-2.71051e-20 0.0215507 0.00347098 341.319
4.06576e-20 -0.021496 0.00395182 2118.73
2.71051e-20 0.0214961 0.00395191 2118.09
0 -0.0214981 0.0042046 1679.54
-6.77626e-21 0.0214986 0.00420483 1678.74
0 0.0218605 0.00170496 53.5075
3.29402e-22 -0.0218606 0.0017049 89.6362
-2.25875e-22 0.0219212 0.000827144 307.755
-2.48463e-21 -0.0219212 0.00082713 345.625
-2.71051e-20 0.0219609 4.00731e-14 946.127
1.35525e-20 -0.021961 4.01624e-14 951.5
5.64689e-22 -0.0218494 0.00247004 111.013
-5.64689e-22 0.0218494 0.00247006 57.3368
0 -0.0216144 0.0041396 1778.28
1.35525e-20 0.0216146 0.0041399 1777.3
0 -0.0216502 0.00427848 1860.85
0 0.0216504 0.00427858 1859.81
-5.64689e-22 -0.0218421 0.00317491 258.894
1.12938e-21 0.0218422 0.00317497 177.967
0 -0.0217324 0.0043183 1880
0 0.0217325 0.00431833 1878.92
0 -0.0217584 0.00423542 1904.04
-1.35525e-20 0.0217584 0.00423558 1902.91
0 0.0221732 2.80694e-14 854.606
0 -0.0221734 2.81206e-14 861.364
0 -0.0218663 0.00385214 1270.8
-7.05861e-23 0.0218671 0.00385266 1218.71
-2.71051e-20 0.0222021 0.00129535 68.3241
-2.71051e-20 -0.0222022 0.00129534 101.299
-3.5293e-23 -0.0222511 0.000329013 754.528
0 0.0222517 0.000329756 746.994
-2.71051e-20 0.0221693 0.00208073 36.155
0 -0.0221694 0.00208072 74.0004
1.35525e-20 0.0218632 0.00438168 2058.89
-1.35525e-20 -0.0218633 0.00438173 2060.29
-6.77626e-21 -0.0223211 1.21337e-14 858.439
-2.03288e-20 0.0223211 1.20993e-14 851.265
2.71051e-20 -0.0221597 0.00282092 128.539
0 0.0221597 0.00282095 58.317
-2.71051e-20 -0.0221457 0.00350906 262.79
2.71051e-20 0.0221457 0.00350913 200.752
2.03288e-20 -0.0220147 0.00445519 2031.16
-6.77626e-21 0.0220149 0.00445527 2029.71
5.42101e-20 0.0225414 1.2233e-15 947.993
0 -0.0225415 1.22688e-15 955.195
-5.64689e-22 -0.0221394 0.00425953 1900.22
2.25875e-21 0.0221395 0.00425957 1892.08
-8.47033e-22 0.0224964 0.00168457 50.7256
4.23516e-21 -0.0224964 0.00168462 86.5623
1.10114e-20 0.0225019 0.00169156 50.5855
4.23516e-22 -0.0225021 0.00168484 86.4462
-4.23516e-22 -0.0225129 0.001688 86.4814
0 0.0225131 0.001688 50.6114
0 0.022576 0.000874286 295.454
1.807e-21 -0.0225761 0.000874279 346.454
5.64689e-22 0.0225135 0.00242347 46.5848
3.22679e-22 -0.0225135 0.0024234 100.82
1.12938e-21 -0.0224593 0.00318118 177.036
-3.38813e-21 0.0224593 0.00318122 105.992
0 -0.0223014 0.00459401 1877.99
0 0.0223021 0.00459434 1876.2
-2.71051e-21 -0.0224349 0.00390494 779.578
-5.87276e-21 0.0224349 0.00390503 718.895
-9.74088e-21 0.0228058 8.71796e-16 763.433
4.23516e-22 -0.022806 8.73835e-16 771.739
2.5411e-21 0.022811 2.493e-05 756.028
-4.23516e-22 -0.0228111 2.41514e-05 764.606
0 -0.0223411 0.0046132 1890.26
3.38813e-21 0.0223413 0.00461331 1888.33
0 -0.0228141 8.54706e-16 772.351
5.64689e-22 0.0228117 0.000334111 698.283
2.96462e-21 0.0228142 8.52135e-16 764.045
-2.25875e-21 -0.0228118 0.000334123 710.361
0 -0.0223469 0.00460662 1879.58
-3.38813e-21 0.022347 0.00460681 1877.77
0 -0.0223544 0.00461967 1843.07
0 0.0223545 0.00461971 1841.67
0 -0.0223624 0.00458463 1802.16
0 0.0223623 0.00458505 1797.34
-1.69407e-21 0.0223809 0.00461205 1824.67
0 -0.0223811 0.00461193 1825.87
0 0.0223956 0.00463962 1808.18
1.69407e-21 -0.022396 0.00463981 1809.21
1.35525e-20 -0.0225313 0.00433152 1307.5
0 0.0225314 0.00433163 1283.74
0 -0.0227767 0.00282449 107.011
5.42101e-20 0.0227767 0.00282452 43.628
2.71051e-20 0.0229169 0.00145352 56.6505
2.71051e-20 -0.022917 0.00145354 89.2545
0 0.0229127 0.00195201 36.9706
2.71051e-20 -0.0229127 0.00195199 78.3817
5.42101e-20 -0.0227583 0.00352767 203.312
-2.71051e-20 0.0227583 0.00352773 115.209
6.77626e-21 -0.0226788 0.00436536 1126.21
-1.35525e-20 0.0226788 0.00436543 1113.92
-1.35525e-20 -0.0231146 6.2653e-16 885.491
1.35525e-20 0.0231146 6.24699e-16 875.679
-2.82344e-22 0.0231263 0.00085734 321.2
-8.47033e-22 -0.0231263 0.00085738 383.203
-1.35525e-20 0.0231204 0.00168687 48.4256
-1.35525e-20 -0.0231204 0.00168687 85.4886
0 -0.022691 0.00478261 1562.33
1.35525e-20 0.0226912 0.00478269 1560.64
4.23516e-22 0.0231332 0.00244156 36.757
-2.82344e-22 -0.0231332 0.00244155 88.2018
1.35525e-20 -0.0227887 0.00466778 1513.42
-1.35525e-20 0.0227888 0.00466792 1511.69
1.12938e-21 -0.0230834 0.00317451 138.033
4.51751e-21 0.0230834 0.00317454 66.177
0 -0.023319 3.12047e-16 683.532
0 0.0233192 3.1085e-16 671.135
2.25875e-21 -0.0230283 0.00391279 435.617
-2.25875e-21 0.0230283 0.00391288 364.355
-2.71051e-20 -0.0233299 0.00142278 95.2355
0 0.02333 0.00142275 63.0312
5.42101e-20 -0.0233168 0.00194192 77.653
0 0.0233168 0.00194193 34.9093
5.42101e-20 -0.0228965 0.00488208 1383.77
5.42101e-20 0.0228965 0.0048821 1381.73
4.51751e-21 0.0234102 0.000267349 647.288
0 -0.0234102 0.000267197 659.857
-1.50584e-21 -0.0229985 0.00439045 992
-2.25875e-21 0.0229986 0.00439055 950.857
-1.35525e-20 0.023516 1.75113e-16 633.68
-6.77626e-21 -0.0235163 1.75792e-16 646.222
2.71051e-20 -0.0234234 0.00278582 85.925
-2.71051e-20 0.0234234 0.00278584 33.0305
0 -0.023065 0.00496366 1093.47
0 0.0230651 0.00496372 1090.8
2.71051e-20 -0.0233787 0.00352555 152.698
0 0.0233787 0.00352559 69.8057
0 0.023716 -1.12992e-16 688.219
-1.35525e-20 -0.0237161 -1.12641e-16 699.296
-1.35525e-21 -0.0232667 0.00471649 989.897
0 0.0232668 0.00471653 979.834
0 -0.0233857 0.00417623 352.014
0 0.0233857 0.00417629 230.49
0 0.0232203 0.00503884 1023.61
-1.35525e-20 -0.0232204 0.00503886 1026.39
1.12938e-21 0.0237642 0.00087167 332.857
3.10579e-21 -0.0237642 0.000871743 372.671
-2.71051e-20 -0.0237896 9.69124e-05 571.911
0 0.0237897 9.71024e-05 560.463
0 -0.0237941 4.97837e-16 572.937
-1.35525e-20 0.0237941 5.00227e-16 561.516
1.41172e-22 -0.0237453 0.00168599 83.365
-5.64689e-22 0.0237454 0.00168598 46.9215
1.35525e-20 -0.0238503 -3.62296e-16 548.435
0 0.0238505 -3.64289e-16 536.833
-2.25875e-21 -0.0237771 0.00232528 80.2713
-3.16226e-21 0.0237771 0.00232532 34.5011
0 -0.0233449 0.00509915 1147.15
0 0.023345 0.00509919 1144.47
-2.25875e-21 -0.0237117 0.00315189 105.115
2.25875e-21 0.0237118 0.0031519 44.5624
1.35525e-20 -0.0239753 0.000105662 488.489
1.35525e-20 0.0239757 0.000105887 475.955
0 -0.0240028 2.38539e-16 484.141
1.12938e-21 -0.0236913 0.00385633 214.691
4.51751e-21 0.0236913 0.00385637 122.01
0 0.0240033 2.38657e-16 471.604
-1.69407e-20 -0.0235265 0.00518704 1210.51
2.37169e-20 0.0235265 0.00518705 1207.71
1.50584e-21 0.0237117 0.00456141 702.59
7.52918e-21 -0.0237117 0.00456136 766.142
-1.01644e-20 -0.0235864 0.00521602 1258.68
-3.38813e-21 0.0235866 0.00521614 1256.08
-1.0842e-20 -0.0236568 0.00499178 1236.39
-1.6263e-20 0.0236569 0.00499184 1233.61
-2.71051e-20 -0.0240359 0.00277848 71.1155
2.71051e-20 0.0240359 0.00277849 28.4852
-2.71051e-20 -0.0240146 0.00349442 109.986
0 0.0240146 0.00349445 46.2477
1.35525e-20 -0.0237108 0.00516846 1347.62
-1.35525e-20 0.0237109 0.00516865 1344.94
1.35525e-20 -0.0237216 0.00528148 1452.33
0 0.0237216 0.0052815 1449.54
3.38813e-21 0.0238516 0.00489339 1098.38
-6.77626e-21 -0.0238517 0.00489346 1133.67
0 -0.0239976 0.00419233 225.9
0 0.0239977 0.00419237 127.866
-6.77626e-21 0.0238168 0.00514851 1302.51
0 -0.0238169 0.0051483 1320.08
1.35525e-20 0.0238282 0.00525495 1523.63
-6.77626e-21 -0.0238283 0.00525489 1526.46
0 0.0238429 0.00534021 1618.13
6.77626e-21 -0.023843 0.00534027 1621.04
5.42101e-20 0.0243893 0.00171904 40.5584
5.42101e-20 -0.0243893 0.00171904 75.3932
2.71051e-20 -0.0239789 0.0048986 938.536
0 0.0239789 0.0048987 876.809
1.41172e-22 0.0243696 0.00243126 29.8013
1.41172e-22 -0.0243706 0.00243183 67.5027
5.42101e-20 -0.0244866 0.000512679 320.727
5.42101e-20 0.0244867 0.000512677 306.366
0 -0.0243442 0.00312513 79.046
2.25875e-21 0.0243442 0.00312514 33.1969
2.71051e-20 -0.0239577 0.00539577 1723.19
-2.03288e-20 0.0239577 0.00539581 1720.45
2.71051e-21 0.0240299 0.00521685 1594.7
-1.35525e-20 -0.0240299 0.00521681 1597.53
1.12938e-21 -0.0243197 0.00383759 140.574
1.12938e-21 0.0243197 0.00383762 70.9041
-4.51751e-21 -0.0242836 0.00455354 480.101
-1.12938e-20 0.0242836 0.00455361 392.645
0 0.0241601 0.00549381 1509.45
-1.35525e-20 -0.0241602 0.00549381 1512.74
-4.51751e-21 -0.0242635 0.00502104 1059.12
-2.25875e-21 0.0242636 0.0050211 1002.15
-2.71051e-20 -0.0246819 0.00275431 58.7066
0 0.0246819 0.00275432 24.5506
0 -0.0246457 0.00346487 76.2338
0 0.0246457 0.00346489 33.3709
0 -0.0243131 0.00556781 1208.71
0 0.0243131 0.00556784 1204.67
2.71051e-20 0.0249637 3.14343e-16 292.812
0 -0.0249638 3.14534e-16 308.228
0 0.0249658 0.000127132 291.506
2.71051e-20 -0.0249658 0.000127056 307.044
-2.71051e-20 -0.0246319 0.00416565 144.547
0 0.0246319 0.00416568 71.7997
-2.25875e-21 0.0250669 0.0011139 165.515
0 -0.0250669 0.0011139 190.497
5.42101e-21 -0.0245277 0.0053337 1044.62
-1.807e-21 0.0245277 0.00533373 1033.04
0 -0.0246411 0.00480615 381.351
-5.42101e-20 0.0246411 0.00480619 240.497
0 -0.0251264 -5.56035e-18 325.024
2.71051e-20 0.0251265 -5.53943e-18 309.035
-6.77626e-21 0.0244891 0.00565307 1095.26
0 -0.0244893 0.00565312 1099.61
3.38813e-21 0.0250457 0.00228488 30.2257
-1.12938e-21 -0.0250457 0.00228488 63.8274
-5.64689e-22 -0.0249744 0.00307723 64.2748
-2.82344e-22 0.0249744 0.00307727 27.4575
-2.71051e-20 0.0245965 0.00570506 1205.35
0 -0.0245965 0.00570504 1209.53
-2.71051e-20 -0.0252751 0.000134702 293.768
0 -0.0249933 0.00376618 98.3824
-1.12938e-21 0.0249934 0.00376619 46.5006
0 0.0252752 0.000134769 276.852
0 -0.0252845 -2.39213e-18 293.712
1.35525e-20 0.0252846 -2.39376e-18 276.79
-2.25875e-21 -0.0249434 0.00449171 215.333
-2.25875e-21 0.0249434 0.00449173 126.779
-3.38813e-20 0.0247822 0.00579494 1269.61
-2.37169e-20 -0.0247823 0.00579495 1274
0 0.0249666 0.00518174 732.903
-7.52918e-21 -0.0249666 0.0051817 793.615
0 -0.0248294 0.00581779 1315.83
6.77626e-21 0.0248297 0.00581793 1311.75
0 -0.0249104 0.00560263 1298.52
1.89735e-20 0.0249104 0.00560269 1294.17
-2.71051e-20 0.0254015 0.00285468 21.7571
0 -0.0254015 0.00285468 53.9225
-2.71051e-20 -0.0252645 0.00414469 97.5684
2.71051e-20 0.0252645 0.00414472 48.2264
0 0.0254031 0.00331055 25.8331
-8.13152e-20 -0.0254031 0.00331053 62.0446
-6.77626e-21 -0.0249623 0.00577177 1419.5
6.77626e-21 0.0249624 0.00577198 1415.36
0 -0.0249739 0.00588771 1539.91
0 0.0249739 0.00588773 1535.65
-2.71051e-20 -0.0252501 0.00482061 215.77
0 0.0252501 0.00482065 131.863
0 0.0257172 0.000556259 259.2
1.0842e-19 -0.0257173 0.000556256 277.55
0 0.0250722 0.00575404 1369.8
0 -0.0250723 0.00575381 1385.81
-5.42101e-20 0.0256698 0.00175088 39.4094
0 -0.0256699 0.00175088 72.172
2.82344e-22 -0.0256382 0.00241569 58.7261
-1.69407e-21 0.0256382 0.00241572 27.1926
6.77626e-21 0.0250837 0.00586272 1620.4
1.35525e-20 -0.0250838 0.00586267 1624.64
1.35525e-20 -0.0256079 0.00307874 55.3605
0 0.0256079 0.00307875 22.7138
0 0.0250979 0.00594758 1727.19
0 -0.025098 0.00594766 1731.49
2.25875e-21 -0.0251925 0.0055531 1188.97
0 0.0251926 0.00555306 1155.28
0 0.0252317 0.00551488 910.46
-2.71051e-20 -0.0252317 0.00551479 960.212
2.25875e-21 -0.0255924 0.00379288 73.046
-3.01167e-21 0.0255924 0.00379288 34.5733
1.35525e-20 -0.0252102 0.00600187 1841.34
-6.77626e-21 0.0252102 0.00600189 1837.31
-2.71051e-21 0.0252817 0.00582896 1695.61
0 -0.0252818 0.00582894 1699.81
0 -0.0255735 0.00447393 129.546
3.38813e-21 0.0255735 0.00447395 73.3717
2.71051e-20 -0.0258318 0.00284479 50.3475
0 0.0258318 0.00284478 20.3596
-2.71051e-20 -0.0257993 0.00329833 53.807
0 0.0257993 0.00329834 21.6863
2.25875e-21 0.0255336 0.00517881 408.327
-9.03502e-21 -0.0255336 0.00517875 477.312
0 0.025412 0.0060992 1584.62
0 -0.0254121 0.00609922 1589.59
-4.51751e-21 -0.0255488 0.00563572 1083.38
2.25875e-21 0.0255489 0.00563577 1036.77
0 0.0262228 -2.4481e-18 253.273
0 -0.0262229 -2.47071e-18 272.164
-1.35525e-20 0.0262241 0.000110141 253.099
0 -0.0262242 0.000110109 272.004
2.71051e-20 -0.025914 0.0040994 65.3294
2.71051e-20 0.025914 0.00409942 33.038
-1.35525e-20 -0.0255675 0.00617786 1260.49
-1.35525e-20 0.0255676 0.0061779 1254.34
0 0.025876 0.00480446 75.1684
0 -0.025876 0.00480443 132.081
4.51751e-21 0.0263175 0.00114406 146.476
-4.51751e-21 -0.0263176 0.00114406 172.286
1.35525e-20 0.0263543 1.29153e-19 252.706
0 -0.0263544 1.25817e-19 271.67
4.51751e-21 0.0263095 0.00235737 28.5073
3.38813e-21 -0.0263095 0.00235736 60.4624
1.05879e-22 -0.0262443 0.00306373 51.6586
0 0.0262443 0.00306373 20.0182
0 -0.0262456 0.00305715 51.7427
0 0.0262456 0.00305727 20.0982
3.17637e-22 0.0262459 0.0030829 20.2032
0 -0.0262459 0.00308328 51.8568
-2.71051e-20 0.0258908 0.00543286 249.681
2.71051e-20 -0.0258909 0.00543282 359.396
-1.807e-21 -0.0257782 0.00595398 1096.94
-4.51751e-22 0.0257782 0.005954 1085.06
-1.35525e-20 0.0264723 0.000113081 247.356
0 -0.0264724 0.000113055 266.692
-1.35525e-20 0.0264809 1.34692e-19 247.317
0 -0.0264809 1.33175e-19 266.655
1.35525e-20 0.0257321 0.00626843 1114.24
0 -0.0257323 0.00626851 1120.73
-4.70574e-22 0.0262544 0.00364383 26.7392
1.31761e-21 -0.0262544 0.0036438 59.4243
2.25875e-21 -0.026205 0.00444576 85.1178
1.12938e-21 0.026205 0.00444578 45.678
0 -0.0258429 0.00632528 1218.33
1.35525e-20 0.0258429 0.00632531 1211.92
3.38813e-21 0.0261907 0.00512143 130.651
2.25875e-21 -0.0261908 0.0051214 196.722
-8.47033e-21 0.0260126 0.00644129 1237.59
8.47033e-21 -0.0260126 0.00644132 1244.36
3.38813e-21 -0.0260425 0.00646009 1255.48
0 0.0260428 0.00646028 1248.79
0 -0.026528 0.00408777 55.7294
-2.71051e-20 0.026528 0.00408778 25.5014
-2.25875e-21 0.0262146 0.00581645 746.115
2.25875e-21 -0.0262146 0.00581641 788.958
0 -0.0261568 0.00624566 1284.46
5.42101e-21 0.0261568 0.00624573 1277.67
0 0.0265114 0.0047731 47.8909
0 -0.0265114 0.00477308 85.4842
0 0.0269561 0.000576396 240.817
1.0842e-19 -0.0269562 0.000576394 260.743
0 -0.0261882 0.00642608 1320.18
0 0.0261882 0.00642628 1313.23
-5.42101e-20 0.0269247 0.00175756 39.2176
0 -0.0269247 0.00175757 71.8817
0 -0.0261874 0.0065534 1374.91
0 0.0261875 0.00655341 1367.8
0 0.0264989 0.00545188 133.68
0 -0.026499 0.00545185 185.78
-1.0842e-19 0.0268811 0.00306204 16.9383
1.0842e-19 -0.0268811 0.00306204 50.1969
-6.77626e-21 0.02635 0.00616023 1091.79
-6.77626e-21 -0.02635 0.00616031 1115.42
0 0.0262995 0.00641296 1244.27
0 -0.0262996 0.00641277 1257.75
6.77626e-21 0.0263015 0.0065255 1406.55
-6.77626e-21 -0.0263016 0.00652546 1413.76
-6.77626e-22 -0.0268577 0.0037317 52.657
2.25875e-22 0.0268577 0.0037317 21.4952
0 0.0263054 0.00663196 1463.67
-3.38813e-21 -0.0263056 0.00663205 1471.02
0 0.0264848 0.00617556 910.24
0 -0.0264848 0.00617548 941.738
2.25875e-21 -0.0268382 0.00441889 63.5033
1.12938e-21 0.0268382 0.0044189 31.5861
6.77626e-21 -0.0263806 0.00668205 1526.97
-6.77626e-21 0.0263807 0.00668209 1519.75
-1.35525e-20 0.0265072 0.00650862 1479.28
2.71051e-21 -0.0265072 0.0065086 1486.47