# pMean  POINT_DATA 15411
# x  y  z  pMean
-1.35525e-20 0.015557 5.70113e-08 -0.0116228
1.35525e-20 -0.015557 5.70113e-08 0.0654887
0 -0.015557 0.000135955 0.065488
6.77626e-21 0.015557 0.000135978 -0.0116228
0 -0.015557 0.000527091 0.0654874
-6.77626e-21 0.015557 0.000527192 -0.0116228
0 -0.015557 0.000659598 0.0654882
0 0.015557 0.00065972 -0.0116228
-6.77626e-21 -0.015557 0.000798595 0.0654837
0 0.015557 0.000798713 -0.0116228
-6.77626e-21 -0.0155569 0.00121618 0.0654834
-6.77626e-21 0.0155569 0.00121632 -0.0116228
0 -0.0155569 0.0013548 0.0654882
-6.77626e-21 0.0155569 0.00135493 -0.0116228
0 -0.0156159 6.66059e-05 0.0654849
-6.77626e-21 0.0156159 6.66205e-05 -0.0116228
6.77626e-21 -0.015617 5.86706e-08 0.065485
6.77626e-21 0.015617 5.86703e-08 -0.0116228
0 -0.0156133 0.000594009 0.0654843
0 0.0156134 0.000594136 -0.0116228
0 -0.0156101 0.000720993 0.0654825
6.77626e-21 0.0156101 0.000721135 -0.0116228
0 -0.0155569 0.00150202 0.0654847
-6.77626e-21 0.0155569 0.00150211 -0.0116228
6.77626e-21 -0.0156099 0.00127802 0.0654822
0 0.0156099 0.00127818 -0.0116228
6.77626e-21 -0.0156067 0.00140494 0.0654829
0 0.0156067 0.00140508 -0.0116228
6.77626e-21 -0.0156758 6.25745e-08 0.0654822
6.77626e-21 0.0156759 6.25738e-08 -0.0116228
0 -0.0155569 0.00193256 0.0654875
-6.77626e-21 0.015557 0.00193259 -0.0116228
1.35525e-20 -0.0156643 0.000653665 0.0654825
2.71051e-20 0.0156643 0.000653856 -0.0116228
-6.77626e-21 0.015557 0.002087 -0.0116229
6.77626e-21 -0.015557 0.002087 0.0654922
1.35525e-20 -0.0156581 0.00132517 0.0654826
0 0.0156581 0.00132537 -0.0116228
6.77626e-21 0.0156109 0.00197559 -0.0116228
0 -0.0156109 0.00197556 0.0654865
-6.77626e-21 -0.01562 0.00210848 0.0654911
-6.77626e-21 0.01562 0.00210848 -0.0116228
6.77626e-21 0.0156426 0.00205606 -0.0116228
0 -0.0156426 0.00205603 0.0654889
-6.77626e-21 0.0156707 0.00197917 -0.0116228
0 -0.0156707 0.00197909 0.0654862
1.35525e-20 -0.0156949 0.00213398 0.0654849
0 0.0156949 0.00213398 -0.0116228
-3.38813e-20 -0.015885 7.41481e-08 0.0654713
-6.77626e-21 0.015885 7.41479e-08 -0.0116227
-1.12938e-21 -0.01589 0.000347638 0.0654703
0 0.01589 0.000347812 -0.0116227
1.35525e-21 -0.0158834 0.000956224 0.065474
-1.807e-21 0.0158834 0.000956574 -0.0116227
1.50584e-21 -0.0158471 0.00154369 0.0654757
-3.76459e-21 0.0158471 0.00154397 -0.0116227
5.64689e-22 0.0158414 0.00196399 -0.0116227
0 -0.0158414 0.00196388 0.0654733
2.03288e-20 -0.015839 0.00218308 0.0654751
-6.77626e-21 0.015839 0.00218308 -0.0116227
-1.35525e-20 -0.0159079 0.00220656 0.0654748
1.35525e-20 0.0159079 0.00220657 -0.0116227
-2.25875e-21 -0.0160357 0.0016614 0.0654635
3.38813e-21 0.0160357 0.00166177 -0.0116226
0 -0.0161336 1.64294e-05 0.0654621
-4.23516e-22 0.0161337 1.62936e-05 -0.0116226
0 -0.0161343 5.30972e-08 0.0654621
4.23516e-22 0.0161345 5.3091e-08 -0.0116226
1.35525e-20 -0.0159895 0.00223437 0.0654667
-2.71051e-20 0.0159895 0.00223438 -0.0116227
0 -0.0161453 5.24536e-08 0.0654615
4.23516e-22 0.0161478 5.2446e-08 -0.0116226
-3.38813e-21 -0.0161363 0.000658379 0.0654594
-3.38813e-21 0.0161363 0.000658899 -0.0116226
0 -0.0161079 0.00123674 0.0654636
-2.25875e-21 0.0161079 0.00123731 -0.0116226
7.52918e-22 -0.0162278 0.00195621 0.0654519
7.52918e-22 0.0162278 0.0019565 -0.0116225
0 -0.0161978 0.00230533 0.0654578
0 0.016198 0.00230539 -0.0116226
0 -0.0162561 0.00232518 0.0654585
-6.77626e-21 0.0162561 0.00232519 -0.0116226
-6.77626e-21 0.016267 0.00230123 -0.0116226
0 -0.016267 0.00230114 0.0654568
-6.77626e-21 0.0162975 0.0022713 -0.0116225
0 -0.0162976 0.0022711 0.0654524
3.38813e-20 0.0162993 0.00233988 -0.0116225
0 -0.0162994 0.00233991 0.065453
-1.807e-20 0.0164712 0.000318829 -0.0116225
0 -0.0164713 0.000318482 0.0654447
9.03502e-21 0.0164838 0.000934255 -0.0116224
-4.51751e-21 -0.0164839 0.000933479 0.0654439
-1.35525e-20 0.0165151 8.91806e-08 -0.0116225
0 -0.0165152 8.91797e-08 0.0654412
-9.03502e-21 0.0164768 0.00151157 -0.0116225
0 -0.0164769 0.00151091 0.0654449
2.71051e-20 0.0166394 9.23356e-08 -0.0116224
0 -0.0166395 9.23348e-08 0.0654359
1.35525e-20 0.0165053 0.00240993 -0.0116224
-4.06576e-20 -0.0165054 0.00240993 0.0654343
2.71051e-20 0.0167038 0.000635453 -0.0116224
-2.71051e-20 -0.0167039 0.000634624 0.065435
2.82344e-22 0.0165943 0.00217414 -0.0116223
-3.10579e-21 -0.0165944 0.00217395 0.0654236
0 0.0167298 0.00122683 -0.0116223
-5.42101e-20 -0.0167299 0.00122587 0.0654319
2.71051e-20 0.0166885 0.00181396 -0.0116224
0 -0.0166886 0.00181342 0.0654351
0 -0.0166609 0.002463 0.0654343
0 0.0166609 0.00246301 -0.0116224
0 0.0168423 7.09371e-08 -0.0116223
-1.35525e-20 -0.0168424 7.09349e-08 0.0654267
0 0.0169749 0.000303028 -0.0116223
-2.25875e-21 -0.016975 0.000302617 0.0654217
0 0.0168731 0.00220951 -0.0116223
0 -0.0168731 0.0022093 0.0654193
0 0.016996 0.000918651 -0.0116223
0 -0.0169961 0.00091773 0.0654153
-2.03288e-20 0.0168624 0.00253141 -0.0116223
6.77626e-21 -0.0168624 0.00253143 0.065424
4.51751e-21 0.0169886 0.00152444 -0.0116223
-3.38813e-21 -0.0169887 0.00152368 0.0654171
-2.71051e-20 0.0170875 2.46042e-08 -0.0116222
-1.35525e-20 -0.0170876 2.4598e-08 0.0654155
-4.51751e-21 0.0169822 0.0019947 -0.0116223
4.51751e-21 -0.0169822 0.00199432 0.0654144
-9.03502e-21 -0.0169517 0.00241974 0.0654214
4.51751e-21 0.0169517 0.00241984 -0.0116223
-2.03288e-20 -0.0169618 0.00256517 0.0654224
-2.71051e-20 0.0169619 0.0025652 -0.0116223
-2.71051e-20 0.0172725 0.000609723 -0.0116222
2.71051e-20 -0.0172727 0.000608854 0.0654075
2.71051e-20 0.017301 3.8681e-09 -0.0116222
2.71051e-20 -0.0173012 3.85985e-09 0.0654054
2.71051e-20 0.0172756 0.00121852 -0.0116221
2.71051e-20 -0.0172759 0.00121756 0.0654054
5.42101e-20 0.0172503 0.00183266 -0.0116222
0 -0.0172504 0.00183216 0.0654111
-2.71051e-20 -0.0171626 0.00263335 0.0654175
0 0.0171626 0.00263335 -0.0116222
0 0.0172628 0.00228364 -0.0116222
-1.69407e-21 -0.0172628 0.00228347 0.065409
-2.71051e-20 0.0175152 3.90385e-09 -0.0116221
-1.35525e-20 -0.0175152 3.89758e-09 0.0653955
-2.25875e-21 0.0176167 0.000304206 -0.0116221
-4.51751e-21 -0.0176168 0.0003039 0.0653909
-1.12938e-21 0.0176138 0.000914405 -0.011622
7.90564e-21 -0.0176139 0.000913728 0.0653902
-5.64689e-21 -0.0175987 0.00154607 0.0653865
-1.12938e-21 0.0175986 0.00154661 -0.011622
-8.47033e-22 0.0174822 0.00274305 -0.011622
-1.52466e-20 -0.0174824 0.00274311 0.0653887
2.37169e-20 -0.0174953 0.00274748 0.0653878
-1.10114e-20 0.0174954 0.00274754 -0.011622
-1.35525e-20 0.0177276 5.30319e-09 -0.011622
0 -0.0177276 5.30115e-09 0.0653855
2.25875e-21 -0.0176266 0.0021181 0.0653935
2.25875e-21 0.0176266 0.00211837 -0.011622
2.25875e-21 -0.0175734 0.00255388 0.0653879
4.51751e-21 0.0175734 0.00255396 -0.011622
0 -0.0179395 5.3668e-09 0.0653749
0 0.0179395 5.36695e-09 -0.0116219
0 0.0179446 0.000602116 -0.0116219
-2.71051e-20 -0.0179448 0.000601729 0.0653746
0 0.0179404 0.00122928 -0.0116219
2.71051e-20 -0.0179405 0.00122883 0.0653744
0 -0.0179 0.00190857 0.0653785
0 0.0179 0.00190883 -0.0116219
-2.71051e-20 -0.0177925 0.00284977 0.0653851
-2.71051e-20 0.0177926 0.00284978 -0.0116219
0 -0.0179476 0.00242616 0.0653771
-2.71051e-20 0.0179477 0.00242626 -0.0116219
-2.71051e-20 -0.0181451 4.40312e-09 0.0653658
1.35525e-20 0.0181451 4.40323e-09 -0.0116218
0 -0.0180151 0.00292661 0.0653824
0 0.0180152 0.00292666 -0.0116218
4.51751e-21 0.0182715 0.000300951 -0.0116218
4.51751e-21 -0.0182716 0.000300824 0.0653601
4.51751e-21 0.0182775 0.000913256 -0.0116217
-2.25875e-21 -0.0182775 0.000912982 0.0653613
1.12938e-20 -0.0182701 0.00156202 0.0653624
-2.25875e-21 0.0182702 0.00156226 -0.0116217
2.25875e-21 -0.0182365 0.00214905 0.0653678
2.25875e-21 0.0182365 0.00214918 -0.0116218
0 0.0181446 0.0029715 -0.0116218
-6.77626e-21 -0.0181446 0.00297151 0.0653751
4.51751e-22 -0.018187 0.00270962 0.0653747
-9.03502e-22 0.018187 0.00270971 -0.0116218
-1.35525e-20 0.0183922 2.43152e-09 -0.0116217
1.35525e-20 -0.0183922 2.43142e-09 0.0653547
0 -0.0185886 1.4653e-09 0.0653456
0 0.0185886 1.46536e-09 -0.0116216
2.71051e-20 -0.0183436 0.00304025 0.0653611
-2.71051e-20 0.0183438 0.00304031 -0.0116217
2.71051e-20 0.0185996 0.000594964 -0.0116216
0 -0.0185997 0.000594844 0.065346
-1.16165e-20 -0.0186737 0.00129279 0.0653419
0 0.0186737 0.00129292 -0.0116216
-1.35525e-20 -0.0187703 1.23407e-09 0.0653373
-2.71051e-20 0.0187703 1.23411e-09 -0.0116215
-2.71051e-20 -0.0185172 0.00309968 0.0653259
3.38813e-20 0.0185172 0.00309971 -0.0116215
1.807e-20 0.0187147 0.00187627 -0.0116215
9.03502e-21 -0.0187147 0.00187618 0.0653397
-1.50584e-21 0.0186673 0.00253576 -0.0116216
1.50584e-21 -0.0186673 0.00253569 0.0653403
-4.51751e-21 0.018823 0.000903617 -0.0116215
0 -0.018823 0.000903518 0.0653365
6.77626e-21 0.0188705 0.000248278 -0.0116215
-4.51751e-21 -0.0188706 0.000248244 0.0653321
1.35525e-20 -0.0186433 0.00294006 0.0653316
5.42101e-21 0.0186434 0.00294015 -0.0116215
0 -0.0189391 0.0015442 0.0653307
0 0.018939 0.00154428 -0.0116214
1.27055e-21 0.01877 0.00318707 -0.0116215
2.22346e-21 -0.0187697 0.00318691 0.0653338
0 -0.0188366 0.00285351 0.0653364
6.77626e-21 0.0188366 0.0028535 -0.0116215
1.35525e-20 0.0190684 6.42266e-10 -0.0116214
0 -0.0190684 6.42229e-10 0.0653227
2.71051e-20 -0.0189469 0.0022033 0.0653272
0 0.0189469 0.00220336 -0.0116214
0 -0.0189609 0.002942 0.0653395
6.77626e-21 0.018961 0.00294206 -0.0116216
0 -0.0192376 4.1695e-10 0.0653142
0 0.0192376 4.16977e-10 -0.0116213
9.03502e-21 0.0192505 0.000578849 -0.0116213
-2.25875e-21 -0.0192506 0.000578823 0.0653123
6.77626e-21 0.0192653 0.00120345 -0.0116213
-2.25875e-21 -0.0192654 0.00120342 0.06531
6.77626e-21 -0.0192727 0.00186892 0.0653096
-6.77626e-21 0.0192727 0.00186895 -0.0116213
-1.35525e-20 -0.0190867 0.00329553 0.0653153
1.35525e-20 0.0190869 0.00329559 -0.0116214
1.35525e-20 0.0193938 3.58667e-10 -0.0116213
0 -0.0193938 3.58645e-10 0.0653057
1.35525e-20 0.0193936 0.000130558 -0.0116213
1.35525e-20 -0.0193936 0.000130549 0.0653058
0 -0.019134 0.00323281 0.065313
0 0.0191342 0.00323291 -0.0116214
-2.25875e-21 -0.019259 0.0025456 0.0653073
-4.51751e-21 0.019259 0.00254567 -0.0116213
2.71051e-20 -0.0192049 0.00333603 0.0653102
1.35525e-20 0.019205 0.00333606 -0.0116214
-2.25875e-22 -0.0193216 0.00298789 0.0653017
-2.48463e-21 0.0193217 0.00298796 -0.0116213
-2.71051e-20 0.0195688 0.0002809 -0.0116212
2.71051e-20 -0.0195688 0.000280889 0.0652967
0 0.019589 0.000871785 -0.0116212
2.71051e-20 -0.0195891 0.000871776 0.0652907
-2.71051e-20 0.019374 0.00328238 -0.0116213
-2.71051e-20 -0.019374 0.00328231 0.0653021
2.71051e-20 0.0196057 0.00151362 -0.0116211
0 -0.0196057 0.0015136 0.0652872
-1.35525e-20 0.0193742 0.00339401 -0.0116213
2.71051e-20 -0.0193743 0.00339402 0.0653023
2.71051e-20 -0.0196062 0.00219166 0.0652919
2.71051e-20 0.0196062 0.0021917 -0.0116212
-1.35525e-20 0.0197445 1.18814e-10 -0.0116211
0 -0.0197445 1.18805e-10 0.0652898
-1.35525e-20 0.0197496 0.000118775 -0.0116211
2.71051e-20 -0.0197497 0.000118768 0.0652896
0 -0.0196349 0.00277745 0.0652845
2.71051e-20 0.0196349 0.00277749 -0.0116212
2.71051e-20 -0.0195953 0.00324393 0.0652899
1.35525e-20 0.0195954 0.00324399 -0.0116212
-1.35525e-20 0.0198868 6.23618e-11 -0.011621
1.35525e-20 -0.0198869 6.23578e-11 0.0652853
-2.25875e-21 0.0199025 0.000551659 -0.0116211
-2.25875e-21 -0.0199025 0.000551656 0.0652823
-1.35525e-20 -0.0196374 0.00348418 0.0652887
-2.71051e-20 0.0196377 0.00348428 -0.0116212
0 0.0199263 0.001165 -0.011621
-1.12938e-21 -0.0199263 0.001165 0.06528
1.35525e-20 -0.0197066 0.00339972 0.065285
0 0.0197068 0.00339991 -0.0116211
-1.35525e-20 0.0200175 0.000104914 -0.011621
0 -0.0200175 0.000104929 0.0652791
0 0.020018 5.47771e-11 -0.011621
0 -0.0200181 5.47715e-11 0.0652791
0 -0.0199354 0.00184126 0.0652755
-1.12938e-21 0.0199354 0.00184128 -0.011621
4.51751e-21 -0.0199396 0.00250633 0.0652726
2.25875e-21 0.0199397 0.00250637 -0.011621
-1.35525e-20 -0.0198049 0.00354152 0.0652789
-1.35525e-20 0.019805 0.00354156 -0.0116211
1.12938e-21 -0.0199176 0.00307602 0.0652746
-4.51751e-21 0.0199177 0.00307606 -0.0116211
0 -0.0202108 0.000262556 0.0652714
2.71051e-20 0.0202108 0.00026255 -0.0116209
0 0.0202372 0.000828992 -0.0116209
2.71051e-20 -0.0202372 0.000828987 0.0652702
0 0.0199792 0.00344752 -0.011621
-2.71051e-20 -0.0199793 0.00344738 0.0652731
-6.77626e-21 0.0199875 0.00360402 -0.011621
-1.35525e-20 -0.0199877 0.00360407 0.0652742
0 0.0202611 0.00146964 -0.0116209
-2.71051e-20 -0.0202612 0.00146963 0.0652718
-2.71051e-20 -0.0202613 0.00216726 0.0652508
-5.42101e-20 0.0202614 0.00216729 -0.0116209
-1.35525e-20 -0.020424 1.48352e-11 0.0652571
1.35525e-20 0.0204241 1.48335e-11 -0.0116209
0 -0.0204263 8.83644e-05 0.065257
1.35525e-20 0.0204264 8.83482e-05 -0.0116209
6.77626e-21 -0.0201259 0.00365139 0.0652682
2.71051e-20 -0.0202574 0.00283427 0.0652632
-2.71051e-20 0.0202575 0.00283433 -0.0116209
6.77626e-21 0.0201264 0.00365156 -0.011621
0 -0.0202301 0.00346725 0.0652611
0 0.0202303 0.00346745 -0.0116209
0 -0.0205367 8.07365e-12 0.0652493
0 0.0205367 8.07331e-12 -0.0116209
4.51751e-21 -0.0205431 0.000507253 0.0652605
-2.25875e-21 0.0205431 0.000507255 -0.0116209
-2.25875e-21 0.0205806 0.00109812 -0.0116208
0 -0.0205806 0.00109812 0.0652579
-1.35525e-20 0.0206332 7.23344e-05 -0.0116209
-1.35525e-20 -0.0206332 7.23369e-05 0.0652378
0 0.0206362 7.47662e-12 -0.0116209
-1.35525e-20 -0.0206362 7.47681e-12 0.0652382
1.35525e-20 -0.0203259 0.00371982 0.065254
0 0.0203262 0.0037199 -0.0116209
1.12938e-21 -0.0205919 0.0017924 0.0652442
-2.25875e-21 0.0205919 0.00179242 -0.0116207
-4.51751e-21 -0.0205776 0.00251315 0.0652473
-3.38813e-21 0.0205776 0.00251319 -0.0116208
-1.35525e-20 -0.0204397 0.00376151 0.0652318
1.35525e-20 0.0204398 0.00376155 -0.0116207
-1.35525e-20 -0.0204727 0.00364916 0.0652337
-1.35525e-20 0.0204728 0.00364933 -0.0116207
3.76459e-21 -0.0205733 0.00324403 0.0652437
0 0.0205734 0.00324407 -0.0116208
0 0.0208433 0.000231582 -0.0116209
2.71051e-20 -0.0208434 0.000231576 0.0652231
2.71051e-20 0.0208763 0.000747827 -0.0116208
0 -0.0208763 0.000747825 0.0652766
-2.71051e-20 0.0209306 0.00137574 -0.0116206
-2.71051e-20 -0.0209307 0.00137573 0.065215
1.35525e-20 0.0206256 0.00382198 -0.0116208
1.35525e-20 -0.0206258 0.00382201 0.0652386
2.71051e-20 -0.0209017 0.00213763 0.0652374
-2.71051e-20 0.0209017 0.00213766 -0.0116206
6.77626e-21 -0.0207137 0.00385275 0.0652421
6.77626e-21 0.0207139 0.00385285 -0.0116208
0 -0.0208885 0.0028589 0.0652384
0 0.0208886 0.00285896 -0.0116207
-1.35525e-20 -0.02076 0.00376312 0.0652444
6.77626e-21 0.0207604 0.00376287 -0.0116208
1.50584e-21 -0.0211429 0.000434515 0.0652412
-4.51751e-21 0.0211429 0.000434517 -0.0116207
2.25875e-21 -0.020841 0.00362678 0.0652474
-2.25875e-21 0.0208412 0.00362688 -0.0116209
6.77626e-21 -0.0208385 0.00389815 0.0652267
6.77626e-21 0.0208392 0.00389846 -0.0116207
-2.96462e-21 0.0212597 5.23664e-13 -0.0116206
-4.23516e-22 -0.0212598 5.24304e-13 0.0652398
-8.47033e-22 0.0212767 1.41034e-05 -0.0116206
4.23516e-22 0.0212812 1.48332e-06 -0.0116206
8.89385e-21 -0.0212768 1.40587e-05 0.0652394
0 -0.0212769 1.7356e-06 0.0652395
0 0.0212896 2.69174e-13 -0.0116206
0 -0.0212896 2.70632e-13 0.0652394
-1.69407e-21 0.0212724 0.000879015 -0.0116205
-1.8823e-22 -0.0212724 0.000879006 0.0652361
6.77626e-22 0.0212426 0.00171822 -0.0116205
1.35525e-21 -0.0212427 0.00171817 0.0652256
-3.38813e-21 -0.0212146 0.00249699 0.0652193
3.38813e-21 0.0212146 0.00249702 -0.0116205
1.35525e-20 -0.0210353 0.00398137 0.0652151
1.35525e-20 0.0210356 0.00398151 -0.0116206
-2.25875e-21 -0.021178 0.00323684 0.065211
-2.25875e-21 0.0211781 0.00323695 -0.0116205
1.35525e-20 -0.0210737 0.00393718 0.0652132
-2.71051e-20 0.0210739 0.00393742 -0.0116206
1.35525e-20 -0.0211187 0.00402023 0.0652105
0 0.0211188 0.00402028 -0.0116206
9.68038e-22 -0.0212477 0.00368159 0.0652025
0 0.0212477 0.00368165 -0.0116205
2.71051e-20 0.0215747 0.00130741 -0.0116204
2.71051e-20 -0.0215747 0.0013074 0.0652448
0 0.0212487 0.00397497 -0.0116205
0 -0.0212488 0.00397483 0.065204
6.77626e-21 0.0212528 0.00408536 -0.0116205
-6.77626e-21 -0.021253 0.00408547 0.0652035
-2.25875e-21 0.0216407 0.000331745 -0.0116197
0 -0.0216408 0.000331738 0.0652311
-2.71051e-20 0.0215441 0.00209933 -0.0116204
0 -0.0215441 0.00209931 0.0652065
2.71051e-20 -0.0215224 0.00284519 0.0651956
-2.71051e-20 0.0215225 0.00284524 -0.0116204
0 0.0217961 7.90662e-14 -0.0116197
1.35525e-20 -0.0217961 7.93941e-14 0.0652307
0 -0.0215506 0.0034709 0.0651833
-2.71051e-20 0.0215507 0.00347098 -0.0116204
4.06576e-20 -0.021496 0.00395182 0.0651893
2.71051e-20 0.0214961 0.00395191 -0.0116204
0 -0.0214981 0.0042046 0.065185
-6.77626e-21 0.0214986 0.00420483 -0.0116204
0 0.0218605 0.00170496 -0.0116203
3.29402e-22 -0.0218606 0.0017049 0.0652164
-2.25875e-22 0.0219212 0.000827144 -0.0116201
-2.48463e-21 -0.0219212 0.00082713 0.065219
-2.71051e-20 0.0219609 4.00731e-14 -0.0116199
1.35525e-20 -0.021961 4.01624e-14 0.0652402
5.64689e-22 -0.0218494 0.00247004 0.0651914
-5.64689e-22 0.0218494 0.00247006 -0.0116203
0 -0.0216144 0.0041396 0.0651765
1.35525e-20 0.0216146 0.0041399 -0.0116203
0 -0.0216502 0.00427848 0.0651722
0 0.0216504 0.00427858 -0.0116203
-5.64689e-22 -0.0218421 0.00317491 0.0651782
1.12938e-21 0.0218422 0.00317497 -0.0116203
0 -0.0217324 0.0043183 0.065149
0 0.0217325 0.00431833 -0.0116202
0 -0.0217584 0.00423542 0.0651509
-1.35525e-20 0.0217584 0.00423558 -0.0116202
0 0.0221732 2.80694e-14 -0.0116197
0 -0.0221734 2.81206e-14 0.0652361
0 -0.0218663 0.00385214 0.0651646
-7.05861e-23 0.0218671 0.00385266 -0.0116202
-2.71051e-20 0.0222021 0.00129535 -0.0116201
-2.71051e-20 -0.0222022 0.00129534 0.0652143
-3.5293e-23 -0.0222511 0.000329013 0.0652403
0 0.0222517 0.000329756 -0.0116197
-2.71051e-20 0.0221693 0.00208073 -0.0116202
0 -0.0221694 0.00208072 0.0652018
1.35525e-20 0.0218632 0.00438168 -0.0116202
-1.35525e-20 -0.0218633 0.00438173 0.0651548
-6.77626e-21 -0.0223211 1.21337e-14 0.0652253
-2.03288e-20 0.0223211 1.20993e-14 -0.0116196
2.71051e-20 -0.0221597 0.00282092 0.065163
0 0.0221597 0.00282095 -0.0116201
-2.71051e-20 -0.0221457 0.00350906 0.0651719
2.71051e-20 0.0221457 0.00350913 -0.0116201
2.03288e-20 -0.0220147 0.00445519 0.0651551
-6.77626e-21 0.0220149 0.00445527 -0.0116203
5.42101e-20 0.0225414 1.2233e-15 -0.0116196
0 -0.0225415 1.22688e-15 0.0651991
-5.64689e-22 -0.0221394 0.00425953 0.065157
2.25875e-21 0.0221395 0.00425957 -0.0116203
-8.47033e-22 0.0224964 0.00168457 -0.01162
4.23516e-21 -0.0224964 0.00168462 0.065176
1.10114e-20 0.0225019 0.00169156 -0.01162
4.23516e-22 -0.0225021 0.00168484 0.0651751
-4.23516e-22 -0.0225129 0.001688 0.0651742
0 0.0225131 0.001688 -0.01162
0 0.022576 0.000874286 -0.0116197
1.807e-21 -0.0225761 0.000874279 0.0651827
5.64689e-22 0.0225135 0.00242347 -0.0116199
3.22679e-22 -0.0225135 0.0024234 0.0651389
1.12938e-21 -0.0224593 0.00318118 0.065142
-3.38813e-21 0.0224593 0.00318122 -0.01162
0 -0.0223014 0.00459401 0.0651492
0 0.0223021 0.00459434 -0.0116201
-2.71051e-21 -0.0224349 0.00390494 0.0651456
-5.87276e-21 0.0224349 0.00390503 -0.01162
-9.74088e-21 0.0228058 8.71796e-16 -0.0116185
4.23516e-22 -0.022806 8.73835e-16 0.0651077
2.5411e-21 0.022811 2.493e-05 -0.0116185
-4.23516e-22 -0.0228111 2.41514e-05 0.0651066
0 -0.0223411 0.0046132 0.0651495
3.38813e-21 0.0223413 0.00461331 -0.0116201
0 -0.0228141 8.54706e-16 0.0651064
5.64689e-22 0.0228117 0.000334111 -0.0116187
2.96462e-21 0.0228142 8.52135e-16 -0.0116185
-2.25875e-21 -0.0228118 0.000334123 0.0651204
0 -0.0223469 0.00460662 0.0651493
-3.38813e-21 0.022347 0.00460681 -0.0116201
0 -0.0223544 0.00461967 0.0651486
0 0.0223545 0.00461971 -0.0116201
0 -0.0223624 0.00458463 0.0651487
0 0.0223623 0.00458505 -0.0116201
-1.69407e-21 0.0223809 0.00461205 -0.0116201
0 -0.0223811 0.00461193 0.0651449
0 0.0223956 0.00463962 -0.01162
1.69407e-21 -0.022396 0.00463981 0.0651409
1.35525e-20 -0.0225313 0.00433152 0.0651624
0 0.0225314 0.00433163 -0.0116201
0 -0.0227767 0.00282449 0.0651104
5.42101e-20 0.0227767 0.00282452 -0.0116198
2.71051e-20 0.0229169 0.00145352 -0.0116199
2.71051e-20 -0.022917 0.00145354 0.065179
0 0.0229127 0.00195201 -0.0116197
2.71051e-20 -0.0229127 0.00195199 0.0650735
5.42101e-20 -0.0227583 0.00352767 0.06512
-2.71051e-20 0.0227583 0.00352773 -0.0116198
6.77626e-21 -0.0226788 0.00436536 0.0651519
-1.35525e-20 0.0226788 0.00436543 -0.01162
-1.35525e-20 -0.0231146 6.2653e-16 0.0651049
1.35525e-20 0.0231146 6.24699e-16 -0.011619
-2.82344e-22 0.0231263 0.00085734 -0.0116194
-8.47033e-22 -0.0231263 0.00085738 0.0651154
-1.35525e-20 0.0231204 0.00168687 -0.0116196
-1.35525e-20 -0.0231204 0.00168687 0.0651182
0 -0.022691 0.00478261 0.0651012
1.35525e-20 0.0226912 0.00478269 -0.0116197
4.23516e-22 0.0231332 0.00244156 -0.0116196
-2.82344e-22 -0.0231332 0.00244155 0.0650992
1.35525e-20 -0.0227887 0.00466778 0.0651037
-1.35525e-20 0.0227888 0.00466792 -0.0116197
1.12938e-21 -0.0230834 0.00317451 0.0651119
4.51751e-21 0.0230834 0.00317454 -0.0116197
0 -0.023319 3.12047e-16 0.0650656
0 0.0233192 3.1085e-16 -0.0116189
2.25875e-21 -0.0230283 0.00391279 0.0651173
-2.25875e-21 0.0230283 0.00391288 -0.0116197
-2.71051e-20 -0.0233299 0.00142278 0.0651079
0 0.02333 0.00142275 -0.0116195
5.42101e-20 -0.0233168 0.00194192 0.0651118
0 0.0233168 0.00194193 -0.0116195
5.42101e-20 -0.0228965 0.00488208 0.0651308
5.42101e-20 0.0228965 0.0048821 -0.0116198
4.51751e-21 0.0234102 0.000267349 -0.011619
0 -0.0234102 0.000267197 0.0650627
-1.50584e-21 -0.0229985 0.00439045 0.0651148
-2.25875e-21 0.0229986 0.00439055 -0.0116197
-1.35525e-20 0.023516 1.75113e-16 -0.0116191
-6.77626e-21 -0.0235163 1.75792e-16 0.0650534
2.71051e-20 -0.0234234 0.00278582 0.0651075
-2.71051e-20 0.0234234 0.00278584 -0.0116195
0 -0.023065 0.00496366 0.0651214
0 0.0230651 0.00496372 -0.0116197
2.71051e-20 -0.0233787 0.00352555 0.0651091
0 0.0233787 0.00352559 -0.0116196
0 0.023716 -1.12992e-16 -0.0116195
-1.35525e-20 -0.0237161 -1.12641e-16 0.0650605
-1.35525e-21 -0.0232667 0.00471649 0.0651091
0 0.0232668 0.00471653 -0.0116196
0 -0.0233857 0.00417623 0.0651011
0 0.0233857 0.00417629 -0.0116196
0 0.0232203 0.00503884 -0.0116196
-1.35525e-20 -0.0232204 0.00503886 0.0651129
1.12938e-21 0.0237642 0.00087167 -0.0116194
3.10579e-21 -0.0237642 0.000871743 0.0650707
-2.71051e-20 -0.0237896 9.69124e-05 0.0650552
0 0.0237897 9.71024e-05 -0.0116196
0 -0.0237941 4.97837e-16 0.065055
-1.35525e-20 0.0237941 5.00227e-16 -0.0116196
1.41172e-22 -0.0237453 0.00168599 0.0650875
-5.64689e-22 0.0237454 0.00168598 -0.0116194
1.35525e-20 -0.0238503 -3.62296e-16 0.0650618
0 0.0238505 -3.64289e-16 -0.0116195
-2.25875e-21 -0.0237771 0.00232528 0.0650854
-3.16226e-21 0.0237771 0.00232532 -0.0116194
0 -0.0233449 0.00509915 0.0651117
0 0.023345 0.00509919 -0.0116196
-2.25875e-21 -0.0237117 0.00315189 0.0650874
2.25875e-21 0.0237118 0.0031519 -0.0116194
1.35525e-20 -0.0239753 0.000105662 0.0650492
1.35525e-20 0.0239757 0.000105887 -0.0116193
0 -0.0240028 2.38539e-16 0.0650474
1.12938e-21 -0.0236913 0.00385633 0.0650876
4.51751e-21 0.0236913 0.00385637 -0.0116195
0 0.0240033 2.38657e-16 -0.0116193
-1.69407e-20 -0.0235265 0.00518704 0.0650375
2.37169e-20 0.0235265 0.00518705 -0.0116192
1.50584e-21 0.0237117 0.00456141 -0.0116194
7.52918e-21 -0.0237117 0.00456136 0.0650849
-1.01644e-20 -0.0235864 0.00521602 0.0650461
-3.38813e-21 0.0235866 0.00521614 -0.0116193
-1.0842e-20 -0.0236568 0.00499178 0.0650742
-1.6263e-20 0.0236569 0.00499184 -0.0116193
-2.71051e-20 -0.0240359 0.00277848 0.0650659
2.71051e-20 0.0240359 0.00277849 -0.0116194
-2.71051e-20 -0.0240146 0.00349442 0.0650669
0 0.0240146 0.00349445 -0.0116193
1.35525e-20 -0.0237108 0.00516846 0.0650682
-1.35525e-20 0.0237109 0.00516865 -0.0116193
1.35525e-20 -0.0237216 0.00528148 0.065088
0 0.0237216 0.0052815 -0.0116194
3.38813e-21 0.0238516 0.00489339 -0.0116195
-6.77626e-21 -0.0238517 0.00489346 0.0650984
0 -0.0239976 0.00419233 0.0650733
0 0.0239977 0.00419237 -0.0116194
-6.77626e-21 0.0238168 0.00514851 -0.0116194
0 -0.0238169 0.0051483 0.0650821
1.35525e-20 0.0238282 0.00525495 -0.0116194
-6.77626e-21 -0.0238283 0.00525489 0.0650753
0 0.0238429 0.00534021 -0.0116193
6.77626e-21 -0.023843 0.00534027 0.0650656
5.42101e-20 0.0243893 0.00171904 -0.0116191
5.42101e-20 -0.0243893 0.00171904 0.0650466
2.71051e-20 -0.0239789 0.0048986 0.0651249
0 0.0239789 0.0048987 -0.0116196
1.41172e-22 0.0243696 0.00243126 -0.0116191
1.41172e-22 -0.0243706 0.00243183 0.0650459
5.42101e-20 -0.0244866 0.000512679 0.0650167
5.42101e-20 0.0244867 0.000512677 -0.011619
0 -0.0243442 0.00312513 0.0650475
2.25875e-21 0.0243442 0.00312514 -0.0116192
2.71051e-20 -0.0239577 0.00539577 0.0650524
-2.03288e-20 0.0239577 0.00539581 -0.0116193
2.71051e-21 0.0240299 0.00521685 -0.0116194
-1.35525e-20 -0.0240299 0.00521681 0.0650821
1.12938e-21 -0.0243197 0.00383759 0.0650533
1.12938e-21 0.0243197 0.00383762 -0.0116192
-4.51751e-21 -0.0242836 0.00455354 0.0650597
-1.12938e-20 0.0242836 0.00455361 -0.0116192
0 0.0241601 0.00549381 -0.0116194
-1.35525e-20 -0.0241602 0.00549381 0.0650914
-4.51751e-21 -0.0242635 0.00502104 0.0650595
-2.25875e-21 0.0242636 0.0050211 -0.0116192
-2.71051e-20 -0.0246819 0.00275431 0.0650265
0 0.0246819 0.00275432 -0.0116189
0 -0.0246457 0.00346487 0.0650301
0 0.0246457 0.00346489 -0.0116191
0 -0.0243131 0.00556781 0.0650757
0 0.0243131 0.00556784 -0.0116192
2.71051e-20 0.0249637 3.14343e-16 -0.0116189
0 -0.0249638 3.14534e-16 0.064987
0 0.0249658 0.000127132 -0.0116189
2.71051e-20 -0.0249658 0.000127056 0.064987
-2.71051e-20 -0.0246319 0.00416565 0.0650421
0 0.0246319 0.00416568 -0.0116191
-2.25875e-21 0.0250669 0.0011139 -0.0116188
0 -0.0250669 0.0011139 0.064992
5.42101e-21 -0.0245277 0.0053337 0.0650581
-1.807e-21 0.0245277 0.00533373 -0.0116191
0 -0.0246411 0.00480615 0.065039
-5.42101e-20 0.0246411 0.00480619 -0.011619
0 -0.0251264 -5.56035e-18 0.0649792
2.71051e-20 0.0251265 -5.53943e-18 -0.0116188
-6.77626e-21 0.0244891 0.00565307 -0.0116191
0 -0.0244893 0.00565312 0.0650665
3.38813e-21 0.0250457 0.00228488 -0.0116189
-1.12938e-21 -0.0250457 0.00228488 0.0650057
-5.64689e-22 -0.0249744 0.00307723 0.0650032
-2.82344e-22 0.0249744 0.00307727 -0.0116189
-2.71051e-20 0.0245965 0.00570506 -0.0116191
0 -0.0245965 0.00570504 0.0650715
-2.71051e-20 -0.0252751 0.000134702 0.0649733
0 -0.0249933 0.00376618 0.065002
-1.12938e-21 0.0249934 0.00376619 -0.0116189
0 0.0252752 0.000134769 -0.0116188
0 -0.0252845 -2.39213e-18 0.0649728
1.35525e-20 0.0252846 -2.39376e-18 -0.0116188
-2.25875e-21 -0.0249434 0.00449171 0.0650212
-2.25875e-21 0.0249434 0.00449173 -0.0116189
-3.38813e-20 0.0247822 0.00579494 -0.0116186
-2.37169e-20 -0.0247823 0.00579495 0.0649816
0 0.0249666 0.00518174 -0.0116189
-7.52918e-21 -0.0249666 0.0051817 0.0650388
0 -0.0248294 0.00581779 0.0649932
6.77626e-21 0.0248297 0.00581793 -0.0116186
0 -0.0249104 0.00560263 0.0650348
1.89735e-20 0.0249104 0.00560269 -0.0116188
-2.71051e-20 0.0254015 0.00285468 -0.0116188
0 -0.0254015 0.00285468 0.0649891
-2.71051e-20 -0.0252645 0.00414469 0.0649853
2.71051e-20 0.0252645 0.00414472 -0.0116187
0 0.0254031 0.00331055 -0.0116187
-8.13152e-20 -0.0254031 0.00331053 0.064945
-6.77626e-21 -0.0249623 0.00577177 0.0650299
6.77626e-21 0.0249624 0.00577198 -0.0116188
0 -0.0249739 0.00588771 0.0650604
0 0.0249739 0.00588773 -0.0116189
-2.71051e-20 -0.0252501 0.00482061 0.0650168
0 0.0252501 0.00482065 -0.0116188
0 0.0257172 0.000556259 -0.0116186
1.0842e-19 -0.0257173 0.000556256 0.0649458
0 0.0250722 0.00575404 -0.0116188
0 -0.0250723 0.00575381 0.0650544
-5.42101e-20 0.0256698 0.00175088 -0.0116186
0 -0.0256699 0.00175088 0.0649599
2.82344e-22 -0.0256382 0.00241569 0.0649711
-1.69407e-21 0.0256382 0.00241572 -0.0116186
6.77626e-21 0.0250837 0.00586272 -0.0116188
1.35525e-20 -0.0250838 0.00586267 0.0650429
1.35525e-20 -0.0256079 0.00307874 0.0649638
0 0.0256079 0.00307875 -0.0116187
0 0.0250979 0.00594758 -0.0116188
0 -0.025098 0.00594766 0.0650292
2.25875e-21 -0.0251925 0.0055531 0.0650645
0 0.0251926 0.00555306 -0.0116189
0 0.0252317 0.00551488 -0.0116191
-2.71051e-20 -0.0252317 0.00551479 0.0651226
2.25875e-21 -0.0255924 0.00379288 0.0649606
-3.01167e-21 0.0255924 0.00379288 -0.0116186
1.35525e-20 -0.0252102 0.00600187 0.065013
-6.77626e-21 0.0252102 0.00600189 -0.0116187
-2.71051e-21 0.0252817 0.00582896 -0.0116188
0 -0.0252818 0.00582894 0.065056
0 -0.0255735 0.00447393 0.0649861
3.38813e-21 0.0255735 0.00447395 -0.0116186
2.71051e-20 -0.0258318 0.00284479 0.064968
0 0.0258318 0.00284478 -0.0116186
-2.71051e-20 -0.0257993 0.00329833 0.0649589
0 0.0257993 0.00329834 -0.0116186
2.25875e-21 0.0255336 0.00517881 -0.0116187
-9.03502e-21 -0.0255336 0.00517875 0.0650221
0 0.025412 0.0060992 -0.0116188
0 -0.0254121 0.00609922 0.0650766
-4.51751e-21 -0.0255488 0.00563572 0.0650321
2.25875e-21 0.0255489 0.00563577 -0.0116186
0 0.0262228 -2.4481e-18 -0.0116184
0 -0.0262229 -2.47071e-18 0.0649255
-1.35525e-20 0.0262241 0.000110141 -0.0116184
0 -0.0262242 0.000110109 0.0649255
2.71051e-20 -0.025914 0.0040994 0.0649537
2.71051e-20 0.025914 0.00409942 -0.0116185
-1.35525e-20 -0.0255675 0.00617786 0.0650553
-1.35525e-20 0.0255676 0.0061779 -0.0116187
0 0.025876 0.00480446 -0.0116185
0 -0.025876 0.00480443 0.0649868
4.51751e-21 0.0263175 0.00114406 -0.0116183
-4.51751e-21 -0.0263176 0.00114406 0.0649217
1.35525e-20 0.0263543 1.29153e-19 -0.0116183
0 -0.0263544 1.25817e-19 0.0649195
4.51751e-21 0.0263095 0.00235737 -0.0116183
3.38813e-21 -0.0263095 0.00235736 0.0649277
1.05879e-22 -0.0262443 0.00306373 0.0649352
0 0.0262443 0.00306373 -0.0116184
0 -0.0262456 0.00305715 0.0649351
0 0.0262456 0.00305727 -0.0116184
3.17637e-22 0.0262459 0.0030829 -0.0116184
0 -0.0262459 0.00308328 0.0649349
-2.71051e-20 0.0258908 0.00543286 -0.0116185
2.71051e-20 -0.0258909 0.00543282 0.0650144
-1.807e-21 -0.0257782 0.00595398 0.0650355
-4.51751e-22 0.0257782 0.005954 -0.0116185
-1.35525e-20 0.0264723 0.000113081 -0.0116183
0 -0.0264724 0.000113055 0.0649158
-1.35525e-20 0.0264809 1.34692e-19 -0.0116183
0 -0.0264809 1.33175e-19 0.0649155
1.35525e-20 0.0257321 0.00626843 -0.0116185
0 -0.0257323 0.00626851 0.0650516
-4.70574e-22 0.0262544 0.00364383 -0.0116183