# U  POINT_DATA 15411
# x  y  z  U_x  U_y  U_z
-1.35525e-20 0.015557 5.70113e-08 0 0 0
1.35525e-20 -0.015557 5.70113e-08 0 0 0
0 -0.015557 0.000135955 0 0 0
6.77626e-21 0.015557 0.000135978 0 0 0
0 -0.015557 0.000527091 0 0 0
-6.77626e-21 0.015557 0.000527192 0 0 0
0 -0.015557 0.000659598 0 0 0
0 0.015557 0.00065972 0 0 0
-6.77626e-21 -0.015557 0.000798595 0 0 0
0 0.015557 0.000798713 0 0 0
-6.77626e-21 -0.0155569 0.00121618 0 0 0
-6.77626e-21 0.0155569 0.00121632 0 0 0
0 -0.0155569 0.0013548 0 0 0
-6.77626e-21 0.0155569 0.00135493 0 0 0
0 -0.0156159 6.66059e-05 0.000714067 -0.000899942 -1.24513e-06
-6.77626e-21 0.0156159 6.66205e-05 -2.91747e-06 4.03056e-06 -3.39157e-08
6.77626e-21 -0.015617 5.86706e-08 0 0 0
6.77626e-21 0.015617 5.86703e-08 0 0 0
0 -0.0156133 0.000594009 0.000683766 -0.000861752 -1.19229e-06
0 0.0156134 0.000594136 -2.79363e-06 3.85947e-06 -3.2476e-08
0 -0.0156101 0.000720993 0.00128267 -0.00156544 -5.62862e-07
6.77626e-21 0.0156101 0.000721135 -1.13504e-05 1.4089e-05 -2.42899e-08
0 -0.0155569 0.00150202 0 0 0
-6.77626e-21 0.0155569 0.00150211 0 0 0
6.77626e-21 -0.0156099 0.00127802 0.0012768 -0.00155827 -5.60283e-07
0 0.0156099 0.00127818 -1.12981e-05 1.4024e-05 -2.41779e-08
6.77626e-21 -0.0156067 0.00140494 0.00114707 -0.00140815 -4.42795e-05
0 0.0156067 0.00140508 -1.09657e-05 1.35472e-05 -1.58462e-07
6.77626e-21 -0.0156758 6.25745e-08 0 0 0
6.77626e-21 0.0156759 6.25738e-08 0 0 0
0 -0.0155569 0.00193256 0 0 0
-6.77626e-21 0.015557 0.00193259 0 0 0
1.35525e-20 -0.0156643 0.000653665 0.00195539 -0.00224508 3.07442e-05
2.71051e-20 0.0156643 0.000653856 -1.12157e-05 1.30528e-05 1.50186e-07
-6.77626e-21 0.015557 0.002087 0 0 0
6.77626e-21 -0.015557 0.002087 0 0 0
1.35525e-20 -0.0156581 0.00132517 0.00257997 -0.00299397 -1.28001e-05
0 0.0156581 0.00132537 -1.85111e-05 2.14907e-05 -1.7598e-07
6.77626e-21 0.0156109 0.00197559 -1.18936e-05 1.46937e-05 -1.71871e-07
0 -0.0156109 0.00197556 0.00124408 -0.00152724 -4.80244e-05
-6.77626e-21 -0.01562 0.00210848 0 0 0
-6.77626e-21 0.01562 0.00210848 0 0 0
6.77626e-21 0.0156426 0.00205606 -1.45291e-05 1.57167e-05 -1.35083e-06
0 -0.0156426 0.00205603 0.00140113 -0.00161429 -4.75891e-05
-6.77626e-21 0.0156707 0.00197917 -1.99547e-05 2.31633e-05 -7.79329e-07
0 -0.0156707 0.00197909 0.00252371 -0.00292131 -0.000109142
1.35525e-20 -0.0156949 0.00213398 0 0 0
0 0.0156949 0.00213398 0 0 0
-3.38813e-20 -0.015885 7.41481e-08 0 0 0
-6.77626e-21 0.015885 7.41479e-08 0 0 0
-1.12938e-21 -0.01589 0.000347638 0.00419222 -0.00501436 -1.2771e-05
0 0.01589 0.000347812 -2.07559e-05 2.53235e-05 8.30493e-07
1.35525e-21 -0.0158834 0.000956224 0.00749838 -0.00890292 7.21182e-06
-1.807e-21 0.0158834 0.000956574 -5.71183e-05 7.00653e-05 7.50102e-07
1.50584e-21 -0.0158471 0.00154369 0.00698067 -0.00826368 -0.00010471
-3.76459e-21 0.0158471 0.00154397 -5.74338e-05 6.90894e-05 -2.05957e-06
5.64689e-22 0.0158414 0.00196399 -4.30803e-05 5.39512e-05 -1.82525e-06
0 -0.0158414 0.00196388 0.00432723 -0.00517746 -9.59332e-05
2.03288e-20 -0.015839 0.00218308 0 0 0
-6.77626e-21 0.015839 0.00218308 0 0 0
-1.35525e-20 -0.0159079 0.00220656 0 0 0
1.35525e-20 0.0159079 0.00220657 0 0 0
-2.25875e-21 -0.0160357 0.0016614 0.00965781 -0.0115828 -0.000147552
3.38813e-21 0.0160357 0.00166177 -8.18028e-05 9.82263e-05 -1.73273e-06
0 -0.0161336 1.64294e-05 0.000165739 -0.000199367 -1.51104e-06
-4.23516e-22 0.0161337 1.62936e-05 -7.34392e-07 9.05433e-07 5.35075e-08
0 -0.0161343 5.30972e-08 0 0 0
4.23516e-22 0.0161345 5.3091e-08 0 0 0
1.35525e-20 -0.0159895 0.00223437 0 0 0
-2.71051e-20 0.0159895 0.00223438 0 0 0
0 -0.0161453 5.24536e-08 1.77812e-05 -2.05573e-05 -6.13944e-07
4.23516e-22 0.0161478 5.2446e-08 -6.15422e-08 6.72179e-08 -1.2818e-09
-3.38813e-21 -0.0161363 0.000658379 0.0092452 -0.0109804 3.86499e-05
-3.38813e-21 0.0161363 0.000658899 -5.87827e-05 6.99988e-05 -4.43672e-08
0 -0.0161079 0.00123674 0.0118072 -0.014026 -8.86442e-06
-2.25875e-21 0.0161079 0.00123731 -9.2972e-05 0.000108965 -8.92034e-07
7.52918e-22 -0.0162278 0.00195621 0.0087261 -0.0105596 6.32982e-06
7.52918e-22 0.0162278 0.0019565 -8.22059e-05 0.000104567 -1.13311e-06
0 -0.0161978 0.00230533 0 0 0
0 0.016198 0.00230539 0 0 0
0 -0.0162561 0.00232518 0 0 0
-6.77626e-21 0.0162561 0.00232519 0 0 0
-6.77626e-21 0.016267 0.00230123 -1.23216e-05 1.2124e-05 -4.15656e-07
0 -0.016267 0.00230114 0.000990485 -0.00118035 -2.8977e-05
-6.77626e-21 0.0162975 0.0022713 -1.67725e-05 2.07344e-05 1.85132e-07
0 -0.0162976 0.0022711 0.00169209 -0.00203788 5.74855e-06
3.38813e-20 0.0162993 0.00233988 0 0 0
0 -0.0162994 0.00233991 0 0 0
-1.807e-20 0.0164712 0.000318829 -1.61264e-05 1.91313e-05 -3.54567e-07
0 -0.0164713 0.000318482 0.006438 -0.00759139 -1.18182e-05
9.03502e-21 0.0164838 0.000934255 -0.000124124 0.000147588 -2.13191e-08
-4.51751e-21 -0.0164839 0.000933479 0.0152817 -0.018097 6.47254e-05
-1.35525e-20 0.0165151 8.91806e-08 0 0 0
0 -0.0165152 8.91797e-08 0 0 0
-9.03502e-21 0.0164768 0.00151157 -0.000146095 0.000177761 1.28506e-07
0 -0.0164769 0.00151091 0.0163643 -0.0194946 1.57034e-05
2.71051e-20 0.0166394 9.23356e-08 0 0 0
0 -0.0166395 9.23348e-08 0 0 0
1.35525e-20 0.0165053 0.00240993 0 0 0
-4.06576e-20 -0.0165054 0.00240993 0 0 0
2.71051e-20 0.0167038 0.000635453 -8.08713e-05 9.65438e-05 -8.80352e-07
-2.71051e-20 -0.0167039 0.000634624 0.0131043 -0.0151774 0.00011072
2.82344e-22 0.0165943 0.00217414 -8.81891e-05 0.000123572 4.75641e-06
-3.10579e-21 -0.0165944 0.00217395 0.00800304 -0.0100918 4.54271e-05
0 0.0167298 0.00122683 -0.00015573 0.000190133 5.97141e-07
-5.42101e-20 -0.0167299 0.00122587 0.0188065 -0.0220706 3.37213e-05
2.71051e-20 0.0166885 0.00181396 -0.000138829 0.000170565 2.50748e-06
0 -0.0166886 0.00181342 0.0151385 -0.0177624 -0.000100877
0 -0.0166609 0.002463 0 0 0
0 0.0166609 0.00246301 0 0 0
0 0.0168423 7.09371e-08 0 0 0
-1.35525e-20 -0.0168424 7.09349e-08 0 0 0
0 0.0169749 0.000303028 -1.52234e-05 1.81214e-05 -1.02957e-08
-2.25875e-21 -0.016975 0.000302617 0.00805897 -0.00946265 0.000128285
0 0.0168731 0.00220951 -0.00010708 0.000136909 4.39647e-06
0 -0.0168731 0.0022093 0.010389 -0.0125181 -0.000120457
0 0.016996 0.000918651 -0.000160674 0.000203205 -3.48423e-06
0 -0.0169961 0.00091773 0.0198721 -0.0239056 8.76614e-05
-2.03288e-20 0.0168624 0.00253141 0 0 0
6.77626e-21 -0.0168624 0.00253143 0 0 0
4.51751e-21 0.0169886 0.00152444 -0.00019782 0.000251259 5.82134e-06
-3.38813e-21 -0.0169887 0.00152368 0.0223091 -0.0269958 0.000149419
-2.71051e-20 0.0170875 2.46042e-08 0 0 0
-1.35525e-20 -0.0170876 2.4598e-08 0 0 0
-4.51751e-21 0.0169822 0.0019947 -0.000152697 0.00019364 5.70021e-06
4.51751e-21 -0.0169822 0.00199432 0.0160447 -0.0191142 -6.0613e-05
-9.03502e-21 -0.0169517 0.00241974 0.00515948 -0.0060138 -0.000240693
4.51751e-21 0.0169517 0.00241984 -5.01819e-05 6.27086e-05 1.38359e-06
-2.03288e-20 -0.0169618 0.00256517 0 0 0
-2.71051e-20 0.0169619 0.0025652 0 0 0
-2.71051e-20 0.0172725 0.000609723 -9.19503e-05 0.000116687 -4.83676e-07
2.71051e-20 -0.0172727 0.000608854 0.0161138 -0.0188837 0.000117071
2.71051e-20 0.017301 3.8681e-09 0 0 0
2.71051e-20 -0.0173012 3.85985e-09 0 0 0
2.71051e-20 0.0172756 0.00121852 -0.000187437 0.000240159 2.53591e-06
2.71051e-20 -0.0172759 0.00121756 0.0238776 -0.0282872 6.5386e-05
5.42101e-20 0.0172503 0.00183266 -0.000181915 0.000232758 5.97342e-06
0 -0.0172504 0.00183216 0.0211256 -0.0248795 -5.85371e-05
-2.71051e-20 -0.0171626 0.00263335 0 0 0
0 0.0171626 0.00263335 0 0 0
0 0.0172628 0.00228364 -0.000129627 0.000164015 5.8572e-06
-1.69407e-21 -0.0172628 0.00228347 0.0133696 -0.0157832 -9.30494e-05
-2.71051e-20 0.0175152 3.90385e-09 0 0 0
-1.35525e-20 -0.0175152 3.89758e-09 0 0 0
-2.25875e-21 0.0176167 0.000304206 -1.74567e-05 2.21581e-05 5.23352e-08
-4.51751e-21 -0.0176168 0.0003039 0.00978929 -0.0115005 5.6646e-05
-1.12938e-21 0.0176138 0.000914405 -0.000200606 0.000257672 2.91026e-07
7.90564e-21 -0.0176139 0.000913728 0.0248331 -0.02939 6.39361e-05
-5.64689e-21 -0.0175987 0.00154607 0.0282555 -0.0336047 0.000124397
-1.12938e-21 0.0175986 0.00154661 -0.000255581 0.000328774 7.07308e-06
-8.47033e-22 0.0174822 0.00274305 0 0 0
-1.52466e-20 -0.0174824 0.00274311 0 0 0
2.37169e-20 -0.0174953 0.00274748 0 0 0
-1.10114e-20 0.0174954 0.00274754 0 0 0
-1.35525e-20 0.0177276 5.30319e-09 0 0 0
0 -0.0177276 5.30115e-09 0 0 0
2.25875e-21 -0.0176266 0.0021181 0.0213414 -0.0252787 5.70033e-06
2.25875e-21 0.0176266 0.00211837 -0.000193967 0.00025483 9.68856e-06
2.25875e-21 -0.0175734 0.00255388 0.00945959 -0.011032 7.43788e-05
4.51751e-21 0.0175734 0.00255396 -8.6107e-05 0.000113045 6.23852e-06
0 -0.0179395 5.3668e-09 0 0 0
0 0.0179395 5.36695e-09 0 0 0
0 0.0179446 0.000602116 -0.000107419 0.000139674 6.53211e-07
-2.71051e-20 -0.0179448 0.000601729 0.0189352 -0.0224245 2.36813e-05
0 0.0179404 0.00122928 -0.000234004 0.000306569 4.66138e-06
2.71051e-20 -0.0179405 0.00122883 0.0294691 -0.0349663 1.52525e-05
0 -0.0179 0.00190857 0.0264936 -0.0314754 -3.19236e-05
0 0.0179 0.00190883 -0.000221203 0.000294951 8.59013e-06
-2.71051e-20 -0.0177925 0.00284977 0 0 0
-2.71051e-20 0.0177926 0.00284978 0 0 0
0 -0.0179476 0.00242616 0.0172728 -0.0204744 -3.86455e-05
-2.71051e-20 0.0179477 0.00242626 -0.000147396 0.000198794 8.30088e-06
-2.71051e-20 -0.0181451 4.40312e-09 0 0 0
1.35525e-20 0.0181451 4.40323e-09 0 0 0
0 -0.0180151 0.00292661 0 0 0
0 0.0180152 0.00292666 0 0 0
4.51751e-21 0.0182715 0.000300951 -2.41186e-05 3.15462e-05 2.3353e-07
4.51751e-21 -0.0182716 0.000300824 0.0108353 -0.0128071 -1.80272e-05
4.51751e-21 0.0182775 0.000913256 -0.00020566 0.000271036 2.06372e-06
-2.25875e-21 -0.0182775 0.000912982 0.0287761 -0.0339444 -3.72722e-05
1.12938e-20 -0.0182701 0.00156202 0.0336794 -0.0397907 -6.41922e-05
-2.25875e-21 0.0182702 0.00156226 -0.000267552 0.000358167 9.21519e-06
2.25875e-21 -0.0182365 0.00214905 0.0279845 -0.0331092 -7.66087e-05
2.25875e-21 0.0182365 0.00214918 -0.000223026 0.000304494 1.05191e-05
0 0.0181446 0.0029715 0 0 0
-6.77626e-21 -0.0181446 0.00297151 0 0 0
4.51751e-22 -0.018187 0.00270962 0.0119878 -0.0140988 4.09628e-05
-9.03502e-22 0.018187 0.00270971 -9.60262e-05 0.000130154 7.99228e-06
-1.35525e-20 0.0183922 2.43152e-09 0 0 0
1.35525e-20 -0.0183922 2.43142e-09 0 0 0
0 -0.0185886 1.4653e-09 0 0 0
0 0.0185886 1.46536e-09 0 0 0
2.71051e-20 -0.0183436 0.00304025 0 0 0
-2.71051e-20 0.0183438 0.00304031 0 0 0
2.71051e-20 0.0185996 0.000594964 -0.000111164 0.000147951 1.19598e-06
0 -0.0185997 0.000594844 0.0215258 -0.0254342 -6.00007e-05
-1.16165e-20 -0.0186737 0.00129279 0.0363131 -0.0428918 -0.000172681
0 0.0186737 0.00129292 -0.000252495 0.000345804 8.68271e-06
-1.35525e-20 -0.0187703 1.23407e-09 0 0 0
-2.71051e-20 0.0187703 1.23411e-09 0 0 0
-2.71051e-20 -0.0185172 0.00309968 0 0 0
3.38813e-20 0.0185172 0.00309971 0 0 0
1.807e-20 0.0187147 0.00187627 -0.00025095 0.000351282 1.32408e-05
9.03502e-21 -0.0187147 0.00187618 0.0354478 -0.0419338 -0.000170109
-1.50584e-21 0.0186673 0.00253576 -0.000158952 0.000227856 1.12169e-05
1.50584e-21 -0.0186673 0.00253569 0.021679 -0.0258489 -9.20662e-05
-4.51751e-21 0.018823 0.000903617 -0.000200349 0.000270977 3.13915e-06
0 -0.018823 0.000903518 0.0317842 -0.0374957 -0.000121824
6.77626e-21 0.0188705 0.000248278 -2.01187e-05 2.66833e-05 2.94633e-07
-4.51751e-21 -0.0188706 0.000248244 0.00997415 -0.011855 -2.87022e-05
1.35525e-20 -0.0186433 0.00294006 0.00858966 -0.0106555 1.32392e-05
5.42101e-21 0.0186434 0.00294015 -7.02269e-05 0.000106925 7.37289e-06
0 -0.0189391 0.0015442 0.0400904 -0.0473677 -0.00024577
0 0.018939 0.00154428 -0.000272211 0.000380995 1.26813e-05
1.27055e-21 0.01877 0.00318707 -2.40966e-07 2.9306e-07 9.36189e-09
2.22346e-21 -0.0187697 0.00318691 2.52066e-05 -3.05229e-05 -3.98254e-07
0 -0.0188366 0.00285351 0.0140578 -0.0169526 -0.000125714
6.77626e-21 0.0188366 0.0028535 -0.000105356 0.000148329 7.76764e-06
1.35525e-20 0.0190684 6.42266e-10 0 0 0
0 -0.0190684 6.42229e-10 0 0 0
2.71051e-20 -0.0189469 0.0022033 0.0350996 -0.0415326 -0.000161772
0 0.0189469 0.00220336 -0.000236672 0.000340948 1.68232e-05
0 -0.0189609 0.002942 0.0129163 -0.0155734 -0.000184199
6.77626e-21 0.018961 0.00294206 -9.65212e-05 0.000130249 6.21124e-06
0 -0.0192376 4.1695e-10 0 0 0
0 0.0192376 4.16977e-10 0 0 0
9.03502e-21 0.0192505 0.000578849 -0.000105929 0.000145237 1.52629e-06
-2.25875e-21 -0.0192506 0.000578823 0.0234128 -0.0276847 -0.000107555
6.77626e-21 0.0192653 0.00120345 -0.000232959 0.000328283 8.55999e-06
-2.25875e-21 -0.0192654 0.00120342 0.0386189 -0.0456522 -0.000263576
6.77626e-21 -0.0192727 0.00186892 0.0398373 -0.047143 -0.000380572
-6.77626e-21 0.0192727 0.00186895 -0.000244771 0.000358442 1.68635e-05
-1.35525e-20 -0.0190867 0.00329553 0 0 0
1.35525e-20 0.0190869 0.00329559 0 0 0
1.35525e-20 0.0193938 3.58667e-10 0 0 0
0 -0.0193938 3.58645e-10 0 0 0
1.35525e-20 0.0193936 0.000130558 -4.63789e-06 6.24903e-06 1.41662e-08
1.35525e-20 -0.0193936 0.000130549 0.00560017 -0.00668394 -3.36965e-05
0 -0.019134 0.00323281 0.00353036 -0.00421651 -8.0799e-05
0 0.0191342 0.00323291 -2.27524e-05 3.57806e-05 3.10336e-06
-2.25875e-21 -0.019259 0.0025456 0.027643 -0.0327834 -0.000320088
-4.51751e-21 0.019259 0.00254567 -0.000168208 0.000256148 1.60423e-05
2.71051e-20 -0.0192049 0.00333603 0 0 0
1.35525e-20 0.019205 0.00333606 0 0 0
-2.25875e-22 -0.0193216 0.00298789 0.0155914 -0.0184771 -0.000242357
-2.48463e-21 0.0193217 0.00298796 -9.58583e-05 0.000150042 1.12858e-05
-2.71051e-20 0.0195688 0.0002809 -9.81566e-06 1.32048e-05 6.39286e-08
2.71051e-20 -0.0195688 0.000280889 0.0118767 -0.01413 -4.44607e-05
0 0.019589 0.000871785 -0.000197525 0.000275058 3.16578e-06
2.71051e-20 -0.0195891 0.000871776 0.0368816 -0.0435458 -0.000195499
-2.71051e-20 0.019374 0.00328238 -2.99871e-05 4.83275e-05 5.24074e-06
-2.71051e-20 -0.019374 0.00328231 0.00541051 -0.00619979 -0.00015207
2.71051e-20 0.0196057 0.00151362 -0.000248958 0.000369378 1.60791e-05
0 -0.0196057 0.0015136 0.0439236 -0.0520877 -0.000470512
-1.35525e-20 0.0193742 0.00339401 0 0 0
2.71051e-20 -0.0193743 0.00339402 0 0 0
2.71051e-20 -0.0196062 0.00219166 0.0407008 -0.0481287 -0.000646205
2.71051e-20 0.0196062 0.0021917 -0.000222465 0.00034506 2.21076e-05
-1.35525e-20 0.0197445 1.18814e-10 0 0 0
0 -0.0197445 1.18805e-10 0 0 0
-1.35525e-20 0.0197496 0.000118775 -4.21932e-06 5.68504e-06 1.28877e-08
2.71051e-20 -0.0197497 0.000118768 0.00509483 -0.0060808 -3.06558e-05
0 -0.0196349 0.00277745 0.0262725 -0.0307813 -0.00040405
2.71051e-20 0.0196349 0.00277749 -0.000143119 0.000232183 1.93957e-05
2.71051e-20 -0.0195953 0.00324393 0.0108795 -0.0124358 -0.000340486
1.35525e-20 0.0195954 0.00324399 -6.0776e-05 9.78581e-05 9.51943e-06
-1.35525e-20 0.0198868 6.23618e-11 0 0 0
1.35525e-20 -0.0198869 6.23578e-11 0 0 0
-2.25875e-21 0.0199025 0.000551659 -9.34019e-05 0.000132154 2.25596e-06
-2.25875e-21 -0.0199025 0.000551656 0.0244302 -0.0289572 -9.90551e-05
-1.35525e-20 -0.0196374 0.00348418 0 0 0
-2.71051e-20 0.0196377 0.00348428 0 0 0
0 0.0199263 0.001165 -0.000205404 0.000305448 1.09881e-05
-1.12938e-21 -0.0199263 0.001165 0.0416251 -0.0492792 -0.0004335
1.35525e-20 -0.0197066 0.00339972 0.00524289 -0.00600772 -0.000147359
0 0.0197068 0.00339991 -2.90467e-05 4.68119e-05 5.07638e-06
-1.35525e-20 0.0200175 0.000104914 -2.90219e-06 3.77944e-06 5.54559e-08
0 -0.0200175 0.000104929 0.00468537 -0.00571934 6.8796e-05
0 0.020018 5.47771e-11 0 0 0
0 -0.0200181 5.47715e-11 0 0 0
0 -0.0199354 0.00184126 0.044392 -0.0525269 -0.000767957
-1.12938e-21 0.0199354 0.00184128 -0.000216657 0.00034392 2.11237e-05
4.51751e-21 -0.0199396 0.00250633 0.0357524 -0.0419146 -0.000799384
2.25875e-21 0.0199397 0.00250637 -0.000167179 0.000280289 2.40081e-05
-1.35525e-20 -0.0198049 0.00354152 0 0 0
-1.35525e-20 0.019805 0.00354156 0 0 0
1.12938e-21 -0.0199176 0.00307602 0.0200964 -0.0231679 -0.000509652
-4.51751e-21 0.0199177 0.00307606 -9.12553e-05 0.000159343 1.77847e-05
0 -0.0202108 0.000262556 0.01162 -0.014038 0.000130976
2.71051e-20 0.0202108 0.00026255 -7.9697e-06 1.05209e-05 1.64166e-07
0 0.0202372 0.000828992 -0.000166986 0.00024186 5.74216e-06
2.71051e-20 -0.0202372 0.000828987 0.038531 -0.0455042 -0.000288882
0 0.0199792 0.00344752 -2.38172e-05 4.93707e-05 8.82202e-06
-2.71051e-20 -0.0199793 0.00344738 0.00735267 -0.00823144 -0.00023919
-6.77626e-21 0.0199875 0.00360402 0 0 0
-1.35525e-20 -0.0199877 0.00360407 0 0 0
0 0.0202611 0.00146964 -0.000209706 0.000338416 1.94767e-05
-2.71051e-20 -0.0202612 0.00146963 0.0475293 -0.0564028 -0.000784321
-2.71051e-20 -0.0202613 0.00216726 0.0456541 -0.053764 -0.00117924
-5.42101e-20 0.0202614 0.00216729 -0.000184967 0.000323061 2.70678e-05
-1.35525e-20 -0.020424 1.48352e-11 0 0 0
1.35525e-20 0.0204241 1.48335e-11 0 0 0
0 -0.0204263 8.83644e-05 0.00394573 -0.00481647 5.79357e-05
1.35525e-20 0.0204264 8.83482e-05 -2.44394e-06 3.18267e-06 4.66994e-08
6.77626e-21 -0.0201259 0.00365139 0 0 0
2.71051e-20 -0.0202574 0.00283427 0.0319398 -0.0368179 -0.00104035
-2.71051e-20 0.0202575 0.00283433 -0.000121609 0.00022864 2.82696e-05
6.77626e-21 0.0201264 0.00365156 0 0 0
0 -0.0202301 0.00346725 0.0103021 -0.0115744 -0.000286219
0 0.0202303 0.00346745 -3.54158e-05 7.10814e-05 1.2193e-05
0 -0.0205367 8.07365e-12 0 0 0
0 0.0205367 8.07331e-12 0 0 0
4.51751e-21 -0.0205431 0.000507253 0.0240447 -0.0283419 -0.000470686
-2.25875e-21 0.0205431 0.000507255 -7.53725e-05 0.000107456 3.17774e-06
-2.25875e-21 0.0205806 0.00109812 -0.000169007 0.00026747 1.28488e-05
0 -0.0205806 0.00109812 0.0429325 -0.0509928 -0.000685851
-1.35525e-20 0.0206332 7.23344e-05 -4.83664e-07 1.70147e-06 4.50746e-08
-1.35525e-20 -0.0206332 7.23369e-05 0.00340912 -0.00369388 -0.000406974
0 0.0206362 7.47662e-12 0 0 0
-1.35525e-20 -0.0206362 7.47681e-12 0 0 0
1.35525e-20 -0.0203259 0.00371982 0 0 0
0 0.0203262 0.0037199 0 0 0
1.12938e-21 -0.0205919 0.0017924 0.0482622 -0.0571381 -0.00127035
-2.25875e-21 0.0205919 0.00179242 -0.000173587 0.000313818 2.50632e-05
-4.51751e-21 -0.0205776 0.00251315 0.041262 -0.0480956 -0.00150121
-3.38813e-21 0.0205776 0.00251319 -0.000128886 0.000259114 3.0892e-05
-1.35525e-20 -0.0204397 0.00376151 0 0 0
1.35525e-20 0.0204398 0.00376155 0 0 0
-1.35525e-20 -0.0204727 0.00364916 0.00525187 -0.0061796 -0.000169402
-1.35525e-20 0.0204728 0.00364933 -1.09401e-05 3.99045e-05 1.01861e-05
3.76459e-21 -0.0205733 0.00324403 0.0218595 -0.0250031 -0.000870645
0 0.0205734 0.00324407 -5.72595e-05 0.000132535 2.31669e-05
0 0.0208433 0.000231582 -3.54617e-06 6.9349e-06 5.98518e-08
2.71051e-20 -0.0208434 0.000231576 0.0107714 -0.0118822 -0.00102453
2.71051e-20 0.0208763 0.000747827 -0.000132717 0.000184564 6.8226e-06
0 -0.0208763 0.000747825 0.036806 -0.0437529 -0.000700052
-2.71051e-20 0.0209306 0.00137574 -0.000167976 0.000307762 2.02811e-05
-2.71051e-20 -0.0209307 0.00137573 0.0492771 -0.0588137 -0.000992029
1.35525e-20 0.0206256 0.00382198 0 0 0
1.35525e-20 -0.0206258 0.00382201 0 0 0
2.71051e-20 -0.0209017 0.00213763 0.0506519 -0.0596726 -0.0021163
-2.71051e-20 0.0209017 0.00213766 -0.000130742 0.000285568 3.33583e-05
6.77626e-21 -0.0207137 0.00385275 0 0 0
6.77626e-21 0.0207139 0.00385285 0 0 0
0 -0.0208885 0.0028589 0.0379958 -0.0435782 -0.00174201
0 0.0208886 0.00285896 -7.90321e-05 0.000203357 3.53388e-05
-1.35525e-20 -0.02076 0.00376312 0.00513167 -0.00582882 -0.000332279
6.77626e-21 0.0207604 0.00376287 -1.37352e-05 2.54435e-05 5.03225e-06
1.50584e-21 -0.0211429 0.000434515 0.0213231 -0.0250626 -0.000680383
-4.51751e-21 0.0211429 0.000434517 -4.33156e-05 6.49701e-05 2.25218e-07
2.25875e-21 -0.020841 0.00362678 0.0128919 -0.0146329 -0.000821411
-2.25875e-21 0.0208412 0.00362688 -2.78504e-05 6.34225e-05 1.44579e-05
6.77626e-21 -0.0208385 0.00389815 0 0 0
6.77626e-21 0.0208392 0.00389846 0 0 0
-2.96462e-21 0.0212597 5.23664e-13 0 0 0
-4.23516e-22 -0.0212598 5.24304e-13 0 0 0
-8.47033e-22 0.0212767 1.41034e-05 -1.44748e-06 2.20706e-06 1.9289e-08
4.23516e-22 0.0212812 1.48332e-06 -2.72951e-08 3.08556e-08 -1.06723e-09
8.89385e-21 -0.0212768 1.40587e-05 0.0006915 -0.000811051 -1.85159e-05
0 -0.0212769 1.7356e-06 4.88822e-05 -5.47117e-05 -1.65373e-07
0 0.0212896 2.69174e-13 0 0 0
0 -0.0212896 2.70632e-13 0 0 0
-1.69407e-21 0.0212724 0.000879015 -0.000100121 0.000176479 6.47982e-06
-1.8823e-22 -0.0212724 0.000879006 0.0369077 -0.0440121 -0.000914778
6.77626e-22 0.0212426 0.00171822 -0.000120242 0.000268683 2.24515e-05
1.35525e-21 -0.0212427 0.00171817 0.0512041 -0.0608144 -0.00178755
-3.38813e-21 -0.0212146 0.00249699 0.0464765 -0.0542304 -0.00231101
3.38813e-21 0.0212146 0.00249702 -7.0202e-05 0.000215827 3.48221e-05
1.35525e-20 -0.0210353 0.00398137 0 0 0
1.35525e-20 0.0210356 0.00398151 0 0 0
-2.25875e-21 -0.021178 0.00323684 0.0288057 -0.0326388 -0.00176835
-2.25875e-21 0.0211781 0.00323695 -1.73167e-05 0.000112079 3.12914e-05
1.35525e-20 -0.0210737 0.00393718 0.00289585 -0.00322118 -0.000230036
-2.71051e-20 0.0210739 0.00393742 -1.04746e-06 1.07711e-05 4.69817e-06
1.35525e-20 -0.0211187 0.00402023 0 0 0
0 0.0211188 0.00402028 0 0 0
9.68038e-22 -0.0212477 0.00368159 0.0168118 -0.0187406 -0.00120861
0 0.0212477 0.00368165 1.33469e-06 5.49202e-05 2.28373e-05
2.71051e-20 0.0215747 0.00130741 -0.000118138 0.00026057 8.52556e-06
2.71051e-20 -0.0215747 0.0013074 0.0521861 -0.0622366 -0.00154456
0 0.0212487 0.00397497 8.82458e-06 6.2691e-06 8.79133e-06
0 -0.0212488 0.00397483 0.00487172 -0.00528784 -0.000442613
6.77626e-21 0.0212528 0.00408536 0 0 0
-6.77626e-21 -0.021253 0.00408547 0 0 0
-2.25875e-21 0.0216407 0.000331745 -2.73501e-06 7.16164e-06 6.77397e-06
0 -0.0216408 0.000331738 0.0159578 -0.0185813 -0.000566944
-2.71051e-20 0.0215441 0.00209933 -6.60894e-05 0.00023371 2.95056e-05
0 -0.0215441 0.00209931 0.0548795 -0.0650971 -0.00264604
2.71051e-20 -0.0215224 0.00284519 0.0430652 -0.0494478 -0.0027636
-2.71051e-20 0.0215225 0.00284524 -6.38525e-06 0.000144031 4.09533e-05
0 0.0217961 7.90662e-14 0 0 0
1.35525e-20 -0.0217961 7.93941e-14 0 0 0
0 -0.0215506 0.0034709 0.0283471 -0.0309753 -0.00229747
-2.71051e-20 0.0215507 0.00347098 2.47676e-05 6.47468e-05 3.66779e-05
4.06576e-20 -0.021496 0.00395182 0.0117628 -0.0129197 -0.000999286
2.71051e-20 0.0214961 0.00395191 1.50586e-05 2.26369e-05 1.91537e-05
0 -0.0214981 0.0042046 0 0 0
-6.77626e-21 0.0214986 0.00420483 0 0 0
0 0.0218605 0.00170496 -6.79875e-05 0.000219625 2.12785e-05
3.29402e-22 -0.0218606 0.0017049 0.0545928 -0.0651981 -0.00226336
-2.25875e-22 0.0219212 0.000827144 -5.89465e-05 0.000129958 5.64619e-06
-2.48463e-21 -0.0219212 0.00082713 0.0363306 -0.0433527 -0.00107729
-2.71051e-20 0.0219609 4.00731e-14 0 0 0
1.35525e-20 -0.021961 4.01624e-14 0 0 0
5.64689e-22 -0.0218494 0.00247004 0.0512824 -0.0601074 -0.00303386
-5.64689e-22 0.0218494 0.00247006 6.06742e-06 0.000148308 3.71598e-05
0 -0.0216144 0.0041396 0.00544838 -0.00591377 -0.000495005
1.35525e-20 0.0216146 0.0041399 9.87693e-06 7.0167e-06 9.8397e-06
0 -0.0216502 0.00427848 0 0 0
0 0.0216504 0.00427858 0 0 0
-5.64689e-22 -0.0218421 0.00317491 0.0386804 -0.0434307 -0.00301896
1.12938e-21 0.0218422 0.00317497 5.37816e-05 6.27578e-05 4.16817e-05
0 -0.0217324 0.0043183 0 0 0
0 0.0217325 0.00431833 0 0 0
0 -0.0217584 0.00423542 0.00396154 -0.00443935 -0.000360642
-1.35525e-20 0.0217584 0.00423558 1.44996e-05 1.62986e-06 8.555e-06
0 0.0221732 2.80694e-14 0 0 0
0 -0.0221734 2.81206e-14 0 0 0
0 -0.0218663 0.00385214 0.0205444 -0.0221238 -0.00189588
-7.05861e-23 0.0218671 0.00385266 4.85866e-05 1.18708e-05 2.90863e-05
-2.71051e-20 0.0222021 0.00129535 -8.63212e-05 0.000217426 1.02172e-05
-2.71051e-20 -0.0222022 0.00129534 0.0535515 -0.0648594 -0.00173858
-3.5293e-23 -0.0222511 0.000329013 0.0179096 -0.0199973 -0.00046801
0 0.0222517 0.000329756 2.05831e-06 1.3251e-06 7.47895e-06
-2.71051e-20 0.0221693 0.00208073 1.79748e-06 0.000163783 3.38409e-05
0 -0.0221694 0.00208072 0.0590152 -0.0704063 -0.00313977
1.35525e-20 0.0218632 0.00438168 0 0 0
-1.35525e-20 -0.0218633 0.00438173 0 0 0
-6.77626e-21 -0.0223211 1.21337e-14 0 0 0
-2.03288e-20 0.0223211 1.20993e-14 0 0 0
2.71051e-20 -0.0221597 0.00282092 0.0484569 -0.055846 -0.00359974
0 0.0221597 0.00282095 9.49534e-05 5.21923e-05 4.43353e-05
-2.71051e-20 -0.0221457 0.00350906 0.0363548 -0.039317 -0.00352705
2.71051e-20 0.0221457 0.00350913 0.000106978 -1.04566e-05 4.53713e-05
2.03288e-20 -0.0220147 0.00445519 0 0 0
-6.77626e-21 0.0220149 0.00445527 0 0 0
5.42101e-20 0.0225414 1.2233e-15 0 0 0
0 -0.0225415 1.22688e-15 0 0 0
-5.64689e-22 -0.0221394 0.00425953 0.0120657 -0.0121688 -0.00152815
2.25875e-21 0.0221395 0.00425957 3.01912e-05 -3.22197e-06 1.78239e-05
-8.47033e-22 0.0224964 0.00168457 -2.94801e-05 0.000186832 2.47799e-05
4.23516e-21 -0.0224964 0.00168462 0.0567999 -0.0686992 -0.00241288
1.10114e-20 0.0225019 0.00169156 -2.86222e-05 0.000186243 2.48984e-05
4.23516e-22 -0.0225021 0.00168484 0.0568304 -0.0687386 -0.002419
-4.23516e-22 -0.0225129 0.001688 0.0568493 -0.068786 -0.00241927
0 0.0225131 0.001688 -2.81429e-05 0.000185817 2.49863e-05
0 0.022576 0.000874286 -4.47056e-05 0.000120574 1.10506e-05
1.807e-21 -0.0225761 0.000874279 0.0382414 -0.0459953 -0.00112509
5.64689e-22 0.0225135 0.00242347 8.34442e-05 7.46396e-05 4.00776e-05
3.22679e-22 -0.0225135 0.0024234 0.0543395 -0.0640284 -0.00358428
1.12938e-21 -0.0224593 0.00318118 0.0452536 -0.0507452 -0.00424585
-3.38813e-21 0.0224593 0.00318122 0.000157384 -3.51551e-05 4.77439e-05
0 -0.0223014 0.00459401 0 0 0
0 0.0223021 0.00459434 0 0 0
-2.71051e-21 -0.0224349 0.00390494 0.0281964 -0.029685 -0.00322291
-5.87276e-21 0.0224349 0.00390503 0.000124709 -5.89007e-05 3.5397e-05
-9.74088e-21 0.0228058 8.71796e-16 0 0 0
4.23516e-22 -0.022806 8.73835e-16 0 0 0
2.5411e-21 0.022811 2.493e-05 3.06568e-07 1.33748e-07 4.89876e-07
-4.23516e-22 -0.0228111 2.41514e-05 0.00123332 -0.00142703 -2.49676e-05
0 -0.0223411 0.0046132 0 0 0
3.38813e-21 0.0223413 0.00461331 0 0 0
0 -0.0228141 8.54706e-16 0 0 0
5.64689e-22 0.0228117 0.000334111 -2.33649e-07 1.11538e-05 6.05049e-06
2.96462e-21 0.0228142 8.52135e-16 0 0 0
-2.25875e-21 -0.0228118 0.000334123 0.0170098 -0.0198994 -0.000373579
0 -0.0223469 0.00460662 0.00051836 -0.000518448 -7.92547e-05
-3.38813e-21 0.022347 0.00460681 2.02125e-06 -8.87545e-07 6.56252e-07
0 -0.0223544 0.00461967 0 0 0
0 0.0223545 0.00461971 0 0 0
0 -0.0223624 0.00458463 0.00179997 -0.00181024 -0.000237418
0 0.0223623 0.00458505 8.7176e-06 -5.02112e-06 2.3026e-06
-1.69407e-21 0.0223809 0.00461205 6.2262e-06 -3.25816e-06 1.50106e-06
0 -0.0223811 0.00461193 0.000981712 -0.000924381 -0.000113932
0 0.0223956 0.00463962 0 0 0
1.69407e-21 -0.022396 0.00463981 0 0 0
1.35525e-20 -0.0225313 0.00433152 0.018243 -0.0183875 -0.00241794
0 0.0225314 0.00433163 8.31927e-05 -4.89836e-05 2.03764e-05
0 -0.0227767 0.00282449 0.0531124 -0.0613761 -0.00474493
5.42101e-20 0.0227767 0.00282452 0.000205695 -5.90055e-05 4.97801e-05
2.71051e-20 0.0229169 0.00145352 -3.94696e-05 0.00020372 3.11372e-05
2.71051e-20 -0.022917 0.00145354 0.0563154 -0.0693919 -0.00214173
0 0.0229127 0.00195201 1.86055e-05 0.000166254 3.09193e-05
2.71051e-20 -0.0229127 0.00195199 0.059124 -0.0720935 -0.00273243
5.42101e-20 -0.0227583 0.00352767 0.0438178 -0.0474365 -0.00513234
-2.71051e-20 0.0227583 0.00352773 0.000224951 -0.00012369 5.18887e-05
6.77626e-21 -0.0226788 0.00436536 0.0197094 -0.0197273 -0.00259951
-1.35525e-20 0.0226788 0.00436543 0.000101958 -6.47732e-05 2.19553e-05
-1.35525e-20 -0.0231146 6.2653e-16 0 0 0
1.35525e-20 0.0231146 6.24699e-16 0 0 0
-2.82344e-22 0.0231263 0.00085734 -2.96221e-05 9.84753e-05 1.3452e-05
-8.47033e-22 -0.0231263 0.00085738 0.0356234 -0.0435008 -0.00113085
-1.35525e-20 0.0231204 0.00168687 -4.30855e-06 0.000171976 3.13323e-05
-1.35525e-20 -0.0231204 0.00168687 0.0578533 -0.071198 -0.00246832
0 -0.022691 0.00478261 0 0 0
1.35525e-20 0.0226912 0.00478269 0 0 0
4.23516e-22 0.0231332 0.00244156 0.000182924 -2.62617e-05 4.6101e-05
-2.82344e-22 -0.0231332 0.00244155 0.0576373 -0.0686613 -0.00417678
1.35525e-20 -0.0227887 0.00466778 0.00770109 -0.00725136 -0.000893748
-1.35525e-20 0.0227888 0.00466792 4.93667e-05 -2.58335e-05 1.19017e-05
1.12938e-21 -0.0230834 0.00317451 0.0514868 -0.05819 -0.00533499
4.51751e-21 0.0230834 0.00317454 0.000283057 -0.000160174 5.52545e-05
0 -0.023319 3.12047e-16 0 0 0
0 0.0233192 3.1085e-16 0 0 0
2.25875e-21 -0.0230283 0.00391279 0.0378733 -0.0399855 -0.00483248
-2.25875e-21 0.0230283 0.00391288 0.000246098 -0.00017203 4.5165e-05
-2.71051e-20 -0.0233299 0.00142278 0.0555475 -0.0693657 -0.0020868
0 0.02333 0.00142275 -3.87998e-05 0.000195227 2.85163e-05
5.42101e-20 -0.0233168 0.00194192 0.0604172 -0.0743345 -0.00296451
0 0.0233168 0.00194193 3.63137e-05 0.000135854 3.74261e-05
5.42101e-20 -0.0228965 0.00488208 0 0 0
5.42101e-20 0.0228965 0.0048821 0 0 0
4.51751e-21 0.0234102 0.000267349 -2.28514e-06 3.87839e-06 4.50195e-06
0 -0.0234102 0.000267197 0.0140397 -0.0167912 -0.000174656
-1.50584e-21 -0.0229985 0.00439045 0.0246542 -0.0246811 -0.00343905
-2.25875e-21 0.0229986 0.00439055 0.000158621 -0.000112685 3.09908e-05
-1.35525e-20 0.023516 1.75113e-16 0 0 0
-6.77626e-21 -0.0235163 1.75792e-16 0 0 0
2.71051e-20 -0.0234234 0.00278582 0.0583943 -0.0688868 -0.00518627
-2.71051e-20 0.0234234 0.00278584 0.000322847 -0.000180584 6.06474e-05
0 -0.023065 0.00496366 0 0 0
0 0.0230651 0.00496372 0 0 0
2.71051e-20 -0.0233787 0.00352555 0.0509785 -0.055601 -0.00626445
0 0.0233787 0.00352559 0.000375889 -0.000272975 5.89062e-05
0 0.023716 -1.12992e-16 0 0 0
-1.35525e-20 -0.0237161 -1.12641e-16 0 0 0
-1.35525e-21 -0.0232667 0.00471649 0.0187023 -0.0175559 -0.00305156
0 0.0232668 0.00471653 0.000127706 -9.45376e-05 2.27957e-05
0 -0.0233857 0.00417623 0.0398208 -0.0407291 -0.00568067
0 0.0233857 0.00417629 0.000292624 -0.000233899 4.60746e-05
0 0.0232203 0.00503884 0 0 0
-1.35525e-20 -0.0232204 0.00503886 0 0 0
1.12938e-21 0.0237642 0.00087167 -3.57309e-06 6.9254e-05 8.45872e-06
3.10579e-21 -0.0237642 0.000871743 0.0351724 -0.0443747 -0.00118892
-2.71051e-20 -0.0237896 9.69124e-05 0.00508929 -0.00642949 -0.000180847
0 0.0237897 9.71024e-05 -1.51768e-06 2.80374e-06 -2.9518e-06
0 -0.0237941 4.97837e-16 0 0 0