# U  POINT_DATA 27219
# x  y  z  U_x  U_y  U_z
-0.0130568 0 4.20224e-06 1.83562e-05 -2.20659e-05 -1.69105e-07
0.0130568 0 4.20467e-06 -7.46187e-08 9.04291e-08 3.27968e-09
0.0130538 0 6.66496e-06 0 0 0
-0.0130538 0 6.66145e-06 0 0 0
-0.0130538 0 0.000644966 0 0 0
0.0130538 0 0.000645285 0 0 0
-0.0130538 0 0.00065941 0 0 0
0.0130538 0 0.00065974 0 0 0
-0.0130538 0 0.000674665 0 0 0
0.0130538 0 0.000675 0 0 0
-0.0130603 8.47033e-22 0.000649852 8.77605e-05 -0.000105496 -8.08485e-07
0.0130603 0 0.000650175 -3.56845e-07 4.32455e-07 1.56843e-08
-0.0130603 0 0.000668993 0.000184134 -0.000218754 -1.12854e-07
0.0130603 0 0.000669326 -3.18186e-06 3.97191e-06 4.18923e-08
-0.0130709 5.0822e-21 0.000658297 0.000344485 -0.000395573 5.37528e-06
0.0130709 -1.43996e-20 0.000658629 -4.299e-06 5.07144e-06 6.57697e-08
-0.0130538 0 0.00133823 0 0 0
0.0130538 0 0.00133856 0 0 0
-0.0130538 -1.69407e-21 0.00135482 0 0 0
0.0130538 0 0.00135516 0 0 0
-0.0130538 -1.69407e-21 0.00137229 0 0 0
0.0130538 1.69407e-21 0.00137264 0 0 0
-0.0130609 0 0.00134178 0.000200594 -0.000238309 -1.22942e-07
0.0130609 0 0.00134211 -3.4688e-06 4.33009e-06 4.56701e-08
-0.0130605 0 0.00136344 0.000181836 -0.000215001 -2.71567e-06
0.0130605 0 0.00136379 -3.48047e-06 4.24731e-06 -3.05799e-08
-0.0130744 8.47033e-21 0.00134763 0.000582841 -0.000676208 -2.57687e-06
0.0130744 5.0822e-21 0.00134797 -1.02812e-05 1.20804e-05 1.01005e-08
-0.0130556 0 0.00208219 4.55275e-05 -5.33032e-05 -1.46541e-06
0.0130566 4.23516e-22 0.0020858 -8.75351e-07 1.05027e-06 -1.61268e-08
-0.0130676 -4.23516e-22 0.00208096 0.000252237 -0.00029004 -8.01919e-06
0.0130676 -4.23516e-22 0.00208096 -5.2582e-06 5.76197e-06 -3.29793e-07
-0.0133442 0 8.05854e-08 0 0 0
0.0133442 -2.03288e-20 8.05851e-08 0 0 0
-0.0133452 0 0.000326595 0.00357984 -0.00439838 -9.19094e-06
0.0133452 4.51751e-21 0.00032676 -1.70653e-05 2.25599e-05 5.75321e-07
-0.0133372 3.38813e-21 0.000960076 0.00730697 -0.00863495 3.56835e-05
0.0133372 -3.38813e-21 0.000960432 -0.000130154 0.000154351 1.9633e-06
-0.0132973 -4.51751e-21 0.00155434 0.00637651 -0.00762248 -0.000188643
0.0132973 4.51751e-21 0.00155458 -0.000127223 0.000150927 -2.32228e-06
-0.0132406 3.38813e-21 0.00216285 0 0 0
0.0132406 3.38813e-21 0.00216285 0 0 0
-0.0132805 3.38813e-21 0.00206436 0.00247828 -0.0028497 -7.87901e-05
0.0132806 -3.38813e-21 0.00206428 -5.16965e-05 5.66495e-05 -3.2424e-06
0.0133175 2.71051e-20 0.00219404 0 0 0
-0.0133175 2.71051e-20 0.00219405 0 0 0
-0.0133831 0 0.00186926 0.00628882 -0.00734838 -0.000190988
0.0133831 0 0.00186938 -0.000129971 0.000146279 -6.32521e-06
-0.0135632 2.03288e-20 9.24943e-08 0 0 0
0.0135632 -1.35525e-20 9.24941e-08 0 0 0
-0.0134965 4.51751e-21 0.00146628 0.0105339 -0.0121254 -0.000315149
0.0134965 0 0.00146652 -0.000196131 0.000232004 -2.81756e-06
-0.0136117 -6.77626e-21 8.70578e-05 0.00164121 -0.00189935 -5.63869e-05
0.0136117 6.77626e-21 8.70948e-05 -2.12566e-06 1.91022e-06 3.64429e-07
-0.0136152 0 8.46271e-08 0 0 0
0.0136152 -1.35525e-20 8.46272e-08 0 0 0
-0.0136416 0 8.06399e-08 0 0 0
0.0136416 1.35525e-20 8.06405e-08 0 0 0
-0.0136355 4.06576e-21 0.000679005 0.0100292 -0.0118741 9.2894e-05
0.0136355 -2.93638e-21 0.00067928 -0.000137187 0.000163859 1.36445e-06
0.0134812 0 0.00226051 0 0 0
-0.0134812 1.35525e-20 0.00226053 0 0 0
-0.0136197 2.07052e-21 0.00119016 0.0127462 -0.0151867 -1.58821e-05
0.0136197 -1.50584e-21 0.00119046 -0.000231146 0.000275982 7.85989e-07
-0.0136061 1.50584e-21 0.00162993 0.0115287 -0.0137794 -0.000277378
0.0136061 -4.51751e-21 0.00163012 -0.0002259 0.000269082 -2.14649e-06
0.0137235 -6.77626e-21 7.39517e-08 0 0 0
-0.0137235 1.35525e-20 7.39504e-08 0 0 0
0.0137252 0 9.16503e-05 -1.75138e-06 2.16689e-06 7.87594e-08
-0.0137252 0 9.16307e-05 0.00217175 -0.00261294 3.14938e-05
-0.0137102 2.25875e-22 0.00202489 0.0084705 -0.0107407 -9.34814e-05
0.0137103 0 0.00202497 -0.000189977 0.000231382 -1.6664e-06
-0.0136752 -6.77626e-21 0.00233929 0 0 0
0.0136753 6.77626e-21 0.00233932 0 0 0
-0.0137679 0 0.00237695 0 0 0
0.013768 0 0.00237697 0 0 0
0.0139849 1.35525e-20 0.000399215 -5.1075e-05 6.30608e-05 5.41339e-08
-0.0139849 -2.71051e-20 0.000399115 0.00846464 -0.0101849 6.14676e-05
-0.0139861 4.51751e-21 0.00091313 0.0154795 -0.0189189 7.66578e-05
0.0139861 4.51751e-21 0.000913297 -0.000271725 0.000331893 -1.52027e-07
-0.0139546 -4.51751e-21 0.00150392 0.0165798 -0.0204039 -1.1607e-05
0.0139546 -1.35525e-20 0.00150406 -0.000340476 0.000414967 2.03558e-06
-0.0140935 -1.35525e-20 0.000126399 0.00299781 -0.00360682 4.3473e-05
0.0140935 -1.35525e-20 0.000126419 -2.41742e-06 2.99095e-06 1.08711e-07
-0.0141016 -2.71051e-20 1.51491e-08 0 0 0
0.0141016 -2.71051e-20 1.51471e-08 0 0 0
-0.013961 -8.47033e-22 0.00245528 0 0 0
0.0139612 -3.38813e-21 0.00245534 0 0 0
-0.0141702 0 0.000612168 0.012864 -0.0152875 7.79158e-05
0.0141702 2.71051e-20 0.000612269 -0.000168377 0.000204664 2.15851e-07
-0.0139759 0 0.00246133 0 0 0
0.0139761 -8.47033e-22 0.00246136 0 0 0
-0.0139804 -8.47033e-22 0.00244924 0.000475132 -0.000580982 1.24275e-06
0.0139805 -2.5411e-21 0.00244934 -1.2199e-05 1.33817e-05 -3.17022e-08
-0.0141583 0 0.00121281 0.018415 -0.0221624 4.88008e-05
0.0141583 0 0.00121293 -0.000357861 0.000435584 1.51402e-06
-0.0142138 0 6.98128e-09 0 0 0
0.0142138 1.35525e-20 6.9805e-09 0 0 0
-0.0141062 -2.71051e-20 0.00185466 0.0145524 -0.0176968 -2.44342e-05
0.0141063 0 0.00185473 -0.00031815 0.000388132 1.43302e-06
-0.0140936 -2.25875e-21 0.00222221 0.00905703 -0.0111269 1.5944e-05
0.0140937 0 0.00222227 -0.000229376 0.000259443 -2.35973e-07
0.0143442 2.71051e-20 6.46171e-09 0 0 0
-0.0143442 -1.35525e-20 6.46231e-09 0 0 0
-0.0141439 6.77626e-21 0.00239274 0.00467336 -0.00571449 1.22236e-05
0.014144 0 0.0023928 -0.000120581 0.000132271 -3.1336e-07
0.014345 0 0.000135094 -2.66593e-06 3.22992e-06 7.47798e-08
-0.014345 1.35525e-20 0.000135094 0.00409876 -0.00476752 7.19454e-06
-0.0141783 1.35525e-20 0.00254352 0 0 0
0.0141784 0 0.00254356 0 0 0
0.0144148 2.71051e-21 0.000393106 -4.8478e-05 5.94235e-05 2.63413e-07
-0.0144148 -8.13152e-21 0.000393046 0.00991338 -0.0116522 4.44517e-05
-0.0142931 -6.77626e-21 0.00252723 0.00231184 -0.00288675 5.77396e-05
0.0142932 -6.77626e-21 0.00252727 -5.37158e-05 6.86066e-05 1.26686e-06
-0.0142857 6.77626e-21 0.00258704 0 0 0
0.0142858 0 0.00258706 0 0 0
-0.0145008 4.51751e-21 0.000915437 0.0202004 -0.0239875 6.64749e-05
0.0145009 -1.12938e-20 0.000915525 -0.0003728 0.000454211 -9.83698e-08
-0.0143708 1.69407e-21 0.00229753 0.0100046 -0.0124174 0.000139432
0.0143709 0 0.00229758 -0.00024621 0.000306907 2.79587e-06
-0.0144716 -9.03502e-21 0.00154756 0.0225793 -0.0270531 0.000162991
0.0144716 0 0.00154763 -0.000490479 0.000600466 4.05819e-06
-0.0144657 4.51751e-21 0.00205594 0.01612 -0.0197143 0.00022512
0.0144658 1.807e-20 0.002056 -0.000378832 0.000474081 4.90933e-06
-0.0146705 -2.71051e-20 0.000150455 0.00456483 -0.00530963 8.01263e-06
0.0146705 0 0.000150466 -2.96928e-06 3.59746e-06 8.3289e-08
-0.01468 0 6.30408e-09 0 0 0
0.01468 0 6.30387e-09 0 0 0
-0.0144708 2.71051e-20 0.00266196 0 0 0
0.014471 0 0.00266201 0 0 0
-0.0145058 5.42101e-21 0.00250608 0.00609342 -0.00771458 0.000131796
0.0145059 -1.35525e-20 0.00250612 -0.000148945 0.000193944 2.81823e-06
0.0148234 -1.35525e-20 5.71489e-09 0 0 0
-0.0148234 -2.71051e-20 5.71495e-09 0 0 0
-0.0148746 4.51751e-21 0.000558343 0.0159648 -0.0187889 3.9171e-05
0.0148746 2.25875e-21 0.000558392 -0.000198999 0.000244752 -1.60303e-07
-0.0147687 0 0.00191044 0.021597 -0.0260097 0.000166924
0.0147687 -2.71051e-20 0.00191049 -0.000490977 0.000608365 6.95586e-06
-0.0146404 0 0.00273067 0 0 0
0.0146406 2.71051e-20 0.00273071 0 0 0
-0.0148827 1.16165e-20 0.0011685 0.0256438 -0.0304177 9.12699e-05
0.0148828 0 0.00116856 -0.000507709 0.000625757 1.6257e-06
0.0149747 1.35525e-20 4.96058e-09 0 0 0
-0.0149747 0 4.96059e-09 0 0 0
0.0149752 -1.35525e-20 0.000142276 -2.84054e-06 3.49442e-06 9.15809e-08
-0.0149752 1.35525e-20 0.000142271 0.00498053 -0.00578251 4.25333e-06
-0.0148162 9.03502e-21 0.00236391 0.0144216 -0.0174903 0.000201895
0.0148163 2.25875e-21 0.00236395 -0.000343129 0.000427151 6.79456e-06
-0.0150223 -4.51751e-21 0.00156468 0.0278032 -0.0330702 0.000145443
0.0150223 9.03502e-21 0.00156474 -0.000608838 0.000755829 6.95818e-06
-0.0151425 -2.71051e-20 0.000304852 0.0103273 -0.0119768 1.2843e-05
0.0151425 2.71051e-20 0.000304883 -6.03443e-06 7.43342e-06 1.77403e-07
-0.014892 -6.77626e-21 0.00283336 0 0 0
0.0148921 6.77626e-21 0.0028334 0 0 0
-0.0151422 0 0.000920375 0.0266237 -0.0313135 4.80736e-05
0.0151422 2.71051e-20 0.000920434 -0.000498236 0.000614261 -5.55793e-07
-0.015042 1.6263e-20 0.00210477 0.023432 -0.0281168 0.000241315
0.0150421 1.0842e-20 0.00210482 -0.000536752 0.000668822 1.13902e-05
-0.0150532 9.03502e-21 0.00270351 0.00748534 -0.00887461 0.000143034
0.0150534 0 0.00270357 -0.000183722 0.000223247 4.30903e-06
-0.0150254 -2.03288e-20 0.00288744 0 0 0
0.0150256 3.38813e-20 0.00288752 0 0 0
-0.0153086 1.35525e-20 2.24178e-09 0 0 0
0.0153086 0 2.24177e-09 0 0 0
-0.0153122 0 0.000140816 0.00492969 -0.00572347 4.20991e-06
0.0153122 -1.35525e-20 0.000140822 -2.81157e-06 3.45878e-06 9.06469e-08
0.0154577 0 1.48792e-09 0 0 0
-0.0154577 0 1.48787e-09 0 0 0
-0.0154655 -4.51751e-21 0.00060398 0.0197255 -0.0230911 2.29554e-05
0.0154655 -9.03502e-21 0.000604018 -0.000263322 0.000326957 -1.10645e-08
-0.0154631 2.25875e-21 0.00123926 0.0310298 -0.0365841 4.33132e-05
0.0154631 1.35525e-20 0.00123931 -0.000625877 0.000781524 4.87305e-06
-0.0152765 0 0.0029899 0 0 0
0.0152766 -2.71051e-20 0.00298996 0 0 0
-0.0154691 -2.25875e-21 0.00188066 0.030382 -0.0360821 9.134e-05
0.0154691 -4.51751e-21 0.00188071 -0.000678726 0.000853016 1.1915e-05
0.0156043 -1.35525e-20 1.30288e-09 0 0 0
-0.0156043 0 1.30283e-09 0 0 0
0.0156046 1.35525e-20 0.000132291 -2.71754e-06 3.39598e-06 8.9779e-08
-0.0156046 -1.35525e-20 0.000132288 0.00514414 -0.00598012 2.05591e-05
-0.0153943 1.35525e-20 0.00303866 0 0 0
0.0153944 0 0.00303871 0 0 0
-0.0154266 -1.35525e-20 0.00293734 0.00467099 -0.00557402 -4.40873e-06
0.0154267 1.35525e-20 0.00293741 -0.00012516 0.000146836 3.76323e-06
-0.0155042 2.63521e-21 0.00256117 0.0175332 -0.0210191 7.39105e-05
0.0155043 -3.76459e-21 0.00256122 -0.000419494 0.000528777 1.02834e-05
0.0157872 2.71051e-20 0.000299894 -6.07358e-06 7.60196e-06 1.69285e-07
-0.0157872 2.71051e-20 0.000299869 0.0113834 -0.0131856 3.38612e-05
-0.0157972 2.71051e-20 0.000914956 0.0311125 -0.0365303 -3.60375e-06
0.0157972 2.71051e-20 0.000915008 -0.000557514 0.000696806 1.41726e-07
-0.015799 0 0.00156064 0.0362945 -0.0428025 -4.26865e-05
0.015799 -2.71051e-20 0.00156069 -0.000783405 0.000989952 1.1697e-05
-0.0156185 -6.77626e-21 0.00313206 0 0 0
0.0156185 6.77626e-21 0.00313207 0 0 0
-0.0158092 2.71051e-20 0.00221249 0.0312671 -0.0372166 -2.14935e-05
0.0158093 0 0.00221254 -0.000714411 0.000906118 1.51544e-05
-0.0159653 -2.71051e-20 5.84434e-10 0 0 0
0.0159653 2.71051e-20 5.84428e-10 0 0 0
-0.0159712 0 0.000124936 0.00485829 -0.00564782 1.94167e-05
0.0159712 0 0.000124938 -2.56651e-06 3.20724e-06 8.47895e-08
-0.015693 0 0.00316295 0 0 0
0.0156931 0 0.00316301 0 0 0
-0.0157206 1.35525e-20 0.0031026 0.00266205 -0.00341187 4.1693e-05
0.0157208 0 0.00310257 -7.29449e-05 0.000101783 2.82372e-06
-0.0158002 4.51751e-21 0.00293364 0.0102053 -0.0126729 5.90842e-05
0.0158003 -3.01167e-21 0.0029337 -0.000270823 0.000362405 9.19246e-06
-0.0157817 0 0.00319963 0 0 0
0.015782 0 0.00319974 0 0 0
0.0161034 -1.35525e-20 4.04844e-10 0 0 0
-0.0161034 -1.35525e-20 4.04848e-10 0 0 0
-0.016119 -4.51751e-21 0.000594151 0.0221124 -0.0259082 -1.65674e-05
0.016119 0 0.000594174 -0.000285222 0.000358684 2.51014e-08
-0.01613 4.51751e-21 0.00122518 0.0357406 -0.0420537 -0.000148639
0.01613 2.25875e-21 0.00122521 -0.000696764 0.000882873 6.22705e-06
0.0162343 -1.35525e-20 3.59814e-10 0 0 0
-0.0162343 -2.71051e-20 3.59814e-10 0 0 0
0.0162345 -1.35525e-20 0.000113277 -2.45563e-06 3.11034e-06 1.46031e-07
-0.0162345 -1.35525e-20 0.000113279 0.00477794 -0.00559947 2.91149e-05
-0.0161354 9.03502e-21 0.00188647 0.0363698 -0.0429904 -0.000229205
0.0161355 -4.51751e-21 0.00188651 -0.000802179 0.00102388 1.47269e-05
-0.0161281 2.25875e-21 0.00255569 0.024769 -0.0294561 -0.000219224
0.0161282 0 0.00255574 -0.000592833 0.000760413 1.36807e-05
-0.015998 1.35525e-20 0.0032882 0 0 0
0.0159982 2.71051e-20 0.00328826 0 0 0
-0.0160357 0 0.00323052 0.00316541 -0.00365157 -0.00010314
0.0160358 0 0.00323061 -7.6992e-05 9.64679e-05 1.34693e-06
-0.016091 -1.35525e-20 0.00332623 0 0 0
0.0160912 1.35525e-20 0.00332628 0 0 0
0.0164377 -2.71051e-20 0.000292336 -6.19963e-06 7.85263e-06 2.93524e-07
-0.0164377 -5.42101e-20 0.000292322 0.0120927 -0.0140815 5.58029e-05
0.0164553 0 0.000897692 -0.000589165 0.000745468 -5.46995e-07
-0.0164553 5.42101e-20 0.00089766 0.0345604 -0.0406658 -0.000151307
-0.0162072 3.61401e-21 0.00298944 0.0142252 -0.0169108 -0.000197816
0.0162073 0 0.00298952 -0.000361461 0.000464136 8.83846e-06
-0.016466 2.71051e-20 0.00154116 0.0412537 -0.0485209 -0.000399135
0.016466 0 0.00154119 -0.000863996 0.00110875 1.37374e-05
-0.016253 -1.35525e-20 0.00328154 0.00488755 -0.0056536 -0.000126456
0.016253 -1.35525e-20 0.00328162 -0.000123135 0.000156408 3.85619e-06
-0.0162529 1.35525e-20 0.00339231 0 0 0
0.016253 -1.35525e-20 0.00339232 0 0 0
-0.0164659 0 0.00220933 0.036993 -0.0438061 -0.000452254
0.016466 2.71051e-20 0.00220938 -0.000852429 0.00109821 1.83976e-05
-0.0166389 0 1.04271e-10 0 0 0
0.0166389 1.35525e-20 1.04262e-10 0 0 0
-0.0166447 0 0.000100566 0.00424174 -0.00497108 2.58475e-05
0.0166447 1.35525e-20 0.000100563 -2.18001e-06 2.76124e-06 1.2964e-07
-0.0165069 0 0.00278852 0.0239682 -0.0282346 -0.000442971
0.016507 2.71051e-20 0.00278859 -0.000601649 0.00077778 1.39653e-05
0.0167551 0 6.18359e-11 0 0 0
-0.0167551 0 6.18413e-11 0 0 0
-0.0167741 4.51751e-21 0.000577078 0.023722 -0.0279613 -9.52091e-05
0.0167741 2.25875e-21 0.000577088 -0.000295936 0.000375011 2.16667e-08
-0.0164731 0 0.00325216 0.00994105 -0.0116319 -0.000224909
0.0164733 0 0.00325224 -0.000251504 0.000321761 7.40255e-06
-0.0167929 -1.12938e-21 0.00119995 0.0393175 -0.0463685 -0.00043725
0.0167929 2.25875e-21 0.00119996 -0.000741943 0.000950628 7.39369e-06
-0.0164937 0 0.00349064 0 0 0
0.016494 1.35525e-20 0.00349077 0 0 0
0.0168627 -1.35525e-20 5.62475e-11 0 0 0
-0.0168627 -1.35525e-20 5.62517e-11 0 0 0
0.0168631 1.35525e-20 9.00315e-05 -2.13538e-06 2.74072e-06 2.91227e-07
-0.0168631 -1.35525e-20 9.00368e-05 0.00395053 -0.00476784 4.58908e-05
-0.0167974 1.12938e-21 0.0018671 0.041268 -0.0487605 -0.000721742
0.0167974 -5.64689e-21 0.00186712 -0.000899946 0.00116478 1.79639e-05
-0.016565 1.35525e-20 0.00339846 0.00535132 -0.00619006 -0.000138456
0.0165653 2.71051e-20 0.00339864 -0.000134813 0.000171241 4.22189e-06
-0.0168042 -3.38813e-21 0.00251849 0.0330061 -0.0388422 -0.000809497
0.0168043 -1.12938e-21 0.00251854 -0.000786959 0.00102237 1.92754e-05
-0.0166661 2.71051e-20 0.00356101 0 0 0
0.0166663 2.71051e-20 0.00356109 0 0 0
-0.0167843 -5.64689e-21 0.00309016 0.0186738 -0.0217197 -0.000557442
0.0167844 -2.25875e-21 0.00309022 -0.000468882 0.000609498 1.38597e-05
0.0170872 2.71051e-20 0.000280474 -6.42546e-06 8.2111e-06 6.91888e-07
-0.0170872 -2.71051e-20 0.000280467 0.0122215 -0.0145087 9.54762e-05
0.0171094 -2.71051e-20 0.000869698 -0.000600869 0.00076292 -4.4663e-07
-0.0171094 0 0.000869686 0.0367536 -0.0434751 -0.000375528
-0.017124 0 0.00151088 0.0449045 -0.0530435 -0.000826087
0.017124 2.71051e-20 0.0015109 -0.000919413 0.00119325 1.68267e-05
-0.016855 -6.77626e-21 0.00363794 0 0 0
0.016855 -1.35525e-20 0.00363795 0 0 0
-0.0171219 -2.71051e-20 0.00218641 0.0420937 -0.0498724 -0.00120926
0.0171219 -2.71051e-20 0.00218644 -0.00096587 0.00126168 2.28953e-05
-0.0173128 0 1.50015e-11 0 0 0
0.0173128 1.35525e-20 1.49999e-11 0 0 0
-0.017316 0 7.61108e-05 0.00333951 -0.0040304 3.87929e-05
0.017316 0 7.61049e-05 -1.80507e-06 2.31677e-06 2.46179e-07
-0.016994 4.51751e-21 0.00347025 0.00902204 -0.0103694 -0.00031114
0.0169942 -9.03502e-21 0.00347044 -0.000227482 0.000299021 9.3289e-06
-0.0169523 6.77626e-21 0.00367759 0 0 0
0.0169528 1.35525e-20 0.00367779 0 0 0
-0.0171196 -2.71051e-20 0.00284364 0.0301218 -0.0348129 -0.00118274
0.0171197 -2.71051e-20 0.00284371 -0.000751551 0.000982947 2.26038e-05
0.0174041 1.35525e-20 1.00263e-11 0 0 0
-0.0174041 1.35525e-20 1.00267e-11 0 0 0
0.0174225 0 0.000552277 -0.000290561 0.000368457 9.40826e-07
-0.0174225 0 0.000552274 0.024325 -0.0289938 -0.000185039
-0.0174465 -2.25875e-21 0.00116234 0.0415196 -0.0492917 -0.000771087
0.0174465 -2.25875e-21 0.00116235 -0.000758107 0.000978457 1.08109e-05
0.0174883 0 9.27523e-12 0 0 0
-0.0174883 0 9.27554e-12 0 0 0
0.0174886 1.35525e-20 6.91564e-05 -1.65195e-06 2.07266e-06 1.64845e-07
-0.0174886 0 6.91614e-05 0.00303861 -0.00386559 8.63063e-05
-0.0174525 2.25875e-21 0.00183359 0.0453049 -0.0537639 -0.00137354
0.0174525 1.12938e-21 0.0018336 -0.000973745 0.00127628 2.35189e-05
-0.0171558 -4.06576e-20 0.00376044 0 0 0
0.0171561 0 0.00376058 0 0 0
-0.0174398 2.25875e-21 0.00252756 0.0384328 -0.044978 -0.00172203
0.0174399 5.64689e-21 0.0025276 -0.000911067 0.00120127 2.75604e-05
-0.0172703 0 0.00381189 0 0 0
0.0172706 1.35525e-20 0.003812 0 0 0
-0.0173099 -1.35525e-20 0.00368922 0.00604166 -0.00671509 -0.000486719
0.0173101 0 0.00368943 -0.000164761 0.000203158 4.7505e-06
-0.0174177 -7.52918e-22 0.0032729 0.0207445 -0.0236761 -0.00119273
0.0174179 -1.12938e-21 0.00327297 -0.000527751 0.000701143 2.04788e-05
0.0177262 0 0.000264495 -6.31968e-06 7.91465e-06 4.36499e-07
-0.0177263 -2.71051e-20 0.000264494 0.0117292 -0.0144305 0.000180334
0.017753 -2.71051e-20 0.000830849 -0.000568782 0.000721683 2.61469e-06
-0.017753 0 0.000830841 0.0373921 -0.0445224 -0.000624959
-0.0177739 0 0.00146634 0.0472273 -0.0563397 -0.00125925
0.0177739 2.71051e-20 0.00146635 -0.000949703 0.0012458 2.38974e-05
-0.0174674 0 0.00388874 0 0 0
0.0174675 -6.77626e-21 0.0038888 0 0 0
-0.0177697 0 0.00215829 0.0469853 -0.055799 -0.00218166
0.0177697 2.71051e-20 0.0021583 -0.00105805 0.00140206 3.03255e-05
-0.0175192 6.77626e-21 0.0039114 0 0 0
0.0175194 0 0.00391155 0 0 0
-0.0175515 0 0.00385282 0.0028193 -0.00333535 -0.000121442
0.0175519 0 0.00385278 -7.91612e-05 0.00011737 5.29645e-06
-0.0177417 0 0.00287714 0.0353663 -0.0404508 -0.00236355
0.0177418 -2.71051e-20 0.0028772 -0.000884219 0.00117944 3.48147e-05
0.017981 -6.77626e-21 1.39444e-12 0 0 0
-0.017981 -6.77626e-21 1.3943e-12 0 0 0
0.0179821 0 5.25103e-05 -1.25432e-06 1.57376e-06 1.25166e-07
-0.0179821 -6.77626e-21 5.25107e-05 0.00230706 -0.00293494 6.5528e-05
-0.0175795 2.03288e-20 0.00394118 0 0 0
0.01758 -1.35525e-20 0.00394143 0 0 0
-0.0176602 6.02335e-21 0.00367713 0.0119473 -0.0137692 -0.000737389
0.0176605 0 0.00367727 -0.000323301 0.0004621 1.94318e-05
0.0180463 0 7.99282e-13 0 0 0
-0.0180463 -6.77626e-21 7.99057e-13 0 0 0
0.0180587 1.12938e-21 0.000513287 -0.000255171 0.000339365 -2.50108e-06
-0.0180587 0 0.000513287 0.0233671 -0.0282683 -0.000306465
0.0181036 0 4.49211e-05 -1.00049e-06 8.34718e-07 -1.23025e-07
-0.0181036 0 4.4918e-05 0.00206541 -0.00275055 8.29636e-05
0.0181054 0 7.64381e-13 0 0 0
-0.0181054 6.77626e-21 7.64199e-13 0 0 0
0.0181063 -9.03502e-22 0.00109871 -0.000730528 0.000965059 9.62441e-06
-0.0181063 9.03502e-22 0.00109871 0.0418005 -0.0502228 -0.00110649
-0.0181013 0 0.00178214 0.0485683 -0.0581269 -0.0020373
0.0181014 1.69407e-21 0.00178215 -0.00102618 0.00136196 2.69576e-05
-0.0180751 0 0.002514 0.0435628 -0.0509265 -0.00284007
0.0180751 -3.38813e-21 0.00251403 -0.00102228 0.00136779 3.53619e-05
-0.0177928 1.35525e-20 0.00406344 0 0 0
0.0177931 1.35525e-20 0.00406363 0 0 0
-0.0178461 1.35525e-20 0.00400264 0.00387816 -0.00418744 -0.000413482
0.0178465 0 0.00400286 -9.07085e-05 0.000124329 5.81423e-06
-0.018018 4.51751e-21 0.00326638 0.0280277 -0.0313975 -0.00249436
0.0180181 2.25875e-21 0.00326648 -0.000697171 0.000944971 3.22686e-05
0.0183484 0 0.000235241 -6.12676e-06 5.89296e-06 -1.21843e-07
-0.0183484 0 0.000235238 0.0107062 -0.0135964 9.24468e-05
-0.0178962 0 0.00412302 0 0 0
0.0178965 0 0.00412318 0 0 0
0.0183932 -2.71051e-20 0.000764488 -0.000471618 0.000658921 -1.19252e-05
-0.0183932 0 0.000764489 0.0348862 -0.0420028 -0.000868799
-0.0180569 -2.03288e-21 0.00374603 0.0169765 -0.0184056 -0.00175158
0.0180571 -1.807e-21 0.00374614 -0.000417509 0.000572868 2.31979e-05
-0.0184338 -2.71051e-20 0.00138083 0.048515 -0.0588581 -0.00165087
0.0184338 0 0.00138083 -0.000954549 0.00127021 2.264e-05
-0.0184038 5.42101e-20 0.00212475 0.051499 -0.0614982 -0.00304159
0.0184038 -2.71051e-20 0.00212477 -0.00113828 0.00152485 3.10029e-05
-0.0185327 3.38813e-21 3.11486e-13 0 0 0
0.0185329 -3.38813e-21 3.11329e-13 0 0 0
-0.0180751 -1.35525e-20 0.00422612 0 0 0
0.0180753 -1.35525e-20 0.00422622 0 0 0
-0.0183783 -2.71051e-20 0.00286013 0.0408824 -0.0465927 -0.00378219
0.0183783 0 0.00286017 -0.00101512 0.00137373 4.49472e-05
0.0186585 3.95282e-21 0.000460868 -0.000202018 0.000258565 4.05998e-06
-0.0186585 -3.95282e-21 0.000460863 0.0218735 -0.0268931 -0.000674882
-0.0181758 0 0.00428412 0 0 0
0.0181761 0 0.00428433 0 0 0
-0.0182334 -4.51751e-21 0.00409678 0.00859808 -0.0089305 -0.00110486
0.0182336 4.51751e-21 0.00409694 -0.000194433 0.000269435 1.55555e-05
-0.0183787 0 0.00352164 0.0286938 -0.0308381 -0.00324466
0.0183789 0 0.00352172 -0.00068694 0.000943781 3.75676e-05
-0.018738 0 2.24787e-13 0 0 0
0.018738 0 2.24588e-13 0 0 0
-0.0187383 3.38813e-21 1.8583e-05 0.00083396 -0.000987795 -2.92031e-05
0.0187383 0 1.85606e-05 -5.78014e-07 6.27193e-07 4.60809e-08
-0.0187394 0 0.000144294 0.0066962 -0.00820789 -0.00021367
0.0187394 0 0.000144153 -5.65786e-05 6.99962e-05 1.3472e-06
-0.0187637 0 5.2385e-14 0 0 0
0.0187638 0 5.23963e-14 0 0 0
0.018782 3.38813e-21 1.5237e-05 -2.49224e-07 3.98425e-07 2.03861e-07
-0.018782 -3.38813e-21 1.52548e-05 0.000690768 -0.000805625 -5.24618e-05
0.0187834 -3.38813e-21 4.17921e-14 0 0 0
-0.0187835 -6.77626e-21 4.17719e-14 0 0 0
0.0187414 5.64689e-23 0.00174786 -0.00107261 0.00142623 3.25951e-05
-0.0187414 0 0.00174787 0.050193 -0.060768 -0.00260053
0.0188423 3.38813e-21 3.05852e-14 0 0 0
-0.0188424 -3.38813e-21 3.05567e-14 0 0 0
-0.0188306 4.51751e-21 0.000951028 0.0368853 -0.0452348 -0.00132801
0.0188306 -9.03502e-21 0.000951028 -0.000590278 0.000754356 2.00495e-05
-0.0183689 -2.71051e-20 0.00439542 0 0 0
0.0183691 -2.71051e-20 0.00439559 0 0 0
-0.0187534 -4.03349e-23 0.00244424 0.0475977 -0.0559788 -0.00380357
0.0187534 -3.22679e-22 0.00244427 -0.00111218 0.00149942 3.92969e-05
-0.0186869 0 0.00320185 0.0382886 -0.0425661 -0.00425323
0.018687 0 0.00320189 -0.000910357 0.00124873 4.40881e-05
-0.0184805 1.35525e-20 0.00445982 0 0 0
0.0184807 0 0.00445997 0 0 0
-0.0185301 -1.35525e-20 0.00433158 0.00694579 -0.00711759 -0.0011977
0.0185303 1.35525e-20 0.00433174 -0.000153672 0.000197058 7.54898e-06
-0.0186603 -3.76459e-22 0.00393311 0.0216305 -0.0227799 -0.00290057
0.0186605 -1.12938e-21 0.0039332 -0.000487531 0.000676163 3.0872e-05
0.0191245 0 0.000340867 -2.28536e-05 5.06448e-05 -3.32223e-05
-0.0191245 -1.12938e-21 0.000340856 0.0176677 -0.0223901 -0.000918593
0.0192203 -1.35525e-20 9.46707e-15 0 0 0
-0.0192204 1.35525e-20 9.45324e-15 0 0 0
-0.0191646 0 0.00146339 0.0499165 -0.0620353 -0.00234088
0.0191646 0 0.00146338 -0.00106404 0.0013918 4.35142e-05
-0.0190143 0 0.00283781 0.0466251 -0.0535978 -0.00498379
0.0190144 2.71051e-20 0.00283783 -0.00111492 0.00152948 4.4828e-05
-0.0186819 0 0.00457601 0 0 0
0.0186821 0 0.00457612 0 0 0
-0.0187038 0 0.00458864 0 0 0
0.018704 1.69407e-21 0.00458877 0 0 0
-0.01916 -2.71051e-20 0.00195783 0.0531604 -0.0649692 -0.00342516
0.01916 -5.42101e-20 0.00195783 -0.00121707 0.00161404 3.94481e-05
-0.0187217 0 0.00456119 0.00142909 -0.00154069 -0.000180257
0.0187219 0 0.00456127 -3.41283e-05 5.17982e-05 3.35753e-06
-0.0187284 1.01644e-20 0.00460285 0 0 0
0.0187286 1.01644e-20 0.00460299 0 0 0
-0.0189854 2.71051e-20 0.00354614 0.0379192 -0.0404556 -0.00510244
0.0189855 -2.71051e-20 0.00354618 -0.000848196 0.00118027 4.94679e-05
-0.0188773 -7.52918e-21 0.00434122 0.0135837 -0.014261 -0.00198219
0.0188775 4.51751e-21 0.00434132 -0.000303753 0.000445232 2.63287e-05
-0.0193797 0 0.000837434 0.0321309 -0.0403217 -0.00147708
0.0193798 0 0.000837383 -0.000444805 0.000565653 7.54633e-06
-0.0193834 2.11758e-21 0.00085584 0.0326081 -0.0409089 -0.00149295
0.0193835 2.11758e-21 0.000855835 -0.000460387 0.000584507 9.21665e-06
-0.0194038 -1.27055e-21 0.000856716 0.0326416 -0.0409805 -0.00149331
0.0194039 -1.27055e-21 0.000856714 -0.000460936 0.00058563 9.12373e-06
0.0194237 0 1.54975e-15 0 0 0
-0.0194238 -1.35525e-20 1.53986e-15 0 0 0
-0.0193729 0 0.00169001 0.0517436 -0.0641985 -0.00291166
0.0193729 0 0.00169001 -0.00115353 0.00152558 3.17402e-05
-0.0193777 -7.05861e-22 0.00244586 0.051354 -0.0612231 -0.00468726
0.0193778 -1.41172e-22 0.00244587 -0.00120574 0.00163677 3.65817e-05
-0.0189667 1.35525e-20 0.0047403 0 0 0
0.0189668 -1.35525e-20 0.00474041 0 0 0
-0.0193197 -3.38813e-21 0.00318402 0.0455665 -0.0510847 -0.00564105
0.0193198 1.12938e-21 0.00318404 -0.0010398 0.00144056 4.76123e-05
-0.0190326 1.35525e-20 0.0046715 0.0051608 -0.00497401 -0.00100486
0.0190327 0 0.00467159 -9.44893e-05 0.000133433 7.24278e-06
-0.0195819 0 0.00142153 0.0498637 -0.0630349 -0.00249707
0.019582 2.71051e-20 0.00142152 -0.00108038 0.00142568 2.41283e-05
-0.019255 2.25875e-21 0.00392942 0.0324134 -0.0338612 -0.00482459
0.019255 0 0.00392947 -0.000671763 0.00094246 4.3702e-05
-0.019653 0 3.99218e-16 0 0 0
0.019653 2.03288e-20 4.03295e-16 0 0 0
-0.0195685 0 0.00193727 0.0542338 -0.0673196 -0.00348615
0.0195685 -2.71051e-20 0.00193726 -0.00128227 0.00170671 2.33955e-05
-0.0190798 2.71051e-20 0.00480552 0 0 0
0.0190799 0 0.00480561 0 0 0
-0.0197213 0 0.000269929 0.0124369 -0.0162154 -0.000558133
0.0197213 2.25875e-21 0.000269962 -8.15344e-06 2.24205e-05 -3.59683e-05
-0.0192752 2.25875e-21 0.00441197 0.0208634 -0.0206191 -0.00354567
0.0192754 -1.807e-21 0.00441204 -0.000398428 0.000561543 2.98798e-05
0.0198342 0 4.71809e-16 0 0 0
-0.0198343 3.38813e-21 4.68214e-16 0 0 0
-0.0192473 0 0.00490218 0 0 0
0.0192474 -6.77626e-21 0.00490225 0 0 0
-0.0196698 -2.71051e-20 0.00278692 0.052073 -0.061233 -0.00585657
0.0196698 -2.71051e-20 0.00278693 -0.00122003 0.00168177 3.9743e-05
-0.0196163 2.71051e-20 0.00353247 0.0459604 -0.0495576 -0.0066242
0.0196163 2.71051e-20 0.0035325 -0.000986856 0.0013847 5.55703e-05
-0.019321 -3.38813e-20 0.00494469 0 0 0
0.0193211 -6.77626e-21 0.00494477 0 0 0
-0.0194215 -4.51751e-21 0.00475386 0.0121366 -0.0109489 -0.00243091
0.0194216 -1.35525e-20 0.00475393 -0.000197879 0.000282166 1.76189e-05
-0.0200351 0 -3.29861e-17 0 0 0
0.0200352 0 -3.30812e-17 0 0 0
-0.0200397 8.47033e-22 0.000879744 0.0317615 -0.0410197 -0.00137039
0.0200398 -8.47033e-22 0.000879732 -0.000449436 0.000592428 3.36317e-06
-0.0196209 0 0.00418606 0.0362899 -0.0361803 -0.00592399
0.0196209 2.71051e-20 0.0041861 -0.000662522 0.000933144 4.96824e-05
-0.0200081 0 0.00168408 0.05188 -0.0657233 -0.00295985
0.0200082 -2.82344e-22 0.00168407 -0.00122555 0.00161953 1.58341e-05
-0.0200926 0 6.73549e-05 0.00316094 -0.0038648 -5.3499e-05
0.0200928 0 6.74599e-05 -5.08028e-06 3.67952e-06 8.46582e-06
-0.0200965 0 -7.17225e-19 0 0 0
0.0200967 0 -7.66423e-19 0 0 0
-0.0201334 0 8.63193e-18 0 0 0
0.0201336 1.35525e-20 8.60253e-18 0 0 0
-0.019508 -1.35525e-20 0.00505259 0 0 0
0.0195081 -2.71051e-20 0.00505265 0 0 0
-0.0200346 1.12938e-21 0.00229471 0.0535412 -0.0654527 -0.00474823
0.0200346 -2.25875e-21 0.0022947 -0.00127783 0.00173107 2.95663e-05
-0.0199605 -2.03288e-21 0.00311687 0.0517528 -0.059503 -0.00631623
0.0199605 -2.03288e-21 0.00311687 -0.00115983 0.00161203 4.72152e-05
-0.0202249 0 6.9338e-05 0.00350803 -0.00473817 -5.95439e-05
0.0202254 1.35525e-20 6.9446e-05 1.02942e-07 2.71934e-07 -7.00503e-08
-0.0202304 0 -1.76858e-17 0 0 0
0.0202308 0 -1.76992e-17 0 0 0
-0.0199313 -1.12938e-21 0.0038555 0.0455557 -0.0477534 -0.00691413
0.0199314 1.12938e-21 0.00385553 -0.000888214 0.00125274 5.50801e-05
-0.0196734 -1.35525e-20 0.00514806 0 0 0
0.0196735 2.03288e-20 0.00514812 0 0 0
-0.0198941 3.61401e-21 0.00456699 0.0300594 -0.0286476 -0.00536078
0.0198942 2.71051e-21 0.00456703 -0.00048886 0.000686073 3.98063e-05
-0.0197657 6.77626e-21 0.00520128 0 0 0
0.0197658 -1.35525e-20 0.00520135 0 0 0
-0.0198217 0 0.00501122 0.0134649 -0.0119565 -0.00282307
0.0198218 0 0.00501128 -0.000188238 0.000244043 1.49681e-05
-0.0202896 -2.71051e-20 0.00277321 0.0556729 -0.0671202 -0.00592135
0.0202896 0 0.00277322 -0.00129108 0.00178704 4.1713e-05
-0.0202612 -2.71051e-20 0.00349053 0.05265 -0.0579864 -0.00740445
0.0202612 2.71051e-20 0.00349054 -0.00109973 0.00155244 5.7575e-05
-0.0199064 0 0.00528243 0 0 0
0.0199065 0 0.0052825 0 0 0
-0.020245 0 0.0041794 0.0480822 -0.048286 -0.00779675
0.0202451 2.71051e-20 0.00417943 -0.00082303 0.00116814 5.78262e-05
-0.0206572 0 0.00171988 0.0516238 -0.0671756 -0.00295546
0.0206573 5.42101e-20 0.00171988 -0.00133844 0.00175308 5.67786e-06
-0.0201293 -1.50584e-21 0.00498603 0.0237854 -0.021063 -0.00474706
0.0201293 -1.50584e-21 0.00498607 -0.000323721 0.000451727 3.30727e-05
-0.0200531 0 0.00536707 0 0 0
0.0200531 -6.77626e-21 0.00536711 0 0 0
0.0206314 7.05861e-23 0.00242248 -0.00133291 0.00182099 2.98253e-05
-0.0206314 1.41172e-22 0.0024225 0.0552096 -0.068101 -0.00515081
-0.0207755 -5.42101e-20 0.00051497 0.0260757 -0.0363709 -0.000296492
0.0207756 0 0.000514975 -8.40629e-06 1.28405e-05 -2.09462e-06
-0.0205987 0 0.00311579 0.0555843 -0.0649998 -0.0063828
0.0205987 5.64689e-22 0.00311579 -0.00124326 0.00173612 4.53499e-05
-0.0203104 -2.71051e-20 0.00476269 0.0368916 -0.0338874 -0.00679369
0.0203105 -2.71051e-20 0.00476272 -0.000511039 0.000733283 5.42073e-05
-0.0201708 1.35525e-20 0.00543499 0 0 0
0.0201709 2.71051e-20 0.00543504 0 0 0
-0.0202176 -9.03502e-21 0.00527687 0.0110249 -0.00914681 -0.00230453
0.0202177 -4.51751e-21 0.00527691 -0.000131682 0.000192094 1.88437e-05