# UMean  POINT_DATA 27219
# x  y  z  UMean_x  UMean_y  UMean_z
-0.0130568 0 4.20224e-06 1.85605e-05 -2.23088e-05 -1.63428e-07
0.0130568 0 4.20467e-06 9.34322e-09 -1.01971e-08 3.47521e-10
0.0130538 0 6.66496e-06 0 0 0
-0.0130538 0 6.66145e-06 0 0 0
-0.0130538 0 0.000644966 0 0 0
0.0130538 0 0.000645285 0 0 0
-0.0130538 0 0.00065941 0 0 0
0.0130538 0 0.00065974 0 0 0
-0.0130538 0 0.000674665 0 0 0
0.0130538 0 0.000675 0 0 0
-0.0130603 8.47033e-22 0.000649852 8.87374e-05 -0.000106658 -7.81344e-07
0.0130603 0 0.000650175 4.46816e-08 -4.87652e-08 1.66193e-09
-0.0130603 0 0.000668993 0.00018536 -0.000220159 -9.13475e-08
0.0130603 0 0.000669326 9.36305e-07 -1.15385e-06 6.23444e-09
-0.0130709 5.0822e-21 0.000658297 0.000346634 -0.000398144 5.35871e-06
0.0130709 -1.43996e-20 0.000658629 1.31356e-06 -1.53681e-06 -4.05937e-09
-0.0130538 0 0.00133823 0 0 0
0.0130538 0 0.00133856 0 0 0
-0.0130538 -1.69407e-21 0.00135482 0 0 0
0.0130538 0 0.00135516 0 0 0
-0.0130538 -1.69407e-21 0.00137229 0 0 0
0.0130538 1.69407e-21 0.00137264 0 0 0
-0.0130609 0 0.00134178 0.00020193 -0.00023984 -9.95132e-08
0.0130609 0 0.00134211 1.02074e-06 -1.2579e-06 6.79666e-09
-0.0130605 0 0.00136344 0.000183044 -0.00021638 -2.7671e-06
0.0130605 0 0.00136379 1.04851e-06 -1.25757e-06 -3.85738e-08
-0.0130744 8.47033e-21 0.00134763 0.000585534 -0.000679487 -2.58011e-06
0.0130744 5.0822e-21 0.00134797 3.36803e-06 -3.89282e-06 4.14996e-09
-0.0130556 0 0.00208219 4.58035e-05 -5.36283e-05 -1.46849e-06
0.0130566 4.23516e-22 0.0020858 2.6566e-07 -3.16011e-07 -1.84541e-09
-0.0130676 -4.23516e-22 0.00208096 0.000254108 -0.000292249 -8.06079e-06
0.0130676 -4.23516e-22 0.00208096 1.42762e-06 -1.55743e-06 3.78217e-08
-0.0133442 0 8.05854e-08 0 0 0
0.0133442 -2.03288e-20 8.05851e-08 0 0 0
-0.0133452 0 0.000326595 0.00361574 -0.00444259 -9.23076e-06
0.0133452 4.51751e-21 0.00032676 3.29857e-06 -4.22032e-06 -1.50294e-07
-0.0133372 3.38813e-21 0.000960076 0.00735071 -0.00868799 3.51935e-05
0.0133372 -3.38813e-21 0.000960432 4.00231e-05 -4.57644e-05 -4.56404e-07
-0.0132973 -4.51751e-21 0.00155434 0.00641407 -0.00766762 -0.000188358
0.0132973 4.51751e-21 0.00155458 3.92189e-05 -4.59478e-05 8.02908e-07
-0.0132406 3.38813e-21 0.00216285 0 0 0
0.0132406 3.38813e-21 0.00216285 0 0 0
-0.0132805 3.38813e-21 0.00206436 0.00249666 -0.0028714 -7.91989e-05
0.0132806 -3.38813e-21 0.00206428 1.40358e-05 -1.53121e-05 3.71848e-07
0.0133175 2.71051e-20 0.00219404 0 0 0
-0.0133175 2.71051e-20 0.00219405 0 0 0
-0.0133831 0 0.00186926 0.00633187 -0.00739955 -0.000191543
0.0133831 0 0.00186938 3.65235e-05 -4.08147e-05 8.96913e-07
-0.0135632 2.03288e-20 9.24943e-08 0 0 0
0.0135632 -1.35525e-20 9.24941e-08 0 0 0
-0.0134965 4.51751e-21 0.00146628 0.0105824 -0.0121868 -0.000314367
0.0134965 0 0.00146652 6.44844e-05 -7.2751e-05 1.61405e-06
-0.0136117 -6.77626e-21 8.70578e-05 0.00165684 -0.00191798 -5.6234e-05
0.0136117 6.77626e-21 8.70948e-05 1.81682e-07 -1.11229e-07 -1.06031e-07
-0.0136152 0 8.46271e-08 0 0 0
0.0136152 -1.35525e-20 8.46272e-08 0 0 0
-0.0136416 0 8.06399e-08 0 0 0
0.0136416 1.35525e-20 8.06405e-08 0 0 0
-0.0136355 4.06576e-21 0.000679005 0.0100866 -0.0119446 9.23279e-05
0.0136355 -2.93638e-21 0.00067928 4.12855e-05 -4.78513e-05 -2.06214e-07
0.0134812 0 0.00226051 0 0 0
-0.0134812 1.35525e-20 0.00226053 0 0 0
-0.0136197 2.07052e-21 0.00119016 0.0128018 -0.015256 -1.57481e-05
0.0136197 -1.50584e-21 0.00119046 7.27395e-05 -8.44272e-05 2.20571e-07
-0.0136061 1.50584e-21 0.00162993 0.0115812 -0.0138443 -0.000276427
0.0136061 -4.51751e-21 0.00163012 6.99473e-05 -8.12285e-05 1.03691e-06
0.0137235 -6.77626e-21 7.39517e-08 0 0 0
-0.0137235 1.35525e-20 7.39504e-08 0 0 0
0.0137252 0 9.16503e-05 2.01483e-07 -2.06539e-07 -1.35833e-08
-0.0137252 0 9.16307e-05 0.00218961 -0.002635 3.1467e-05
-0.0137102 2.25875e-22 0.00202489 0.0085228 -0.0108041 -9.17168e-05
0.0137103 0 0.00202497 5.40137e-05 -6.40063e-05 1.08704e-06
-0.0136752 -6.77626e-21 0.00233929 0 0 0
0.0136753 6.77626e-21 0.00233932 0 0 0
-0.0137679 0 0.00237695 0 0 0
0.013768 0 0.00237697 0 0 0
0.0139849 1.35525e-20 0.000399215 1.40647e-05 -1.64115e-05 9.73324e-08
-0.0139849 -2.71051e-20 0.000399115 0.00852523 -0.0102596 6.09521e-05
-0.0139861 4.51751e-21 0.00091313 0.015546 -0.0190033 7.66106e-05
0.0139861 4.51751e-21 0.000913297 7.87357e-05 -9.21639e-05 5.77676e-07
-0.0139546 -4.51751e-21 0.00150392 0.0166407 -0.0204816 -1.07871e-05
0.0139546 -1.35525e-20 0.00150406 0.000100793 -0.000117995 5.07451e-07
-0.0140935 -1.35525e-20 0.000126399 0.00302246 -0.00363727 4.34359e-05
0.0140935 -1.35525e-20 0.000126419 2.78106e-07 -2.85085e-07 -1.87489e-08
-0.0141016 -2.71051e-20 1.51491e-08 0 0 0
0.0141016 -2.71051e-20 1.51471e-08 0 0 0
-0.013961 -8.47033e-22 0.00245528 0 0 0
0.0139612 -3.38813e-21 0.00245534 0 0 0
-0.0141702 0 0.000612168 0.0129281 -0.0153661 7.74175e-05
0.0141702 2.71051e-20 0.000612269 4.8296e-05 -5.6112e-05 1.36111e-07
-0.0139759 0 0.00246133 0 0 0
0.0139761 -8.47033e-22 0.00246136 0 0 0
-0.0139804 -8.47033e-22 0.00244924 0.000477912 -0.000584173 1.23542e-06
0.0139805 -2.5411e-21 0.00244934 3.24331e-06 -3.53168e-06 4.5546e-08
-0.0141583 0 0.00121281 0.018476 -0.0222385 4.90974e-05
0.0141583 0 0.00121293 0.00010667 -0.00012418 5.55626e-07
-0.0142138 0 6.98128e-09 0 0 0
0.0142138 1.35525e-20 6.9805e-09 0 0 0
-0.0141062 -2.71051e-20 0.00185466 0.0146081 -0.0177647 -2.32962e-05
0.0141063 0 0.00185473 9.41065e-05 -0.000109925 8.83863e-07
-0.0140936 -2.25875e-21 0.00222221 0.00910869 -0.0111869 1.60634e-05
0.0140937 0 0.00222227 6.19758e-05 -6.89703e-05 8.72255e-07
0.0143442 2.71051e-20 6.46171e-09 0 0 0
-0.0143442 -1.35525e-20 6.46231e-09 0 0 0
-0.0141439 6.77626e-21 0.00239274 0.0047007 -0.00574588 1.21515e-05
0.014144 0 0.0023928 3.20585e-05 -3.49089e-05 4.502e-07
0.014345 0 0.000135094 3.01324e-07 -2.94964e-07 -2.96431e-08
-0.014345 1.35525e-20 0.000135094 0.00412693 -0.00480118 7.25107e-06
-0.0141783 1.35525e-20 0.00254352 0 0 0
0.0141784 0 0.00254356 0 0 0
0.0144148 2.71051e-21 0.000393106 1.33014e-05 -1.54258e-05 -4.9271e-09
-0.0144148 -8.13152e-21 0.000393046 0.00997742 -0.0117297 4.42782e-05
-0.0142931 -6.77626e-21 0.00252723 0.00232408 -0.00290214 5.80928e-05
0.0142932 -6.77626e-21 0.00252727 1.54916e-05 -1.8646e-05 -3.49264e-08
-0.0142857 6.77626e-21 0.00258704 0 0 0
0.0142858 0 0.00258706 0 0 0
-0.0145008 4.51751e-21 0.000915437 0.0202662 -0.0240683 6.62915e-05
0.0145009 -1.12938e-20 0.000915525 0.000104185 -0.000120096 4.53777e-07
-0.0143708 1.69407e-21 0.00229753 0.010052 -0.0124748 0.000140247
0.0143709 0 0.00229758 7.06675e-05 -8.30858e-05 6.6257e-07
-0.0144716 -9.03502e-21 0.00154756 0.0226358 -0.0271221 0.000163715
0.0144716 0 0.00154763 0.000141641 -0.00016387 8.69035e-07
-0.0144657 4.51751e-21 0.00205594 0.0161782 -0.0197854 0.000226132
0.0144658 1.807e-20 0.002056 0.000111755 -0.000130574 8.3615e-07
-0.0146705 -2.71051e-20 0.000150455 0.0045962 -0.00534712 8.07559e-06
0.0146705 0 0.000150466 3.35612e-07 -3.28528e-07 -3.30162e-08
-0.01468 0 6.30408e-09 0 0 0
0.01468 0 6.30387e-09 0 0 0
-0.0144708 2.71051e-20 0.00266196 0 0 0
0.014471 0 0.00266201 0 0 0
-0.0145058 5.42101e-21 0.00250608 0.00612742 -0.00775702 0.000132767
0.0145059 -1.35525e-20 0.00250612 4.26277e-05 -5.20812e-05 1.90896e-07
0.0148234 -1.35525e-20 5.71489e-09 0 0 0
-0.0148234 -2.71051e-20 5.71495e-09 0 0 0
-0.0148746 4.51751e-21 0.000558343 0.0160247 -0.0188613 3.88931e-05
0.0148746 2.25875e-21 0.000558392 5.57803e-05 -6.35495e-05 1.63551e-07
-0.0147687 0 0.00191044 0.021644 -0.0260658 0.000167636
0.0147687 -2.71051e-20 0.00191049 0.000148111 -0.000169969 1.15476e-06
-0.0146404 0 0.00273067 0 0 0
0.0146406 2.71051e-20 0.00273071 0 0 0
-0.0148827 1.16165e-20 0.0011685 0.0256954 -0.03048 9.10596e-05
0.0148828 0 0.00116856 0.00014676 -0.000167633 7.75979e-07
0.0149747 1.35525e-20 4.96058e-09 0 0 0
-0.0149747 0 4.96059e-09 0 0 0
0.0149752 -1.35525e-20 0.000142276 3.50587e-07 -3.1721e-07 -3.19124e-08
-0.0149752 1.35525e-20 0.000142271 0.00500824 -0.00581547 4.09071e-06
-0.0148162 9.03502e-21 0.00236391 0.0144698 -0.0175487 0.000202802
0.0148163 2.25875e-21 0.00236395 0.000103273 -0.000117944 8.80322e-07
-0.0150223 -4.51751e-21 0.00156468 0.0278402 -0.0331134 0.000145836
0.0150223 9.03502e-21 0.00156474 0.000182537 -0.000208479 1.43768e-06
-0.0151425 -2.71051e-20 0.000304852 0.0103875 -0.0120488 1.26617e-05
0.0151425 2.71051e-20 0.000304883 7.25872e-07 -6.64973e-07 -6.13544e-08
-0.014892 -6.77626e-21 0.00283336 0 0 0
0.0148921 6.77626e-21 0.0028334 0 0 0
-0.0151422 0 0.000920375 0.0266755 -0.031375 4.74761e-05
0.0151422 2.71051e-20 0.000920434 0.00014198 -0.000161332 4.82346e-07
-0.015042 1.6263e-20 0.00210477 0.0234789 -0.0281724 0.000241925
0.0150421 1.0842e-20 0.00210482 0.000164537 -0.000187538 1.10575e-06
-0.0150532 9.03502e-21 0.00270351 0.00751505 -0.00891154 0.000144069
0.0150534 0 0.00270357 5.80492e-05 -6.27243e-05 1.06749e-06
-0.0150254 -2.03288e-20 0.00288744 0 0 0
0.0150256 3.38813e-20 0.00288752 0 0 0
-0.0153086 1.35525e-20 2.24178e-09 0 0 0
0.0153086 0 2.24177e-09 0 0 0
-0.0153122 0 0.000140816 0.00495711 -0.0057561 4.04895e-06
0.0153122 -1.35525e-20 0.000140822 3.47012e-07 -3.13975e-07 -3.15869e-08
0.0154577 0 1.48792e-09 0 0 0
-0.0154577 0 1.48787e-09 0 0 0
-0.0154655 -4.51751e-21 0.00060398 0.0197727 -0.0231473 2.24033e-05
0.0154655 -9.03502e-21 0.000604018 7.71242e-05 -8.65662e-05 1.50994e-07
-0.0154631 2.25875e-21 0.00123926 0.0310549 -0.0366126 4.27648e-05
0.0154631 1.35525e-20 0.00123931 0.000191067 -0.000215285 1.0321e-06
-0.0152765 0 0.0029899 0 0 0
0.0152766 -2.71051e-20 0.00298996 0 0 0
-0.0154691 -2.25875e-21 0.00188066 0.0304034 -0.036106 9.1284e-05
0.0154691 -4.51751e-21 0.00188071 0.000215732 -0.00024334 1.75352e-06
0.0156043 -1.35525e-20 1.30288e-09 0 0 0
-0.0156043 0 1.30283e-09 0 0 0
0.0156046 1.35525e-20 0.000132291 3.70322e-07 -2.99044e-07 -2.17605e-08
-0.0156046 -1.35525e-20 0.000132288 0.00516616 -0.00600675 2.03683e-05
-0.0153943 1.35525e-20 0.00303866 0 0 0
0.0153944 0 0.00303871 0 0 0
-0.0154266 -1.35525e-20 0.00293734 0.00468961 -0.00559616 -3.93084e-06
0.0154267 1.35525e-20 0.00293741 3.98934e-05 -4.14205e-05 1.04394e-06
-0.0155042 2.63521e-21 0.00256117 0.0175691 -0.0210619 7.45995e-05
0.0155043 -3.76459e-21 0.00256122 0.000137148 -0.000153283 1.99154e-06
0.0157872 2.71051e-20 0.000299894 8.08357e-07 -6.66e-07 -3.87902e-08
-0.0157872 2.71051e-20 0.000299869 0.0114353 -0.0132483 3.35102e-05
-0.0157972 2.71051e-20 0.000914956 0.0311365 -0.0365576 -4.69755e-06
0.0157972 2.71051e-20 0.000915008 0.000169186 -0.000188306 2.23939e-07
-0.015799 0 0.00156064 0.0362859 -0.0427898 -4.35352e-05
0.015799 -2.71051e-20 0.00156069 0.000253675 -0.000283821 1.74264e-06
-0.0156185 -6.77626e-21 0.00313206 0 0 0
0.0156185 6.77626e-21 0.00313207 0 0 0
-0.0158092 2.71051e-20 0.00221249 0.0312797 -0.0372296 -2.18128e-05
0.0158093 0 0.00221254 0.000239943 -0.000268496 2.48994e-06
-0.0159653 -2.71051e-20 5.84434e-10 0 0 0
0.0159653 2.71051e-20 5.84428e-10 0 0 0
-0.0159712 0 0.000124936 0.00487909 -0.00567297 1.92365e-05
0.0159712 0 0.000124938 3.49741e-07 -2.82424e-07 -2.05511e-08
-0.015693 0 0.00316295 0 0 0
0.0156931 0 0.00316301 0 0 0
-0.0157206 1.35525e-20 0.0031026 0.00267332 -0.00342557 4.19868e-05
0.0157208 0 0.00310257 2.46655e-05 -2.9391e-05 6.19682e-07
-0.0158002 4.51751e-21 0.00293364 0.0102421 -0.0127179 6.01027e-05
0.0158003 -3.01167e-21 0.0029337 9.27808e-05 -0.000106712 2.35696e-06
-0.0157817 0 0.00319963 0 0 0
0.015782 0 0.00319974 0 0 0
0.0161034 -1.35525e-20 4.04844e-10 0 0 0
-0.0161034 -1.35525e-20 4.04848e-10 0 0 0
-0.016119 -4.51751e-21 0.000594151 0.0221417 -0.0259432 -1.73577e-05
0.016119 0 0.000594174 8.91443e-05 -9.80559e-05 2.74808e-08
-0.01613 4.51751e-21 0.00122518 0.0357317 -0.0420417 -0.000150153
0.01613 2.25875e-21 0.00122521 0.000228638 -0.00025275 1.12447e-06
0.0162343 -1.35525e-20 3.59814e-10 0 0 0
-0.0162343 -2.71051e-20 3.59814e-10 0 0 0
0.0162345 -1.35525e-20 0.000113277 3.64292e-07 -2.58851e-07 -2.61963e-08
-0.0162345 -1.35525e-20 0.000113279 0.00479375 -0.0056188 2.9078e-05
-0.0161354 9.03502e-21 0.00188647 0.0363508 -0.0429657 -0.000230666
0.0161355 -4.51751e-21 0.00188651 0.000276564 -0.000306445 3.09914e-06
-0.0161281 2.25875e-21 0.00255569 0.0247827 -0.0294714 -0.00021952
0.0161282 0 0.00255574 0.000211567 -0.000234473 4.19103e-06
-0.015998 1.35525e-20 0.0032882 0 0 0
0.0159982 2.71051e-20 0.00328826 0 0 0
-0.0160357 0 0.00323052 0.00317645 -0.00366591 -0.000102764
0.0160358 0 0.00323061 2.74586e-05 -2.97736e-05 9.804e-07
-0.016091 -1.35525e-20 0.00332623 0 0 0
0.0160912 1.35525e-20 0.00332628 0 0 0
0.0164377 -2.71051e-20 0.000292336 8.9876e-07 -6.56288e-07 -4.82008e-08
-0.0164377 -5.42101e-20 0.000292322 0.0121356 -0.014134 5.55792e-05
0.0164553 0 0.000897692 0.000191233 -0.000208714 -2.80181e-08
-0.0164553 5.42101e-20 0.00089766 0.0345572 -0.0406613 -0.000152803
-0.0162072 3.61401e-21 0.00298944 0.0142562 -0.0169488 -0.000196942
0.0162073 0 0.00298952 0.000129743 -0.000143276 3.76555e-06
-0.016466 2.71051e-20 0.00154116 0.0412041 -0.0484605 -0.000401738
0.016466 0 0.00154119 0.000303159 -0.000333104 2.58903e-06
-0.016253 -1.35525e-20 0.00328154 0.00490149 -0.00567135 -0.000125506
0.016253 -1.35525e-20 0.00328162 4.58732e-05 -5.00397e-05 1.62786e-06
-0.0162529 1.35525e-20 0.00339231 0 0 0
0.016253 -1.35525e-20 0.00339232 0 0 0
-0.0164659 0 0.00220933 0.0369609 -0.0437652 -0.000454383
0.016466 2.71051e-20 0.00220938 0.000311643 -0.000342665 5.52588e-06
-0.0166389 0 1.04271e-10 0 0 0
0.0166389 1.35525e-20 1.04262e-10 0 0 0
-0.0166447 0 0.000100566 0.00425578 -0.00498824 2.58148e-05
0.0166447 1.35525e-20 0.000100563 3.23405e-07 -2.29798e-07 -2.32561e-08
-0.0165069 0 0.00278852 0.023991 -0.0282628 -0.000443142
0.016507 2.71051e-20 0.00278859 0.000224586 -0.000247268 6.44231e-06
0.0167551 0 6.18359e-11 0 0 0
-0.0167551 0 6.18413e-11 0 0 0
-0.0167741 4.51751e-21 0.000577078 0.0237355 -0.027978 -9.61457e-05
0.0167741 2.25875e-21 0.000577088 9.83725e-05 -0.000106884 3.14296e-07
-0.0164731 0 0.00325216 0.00997168 -0.0116708 -0.000222962
0.0164733 0 0.00325224 9.12197e-05 -9.98899e-05 3.22606e-06
-0.0167929 -1.12938e-21 0.00119995 0.0392786 -0.0463215 -0.000439982
0.0167929 2.25875e-21 0.00119996 0.000260291 -0.000284319 2.06826e-06
-0.0164937 0 0.00349064 0 0 0
0.016494 1.35525e-20 0.00349077 0 0 0
0.0168627 -1.35525e-20 5.62475e-11 0 0 0
-0.0168627 -1.35525e-20 5.62517e-11 0 0 0
0.0168631 1.35525e-20 9.00315e-05 3.0293e-07 -2.13868e-07 -8.0831e-08
-0.0168631 -1.35525e-20 9.00368e-05 0.00396122 -0.00478074 4.59326e-05
-0.0167974 1.12938e-21 0.0018671 0.0412073 -0.0486861 -0.000725449
0.0167974 -5.64689e-21 0.00186712 0.000334915 -0.000366305 5.08925e-06
-0.016565 1.35525e-20 0.00339846 0.00536658 -0.00620949 -0.000137415
0.0165653 2.71051e-20 0.00339864 5.02236e-05 -5.47852e-05 1.78224e-06
-0.0168042 -3.38813e-21 0.00251849 0.0329846 -0.0388149 -0.000812014
0.0168043 -1.12938e-21 0.00251854 0.000303343 -0.000331636 7.34144e-06
-0.0166661 2.71051e-20 0.00356101 0 0 0
0.0166663 2.71051e-20 0.00356109 0 0 0
-0.0167843 -5.64689e-21 0.00309016 0.0186946 -0.021745 -0.000557393
0.0167844 -2.25875e-21 0.00309022 0.000182742 -0.000199712 5.96865e-06
0.0170872 2.71051e-20 0.000280474 9.17916e-07 -6.48573e-07 -1.70993e-07
-0.0170872 -2.71051e-20 0.000280467 0.0122562 -0.0145513 9.54364e-05
0.0171094 -2.71051e-20 0.000869698 0.000206445 -0.000224042 1.50347e-06
-0.0171094 0 0.000869686 0.0367317 -0.043449 -0.000377516
-0.017124 0 0.00151088 0.0448222 -0.0529444 -0.000830926
0.017124 2.71051e-20 0.0015109 0.000342824 -0.000374077 4.24489e-06
-0.016855 -6.77626e-21 0.00363794 0 0 0
0.016855 -1.35525e-20 0.00363795 0 0 0
-0.0171219 -2.71051e-20 0.00218641 0.042014 -0.0497737 -0.00121462
0.0171219 -2.71051e-20 0.00218644 0.000383127 -0.000416496 7.95178e-06
-0.0173128 0 1.50015e-11 0 0 0
0.0173128 1.35525e-20 1.49999e-11 0 0 0
-0.017316 0 7.61108e-05 0.00334854 -0.00404131 3.88283e-05
0.017316 0 7.61049e-05 2.56071e-07 -1.80786e-07 -6.83276e-08
-0.016994 4.51751e-21 0.00347025 0.00904334 -0.0103944 -0.000310621
0.0169942 -9.03502e-21 0.00347044 9.41014e-05 -0.000102269 3.76216e-06
-0.0169523 6.77626e-21 0.00367759 0 0 0
0.0169528 1.35525e-20 0.00367779 0 0 0
-0.0171196 -2.71051e-20 0.00284364 0.0301186 -0.0348073 -0.00118547
0.0171197 -2.71051e-20 0.00284371 0.000304782 -0.000331612 9.56075e-06
0.0174041 1.35525e-20 1.00263e-11 0 0 0
-0.0174041 1.35525e-20 1.00267e-11 0 0 0
0.0174225 0 0.000552277 0.000103008 -0.000109928 1.65474e-07
-0.0174225 0 0.000552274 0.0243278 -0.028998 -0.000186385
-0.0174465 -2.25875e-21 0.00116234 0.0414605 -0.0492213 -0.000775342
0.0174465 -2.25875e-21 0.00116235 0.000285098 -0.000307701 2.52512e-06
0.0174883 0 9.27523e-12 0 0 0
-0.0174883 0 9.27554e-12 0 0 0
0.0174886 1.35525e-20 6.91564e-05 2.08065e-07 -8.85335e-08 -3.11867e-08
-0.0174886 0 6.91614e-05 0.00304547 -0.00387368 8.61062e-05
-0.0174525 2.25875e-21 0.00183359 0.0452074 -0.0536455 -0.00138014
0.0174525 1.12938e-21 0.0018336 0.000390398 -0.000422985 7.50853e-06
-0.0171558 -4.06576e-20 0.00376044 0 0 0
0.0171561 0 0.00376058 0 0 0
-0.0174398 2.25875e-21 0.00252756 0.0383733 -0.0449034 -0.00172782
0.0174399 5.64689e-21 0.0025276 0.000380461 -0.000411627 1.11632e-05
-0.0172703 0 0.00381189 0 0 0
0.0172706 1.35525e-20 0.003812 0 0 0
-0.0173099 -1.35525e-20 0.00368922 0.00605672 -0.00673 -0.000487444
0.0173101 0 0.00368943 6.92788e-05 -6.99266e-05 4.0899e-06
-0.0174177 -7.52918e-22 0.0032729 0.0207556 -0.0236867 -0.00119487
0.0174179 -1.12938e-21 0.00327297 0.000226321 -0.000243747 9.30987e-06
0.0177262 0 0.000264495 8.751e-07 -4.41393e-07 -5.15719e-08
-0.0177263 -2.71051e-20 0.000264494 0.0117567 -0.0144636 0.000179831
0.017753 -2.71051e-20 0.000830849 0.000210366 -0.000221642 -6.15225e-07
-0.017753 0 0.000830841 0.0373614 -0.0444873 -0.000627865
-0.0177739 0 0.00146634 0.0471243 -0.0562166 -0.00126652
0.0177739 2.71051e-20 0.00146635 0.000383432 -0.000413861 5.01861e-06
-0.0174674 0 0.00388874 0 0 0
0.0174675 -6.77626e-21 0.0038888 0 0 0
-0.0177697 0 0.00215829 0.0468608 -0.0556467 -0.00219063
0.0177697 2.71051e-20 0.0021583 0.000451507 -0.000486706 1.26548e-05
-0.0175192 6.77626e-21 0.0039114 0 0 0
0.0175194 0 0.00391155 0 0 0
-0.0175515 0 0.00385282 0.00282748 -0.00334499 -0.000121477
0.0175519 0 0.00385278 3.55154e-05 -4.01444e-05 1.80557e-06
-0.0177417 0 0.00287714 0.0353302 -0.0404021 -0.00236991
0.0177418 -2.71051e-20 0.0028772 0.00039001 -0.000419732 1.45933e-05
0.017981 -6.77626e-21 1.39444e-12 0 0 0
-0.017981 -6.77626e-21 1.3943e-12 0 0 0
0.0179821 0 5.25103e-05 1.57983e-07 -6.72233e-08 -2.368e-08
-0.0179821 -6.77626e-21 5.25107e-05 0.00231227 -0.00294109 6.53761e-05
-0.0175795 2.03288e-20 0.00394118 0 0 0
0.01758 -1.35525e-20 0.00394143 0 0 0
-0.0176602 6.02335e-21 0.00367713 0.0119762 -0.0138021 -0.000738096
0.0176605 0 0.00367727 0.000146569 -0.000161425 7.74834e-06
0.0180463 0 7.99282e-13 0 0 0
-0.0180463 -6.77626e-21 7.99057e-13 0 0 0
0.0180587 1.12938e-21 0.000513287 9.87141e-05 -0.000106191 9.09635e-07
-0.0180587 0 0.000513287 0.0233654 -0.0282679 -0.000308295
0.0181036 0 4.49211e-05 3.20496e-07 -6.69371e-08 2.80683e-07
-0.0181036 0 4.4918e-05 0.00206902 -0.00275501 8.26486e-05
0.0181054 0 7.64381e-13 0 0 0
-0.0181054 6.77626e-21 7.64199e-13 0 0 0
0.0181063 -9.03502e-22 0.00109871 0.000294279 -0.000316206 3.95832e-06
-0.0181063 9.03502e-22 0.00109871 0.0417329 -0.050144 -0.00111204
-0.0181013 0 0.00178214 0.0484438 -0.0579774 -0.00204655
0.0181014 1.69407e-21 0.00178215 0.000438314 -0.000469795 9.91905e-06
-0.0180751 0 0.002514 0.0434656 -0.0508057 -0.00284994
0.0180751 -3.38813e-21 0.00251403 0.000460532 -0.00049262 1.54684e-05
-0.0177928 1.35525e-20 0.00406344 0 0 0
0.0177931 1.35525e-20 0.00406363 0 0 0
-0.0178461 1.35525e-20 0.00400264 0.00388731 -0.00419751 -0.000413644
0.0178465 0 0.00400286 4.28718e-05 -4.55578e-05 2.71157e-06
-0.018018 4.51751e-21 0.00326638 0.0280134 -0.0313745 -0.00250104
0.0180181 2.25875e-21 0.00326648 0.000327668 -0.000348502 1.54252e-05
0.0183484 0 0.000235241 1.40197e-06 -5.97694e-07 7.64881e-07
-0.0183484 0 0.000235238 0.010727 -0.0136218 9.18083e-05
-0.0178962 0 0.00412302 0 0 0
0.0178965 0 0.00412318 0 0 0
0.0183932 -2.71051e-20 0.000764488 0.000192376 -0.000212842 3.55869e-06
-0.0183932 0 0.000764489 0.0348591 -0.0419741 -0.000872265
-0.0180569 -2.03288e-21 0.00374603 0.0169952 -0.0184228 -0.00175523
0.0180571 -1.807e-21 0.00374614 0.000199408 -0.000210662 1.1821e-05
-0.0184338 -2.71051e-20 0.00138083 0.0484016 -0.0587253 -0.00165947
0.0184338 0 0.00138083 0.00039935 -0.00042579 7.78815e-06
-0.0184038 5.42101e-20 0.00212475 0.0513423 -0.061309 -0.00305379
0.0184038 -2.71051e-20 0.00212477 0.000517276 -0.000551003 1.4212e-05
-0.0185327 3.38813e-21 3.11486e-13 0 0 0
0.0185329 -3.38813e-21 3.11329e-13 0 0 0
-0.0180751 -1.35525e-20 0.00422612 0 0 0
0.0180753 -1.35525e-20 0.00422622 0 0 0
-0.0183783 -2.71051e-20 0.00286013 0.0408073 -0.046495 -0.00379422
0.0183783 0 0.00286017 0.000486362 -0.000516244 2.027e-05
0.0186585 3.95282e-21 0.000460868 8.42983e-05 -9.14992e-05 1.13591e-06
-0.0186585 -3.95282e-21 0.000460863 0.0218709 -0.0268935 -0.000676895
-0.0181758 0 0.00428412 0 0 0
0.0181761 0 0.00428433 0 0 0
-0.0182334 -4.51751e-21 0.00409678 0.00861421 -0.00894467 -0.001107
0.0182336 4.51751e-21 0.00409694 9.80845e-05 -0.000103226 6.8678e-06
-0.0183787 0 0.00352164 0.028692 -0.030828 -0.00325378
0.0183789 0 0.00352172 0.00034124 -0.000358164 1.97336e-05
-0.018738 0 2.24787e-13 0 0 0
0.018738 0 2.24588e-13 0 0 0
-0.0187383 3.38813e-21 1.8583e-05 0.000835804 -0.000990023 -2.91456e-05
0.0187383 0 1.85606e-05 8.11509e-08 -7.35085e-08 -1.48102e-08
-0.0187394 0 0.000144294 0.00669678 -0.00820966 -0.000214214
0.0187394 0 0.000144153 2.26183e-05 -2.46208e-05 2.93807e-07
-0.0187637 0 5.2385e-14 0 0 0
0.0187638 0 5.23963e-14 0 0 0
0.018782 3.38813e-21 1.5237e-05 -1.82218e-08 -1.07485e-07 -1.09581e-07
-0.018782 -3.38813e-21 1.52548e-05 0.000692165 -0.000807326 -5.24229e-05
0.0187834 -3.38813e-21 4.17921e-14 0 0 0
-0.0187835 -6.77626e-21 4.17719e-14 0 0 0
0.0187414 5.64689e-23 0.00174786 0.000477426 -0.000506439 1.33761e-05
-0.0187414 0 0.00174787 0.0500577 -0.0606075 -0.00261088
0.0188423 3.38813e-21 3.05852e-14 0 0 0
-0.0188424 -3.38813e-21 3.05567e-14 0 0 0
-0.0188306 4.51751e-21 0.000951028 0.0368314 -0.0451752 -0.00133299
0.0188306 -9.03502e-21 0.000951028 0.00025376 -0.000272743 4.84328e-06
-0.0183689 -2.71051e-20 0.00439542 0 0 0
0.0183691 -2.71051e-20 0.00439559 0 0 0
-0.0187534 -4.03349e-23 0.00244424 0.0474738 -0.0558263 -0.00381678
0.0187534 -3.22679e-22 0.00244427 0.000528591 -0.000557288 2.01137e-05
-0.0186869 0 0.00320185 0.0382323 -0.0424895 -0.00426675
0.018687 0 0.00320189 0.000459947 -0.000482926 2.36552e-05
-0.0184805 1.35525e-20 0.00445982 0 0 0
0.0184807 0 0.00445997 0 0 0
-0.0185301 -1.35525e-20 0.00433158 0.00695904 -0.00712645 -0.00120104
0.0185303 1.35525e-20 0.00433174 7.58969e-05 -7.55171e-05 6.72331e-06
-0.0186603 -3.76459e-22 0.00393311 0.0216377 -0.022778 -0.00290884
0.0186605 -1.12938e-21 0.0039332 0.000252818 -0.000263253 1.71431e-05
0.0191245 0 0.000340867 1.38945e-05 -1.63832e-05 4.69153e-06
-0.0191245 -1.12938e-21 0.000340856 0.0176754 -0.0224064 -0.000919947
0.0192203 -1.35525e-20 9.46707e-15 0 0 0
-0.0192204 1.35525e-20 9.45324e-15 0 0 0
-0.0191646 0 0.00146339 0.0497944 -0.0618954 -0.00234917
0.0191646 0 0.00146338 0.000475166 -0.000503609 1.33879e-05
-0.0190143 0 0.00283781 0.0465091 -0.0534516 -0.00500098
0.0190144 2.71051e-20 0.00283783 0.000571718 -0.000598 2.6161e-05
-0.0186819 0 0.00457601 0 0 0
0.0186821 0 0.00457612 0 0 0
-0.0187038 0 0.00458864 0 0 0
0.018704 1.69407e-21 0.00458877 0 0 0
-0.01916 -2.71051e-20 0.00195783 0.0530018 -0.0647813 -0.00343667
0.01916 -5.42101e-20 0.00195783 0.000557435 -0.000583024 2.04132e-05
-0.0187217 0 0.00456119 0.00143256 -0.00154377 -0.00018083
0.0187219 0 0.00456127 1.81263e-05 -1.96063e-05 1.37933e-06
-0.0187284 1.01644e-20 0.00460285 0 0 0
0.0187286 1.01644e-20 0.00460299 0 0 0
-0.0189854 2.71051e-20 0.00354614 0.0378807 -0.0403957 -0.00511863
0.0189855 -2.71051e-20 0.00354618 0.000453068 -0.000472557 2.87719e-05
-0.0188773 -7.52918e-21 0.00434122 0.0136087 -0.0142805 -0.00198807
0.0188775 4.51751e-21 0.00434132 0.000163101 -0.00017266 1.2769e-05
-0.0193797 0 0.000837434 0.032095 -0.0402864 -0.00148068
0.0193798 0 0.000837383 0.00021322 -0.000225549 4.6002e-06
-0.0193834 2.11758e-21 0.00085584 0.0325707 -0.0408717 -0.00149662
0.0193835 2.11758e-21 0.000855835 0.000220484 -0.000233182 4.56286e-06
-0.0194038 -1.27055e-21 0.000856716 0.0326042 -0.0409434 -0.00149699
0.0194039 -1.27055e-21 0.000856714 0.000221608 -0.000234267 4.57701e-06
0.0194237 0 1.54975e-15 0 0 0
-0.0194238 -1.35525e-20 1.53986e-15 0 0 0
-0.0193729 0 0.00169001 0.0516038 -0.0640357 -0.00292184
0.0193729 0 0.00169001 0.000522505 -0.000546492 1.67508e-05
-0.0193777 -7.05861e-22 0.00244586 0.0512072 -0.0610444 -0.00470194
0.0193778 -1.41172e-22 0.00244587 0.000600876 -0.000622929 2.59069e-05
-0.0189667 1.35525e-20 0.0047403 0 0 0
0.0189668 -1.35525e-20 0.00474041 0 0 0
-0.0193197 -3.38813e-21 0.00318402 0.0454696 -0.0509577 -0.00565836
0.0193198 1.12938e-21 0.00318404 0.000559341 -0.000579025 3.03607e-05
-0.0190326 1.35525e-20 0.0046715 0.00516856 -0.00497901 -0.00100703
0.0190327 0 0.00467159 5.16407e-05 -5.36833e-05 4.33007e-06
-0.0195819 0 0.00142153 0.0497423 -0.062898 -0.0025061
0.019582 2.71051e-20 0.00142152 0.000486219 -0.000506135 1.28272e-05
-0.019255 2.25875e-21 0.00392942 0.0323897 -0.0338163 -0.00483905
0.019255 0 0.00392947 0.000377071 -0.000387194 2.60539e-05
-0.019653 0 3.99218e-16 0 0 0
0.019653 2.03288e-20 4.03295e-16 0 0 0
-0.0195685 0 0.00193727 0.0540765 -0.0671344 -0.00349784
0.0195685 -2.71051e-20 0.00193726 0.000587934 -0.000609046 2.17959e-05
-0.0190798 2.71051e-20 0.00480552 0 0 0
0.0190799 0 0.00480561 0 0 0
-0.0197213 0 0.000269929 0.0124537 -0.01624 -0.000558872
0.0197213 2.25875e-21 0.000269962 7.4415e-06 -9.23677e-06 2.61387e-08
-0.0192752 2.25875e-21 0.00441197 0.0208729 -0.0206145 -0.0035557
0.0192754 -1.807e-21 0.00441204 0.000224208 -0.000227916 1.80761e-05
0.0198342 0 4.71809e-16 0 0 0
-0.0198343 3.38813e-21 4.68214e-16 0 0 0
-0.0192473 0 0.00490218 0 0 0
0.0192474 -6.77626e-21 0.00490225 0 0 0
-0.0196698 -2.71051e-20 0.00278692 0.0519182 -0.0610423 -0.00587303
0.0196698 -2.71051e-20 0.00278693 0.000653223 -0.000671954 3.11635e-05
-0.0196163 2.71051e-20 0.00353247 0.045879 -0.0494431 -0.00664361
0.0196163 2.71051e-20 0.0035325 0.000563276 -0.000577585 3.52159e-05
-0.019321 -3.38813e-20 0.00494469 0 0 0
0.0193211 -6.77626e-21 0.00494477 0 0 0
-0.0194215 -4.51751e-21 0.00475386 0.012146 -0.0109481 -0.00243697
0.0194216 -1.35525e-20 0.00475393 0.000116285 -0.000117297 1.01282e-05
-0.0200351 0 -3.29861e-17 0 0 0
0.0200352 0 -3.30812e-17 0 0 0
-0.0200397 8.47033e-22 0.000879744 0.0317297 -0.0409916 -0.00137409
0.0200398 -8.47033e-22 0.000879732 0.000249241 -0.000259529 4.78213e-06
-0.0196209 0 0.00418606 0.0362678 -0.0361319 -0.00594089
0.0196209 2.71051e-20 0.0041861 0.000387439 -0.000391398 2.91982e-05
-0.0200081 0 0.00168408 0.0517443 -0.0655678 -0.0029686
0.0200082 -2.82344e-22 0.00168407 0.00055542 -0.000569662 1.6637e-05
-0.0200926 0 6.73549e-05 0.0031658 -0.00387238 -5.40649e-05
0.0200928 0 6.74599e-05 6.02951e-07 -7.77341e-07 -2.84887e-07
-0.0200965 0 -7.17225e-19 0 0 0
0.0200967 0 -7.66423e-19 0 0 0
-0.0201334 0 8.63193e-18 0 0 0
0.0201336 1.35525e-20 8.60253e-18 0 0 0
-0.019508 -1.35525e-20 0.00505259 0 0 0
0.0195081 -2.71051e-20 0.00505265 0 0 0
-0.0200346 1.12938e-21 0.00229471 0.0533839 -0.0652648 -0.00476035
0.0200346 -2.25875e-21 0.0022947 0.000643429 -0.000656385 2.79767e-05
-0.0199605 -2.03288e-21 0.00311687 0.0516153 -0.0593296 -0.00633191
0.0199605 -2.03288e-21 0.00311687 0.000647891 -0.000658914 3.75036e-05
-0.0202249 0 6.9338e-05 0.0035106 -0.00474361 -6.01279e-05
0.0202254 1.35525e-20 6.9446e-05 2.61301e-05 -2.67337e-05 1.06457e-06
-0.0202304 0 -1.76858e-17 0 0 0
0.0202308 0 -1.76992e-17 0 0 0
-0.0199313 -1.12938e-21 0.0038555 0.0454807 -0.0476444 -0.00693129
0.0199314 1.12938e-21 0.00385553 0.000529918 -0.000534056 4.01614e-05
-0.0196734 -1.35525e-20 0.00514806 0 0 0
0.0196735 2.03288e-20 0.00514812 0 0 0
-0.0198941 3.61401e-21 0.00456699 0.0300433 -0.0286082 -0.0053732
0.0198942 2.71051e-21 0.00456703 0.000297948 -0.000292807 2.72908e-05
-0.0197657 6.77626e-21 0.00520128 0 0 0
0.0197658 -1.35525e-20 0.00520135 0 0 0
-0.0198217 0 0.00501122 0.0134691 -0.011947 -0.00282912
0.0198218 0 0.00501128 0.000107636 -0.000102542 1.09541e-05
-0.0202896 -2.71051e-20 0.00277321 0.0554941 -0.0669044 -0.00593386
0.0202896 0 0.00277322 0.000712649 -0.000719914 3.7783e-05
-0.0202612 -2.71051e-20 0.00349053 0.0525221 -0.0578192 -0.00742026
0.0202612 2.71051e-20 0.00349054 0.000662537 -0.00066594 4.885e-05
-0.0199064 0 0.00528243 0 0 0
0.0199065 0 0.0052825 0 0 0
-0.020245 0 0.0041794 0.048009 -0.0481746 -0.00781341
0.0202451 2.71051e-20 0.00417943 0.000518853 -0.000513856 4.8116e-05
-0.0206572 0 0.00171988 0.0514966 -0.0670336 -0.00296059
0.0206573 5.42101e-20 0.00171988 0.000605834 -0.000607369 1.65453e-05
-0.0201293 -1.50584e-21 0.00498603 0.0237844 -0.0210413 -0.00475693
0.0201293 -1.50584e-21 0.00498607 0.000203774 -0.000193775 2.02083e-05
-0.0200531 0 0.00536707 0 0 0
0.0200531 -6.77626e-21 0.00536711 0 0 0
0.0206314 7.05861e-23 0.00242248 0.000706407 -0.000702538 3.70825e-05
-0.0206314 1.41172e-22 0.0024225 0.0550412 -0.0679007 -0.00515879
-0.0207755 -5.42101e-20 0.00051497 0.0260971 -0.0364126 -0.000299788
0.0207756 0 0.000514975 0.000205897 -0.000226131 2.75884e-06
-0.0205987 0 0.00311579 0.0554206 -0.064797 -0.00639266
0.0205987 5.64689e-22 0.00311579 0.000719231 -0.000713069 4.82651e-05
-0.0203104 -2.71051e-20 0.00476269 0.0368662 -0.0338349 -0.00680755
0.0203105 -2.71051e-20 0.00476272 0.000335057 -0.000322006 3.26862e-05
-0.0201708 1.35525e-20 0.00543499 0 0 0
0.0201709 2.71051e-20 0.00543504 0 0 0
-0.0202176 -9.03502e-21 0.00527687 0.0110323 -0.0091411 -0.00231001