# Moment      
# CofR        : (0.000000e+00 0.000000e+00 0.000000e+00)
#
# Time        	(total_x total_y total_z)	(pressure_x pressure_y pressure_z)	(viscous_x viscous_y viscous_z)
1             	(2.600071e+02 -1.597616e+01 6.368074e+01)	(2.600076e+02 -1.597748e+01 6.369257e+01)	(-5.023247e-04 1.320300e-03 -1.183180e-02)
2             	(2.601015e+02 -1.601076e+01 6.413173e+01)	(2.601020e+02 -1.601203e+01 6.414099e+01)	(-5.081696e-04 1.268451e-03 -9.262366e-03)
3             	(2.603160e+02 -1.608663e+01 6.519420e+01)	(2.603165e+02 -1.608780e+01 6.520117e+01)	(-5.356121e-04 1.163445e-03 -6.969943e-03)
4             	(2.606342e+02 -1.615407e+01 6.646950e+01)	(2.606345e+02 -1.615510e+01 6.647526e+01)	(-3.050669e-04 1.020869e-03 -5.766349e-03)
5             	(2.609921e+02 -1.618246e+01 6.761884e+01)	(2.609920e+02 -1.618331e+01 6.762406e+01)	(1.212020e-04 8.557904e-04 -5.221025e-03)
6             	(2.611737e+02 -1.620466e+01 6.826219e+01)	(2.611731e+02 -1.620535e+01 6.826738e+01)	(5.188762e-04 6.884894e-04 -5.187119e-03)
7             	(2.611689e+02 -1.621443e+01 6.834593e+01)	(2.611681e+02 -1.621501e+01 6.835136e+01)	(8.160821e-04 5.714789e-04 -5.433901e-03)
8             	(2.610477e+02 -1.621392e+01 6.808753e+01)	(2.610467e+02 -1.621441e+01 6.809321e+01)	(9.883746e-04 4.941071e-04 -5.685753e-03)
9             	(2.608509e+02 -1.620868e+01 6.761362e+01)	(2.608499e+02 -1.620914e+01 6.761941e+01)	(1.002084e-03 4.667731e-04 -5.791030e-03)
10            	(2.606509e+02 -1.619925e+01 6.710109e+01)	(2.606501e+02 -1.619974e+01 6.710677e+01)	(8.450106e-04 4.847367e-04 -5.672781e-03)
11            	(2.605119e+02 -1.618860e+01 6.671978e+01)	(2.605113e+02 -1.618912e+01 6.672510e+01)	(6.064687e-04 5.138013e-04 -5.320386e-03)
12            	(2.604520e+02 -1.618004e+01 6.652572e+01)	(2.604517e+02 -1.618057e+01 6.653055e+01)	(3.595352e-04 5.255441e-04 -4.829859e-03)
13            	(2.604622e+02 -1.617613e+01 6.650931e+01)	(2.604620e+02 -1.617665e+01 6.651366e+01)	(1.966130e-04 5.217084e-04 -4.349917e-03)
14            	(2.605141e+02 -1.617630e+01 6.660077e+01)	(2.605140e+02 -1.617680e+01 6.660473e+01)	(1.202115e-04 5.031295e-04 -3.964038e-03)
15            	(2.605911e+02 -1.617962e+01 6.676100e+01)	(2.605910e+02 -1.618010e+01 6.676471e+01)	(1.389006e-04 4.743761e-04 -3.711905e-03)
16            	(2.606697e+02 -1.618441e+01 6.693246e+01)	(2.606695e+02 -1.618484e+01 6.693604e+01)	(2.350681e-04 4.396671e-04 -3.582475e-03)
17            	(2.607253e+02 -1.618888e+01 6.705935e+01)	(2.607250e+02 -1.618928e+01 6.706289e+01)	(3.689649e-04 4.057135e-04 -3.534616e-03)
18            	(2.607528e+02 -1.619169e+01 6.712914e+01)	(2.607523e+02 -1.619207e+01 6.713268e+01)	(5.077738e-04 3.790690e-04 -3.533614e-03)
19            	(2.607511e+02 -1.619247e+01 6.713872e+01)	(2.607504e+02 -1.619283e+01 6.714226e+01)	(6.180525e-04 3.612010e-04 -3.544280e-03)
20            	(2.607341e+02 -1.619146e+01 6.711377e+01)	(2.607334e+02 -1.619181e+01 6.711731e+01)	(6.919270e-04 3.522340e-04 -3.539483e-03)
21            	(2.607076e+02 -1.618958e+01 6.706749e+01)	(2.607069e+02 -1.618993e+01 6.707099e+01)	(7.253690e-04 3.504726e-04 -3.500579e-03)
22            	(2.606748e+02 -1.618747e+01 6.701182e+01)	(2.606741e+02 -1.618782e+01 6.701525e+01)	(7.178593e-04 3.530335e-04 -3.429187e-03)
23            	(2.606475e+02 -1.618574e+01 6.696651e+01)	(2.606468e+02 -1.618609e+01 6.696985e+01)	(6.856544e-04 3.551455e-04 -3.332805e-03)
24            	(2.606300e+02 -1.618473e+01 6.693828e+01)	(2.606293e+02 -1.618508e+01 6.694151e+01)	(6.441682e-04 3.542387e-04 -3.224853e-03)
25            	(2.606230e+02 -1.618437e+01 6.692828e+01)	(2.606224e+02 -1.618472e+01 6.693139e+01)	(6.052661e-04 3.490371e-04 -3.117111e-03)
26            	(2.606241e+02 -1.618483e+01 6.693149e+01)	(2.606235e+02 -1.618517e+01 6.693451e+01)	(5.771882e-04 3.401028e-04 -3.020516e-03)
27            	(2.606312e+02 -1.618566e+01 6.694317e+01)	(2.606306e+02 -1.618599e+01 6.694611e+01)	(5.629384e-04 3.285999e-04 -2.940567e-03)
28            	(2.606404e+02 -1.618665e+01 6.695842e+01)	(2.606399e+02 -1.618697e+01 6.696130e+01)	(5.643674e-04 3.160758e-04 -2.879908e-03)
29            	(2.606493e+02 -1.618748e+01 6.697295e+01)	(2.606487e+02 -1.618779e+01 6.697579e+01)	(5.802747e-04 3.041808e-04 -2.835818e-03)
30            	(2.606563e+02 -1.618801e+01 6.698325e+01)	(2.606557e+02 -1.618830e+01 6.698605e+01)	(6.054554e-04 2.939322e-04 -2.802562e-03)
31            	(2.606603e+02 -1.618822e+01 6.698857e+01)	(2.606597e+02 -1.618851e+01 6.699134e+01)	(6.352193e-04 2.857782e-04 -2.775587e-03)
32            	(2.606615e+02 -1.618819e+01 6.698985e+01)	(2.606609e+02 -1.618847e+01 6.699260e+01)	(6.657487e-04 2.794919e-04 -2.750346e-03)
33            	(2.606599e+02 -1.618808e+01 6.698829e+01)	(2.606592e+02 -1.618835e+01 6.699102e+01)	(6.936208e-04 2.742820e-04 -2.724241e-03)
34            	(2.606589e+02 -1.618780e+01 6.698587e+01)	(2.606582e+02 -1.618807e+01 6.698856e+01)	(7.186267e-04 2.703216e-04 -2.696108e-03)
35            	(2.606565e+02 -1.618760e+01 6.698364e+01)	(2.606558e+02 -1.618787e+01 6.698630e+01)	(7.409319e-04 2.661763e-04 -2.664272e-03)
36            	(2.606546e+02 -1.618749e+01 6.698024e+01)	(2.606539e+02 -1.618775e+01 6.698287e+01)	(7.566703e-04 2.623603e-04 -2.630997e-03)
37            	(2.606532e+02 -1.618745e+01 6.697803e+01)	(2.606525e+02 -1.618771e+01 6.698062e+01)	(7.670688e-04 2.582158e-04 -2.595351e-03)
38            	(2.606536e+02 -1.618745e+01 6.697796e+01)	(2.606528e+02 -1.618770e+01 6.698052e+01)	(7.753655e-04 2.535137e-04 -2.558148e-03)
39            	(2.606537e+02 -1.618753e+01 6.697796e+01)	(2.606529e+02 -1.618777e+01 6.698048e+01)	(7.809477e-04 2.483756e-04 -2.520971e-03)
40            	(2.606532e+02 -1.618771e+01 6.697747e+01)	(2.606524e+02 -1.618795e+01 6.697995e+01)	(7.840337e-04 2.430937e-04 -2.485894e-03)
41            	(2.606529e+02 -1.618791e+01 6.697712e+01)	(2.606521e+02 -1.618815e+01 6.697958e+01)	(7.861233e-04 2.378042e-04 -2.453353e-03)
42            	(2.606529e+02 -1.618810e+01 6.697694e+01)	(2.606521e+02 -1.618833e+01 6.697936e+01)	(7.884398e-04 2.325787e-04 -2.422843e-03)
43            	(2.606529e+02 -1.618826e+01 6.697688e+01)	(2.606522e+02 -1.618849e+01 6.697927e+01)	(7.919520e-04 2.275456e-04 -2.393943e-03)
44            	(2.606531e+02 -1.618840e+01 6.697688e+01)	(2.606523e+02 -1.618862e+01 6.697924e+01)	(7.971989e-04 2.227431e-04 -2.366469e-03)
45            	(2.606532e+02 -1.618852e+01 6.697689e+01)	(2.606524e+02 -1.618874e+01 6.697923e+01)	(8.044015e-04 2.181237e-04 -2.340338e-03)
46            	(2.606534e+02 -1.618862e+01 6.697696e+01)	(2.606526e+02 -1.618884e+01 6.697928e+01)	(8.137173e-04 2.135340e-04 -2.315009e-03)
47            	(2.606536e+02 -1.618871e+01 6.697714e+01)	(2.606527e+02 -1.618892e+01 6.697943e+01)	(8.250104e-04 2.089947e-04 -2.290030e-03)
48            	(2.606538e+02 -1.618878e+01 6.697741e+01)	(2.606529e+02 -1.618898e+01 6.697967e+01)	(8.379129e-04 2.046063e-04 -2.265341e-03)
49            	(2.606540e+02 -1.618882e+01 6.697775e+01)	(2.606531e+02 -1.618902e+01 6.697999e+01)	(8.520252e-04 2.004300e-04 -2.241029e-03)
50            	(2.606542e+02 -1.618884e+01 6.697813e+01)	(2.606533e+02 -1.618904e+01 6.698035e+01)	(8.668291e-04 1.965371e-04 -2.217396e-03)
51            	(2.606543e+02 -1.618885e+01 6.697849e+01)	(2.606534e+02 -1.618904e+01 6.698068e+01)	(8.818837e-04 1.929856e-04 -2.194670e-03)
52            	(2.606544e+02 -1.618885e+01 6.697880e+01)	(2.606536e+02 -1.618904e+01 6.698097e+01)	(8.968662e-04 1.897618e-04 -2.172952e-03)
53            	(2.606545e+02 -1.618885e+01 6.697906e+01)	(2.606536e+02 -1.618903e+01 6.698121e+01)	(9.114960e-04 1.868450e-04 -2.152296e-03)
54            	(2.606546e+02 -1.618885e+01 6.697926e+01)	(2.606537e+02 -1.618903e+01 6.698140e+01)	(9.256182e-04 1.841892e-04 -2.132718e-03)
55            	(2.606546e+02 -1.618885e+01 6.697942e+01)	(2.606537e+02 -1.618903e+01 6.698154e+01)	(9.391264e-04 1.817280e-04 -2.114219e-03)
56            	(2.606546e+02 -1.618887e+01 6.697954e+01)	(2.606537e+02 -1.618905e+01 6.698163e+01)	(9.520111e-04 1.794158e-04 -2.096748e-03)
57            	(2.606546e+02 -1.618889e+01 6.697961e+01)	(2.606536e+02 -1.618907e+01 6.698169e+01)	(9.642709e-04 1.771929e-04 -2.080161e-03)
58            	(2.606545e+02 -1.618894e+01 6.697965e+01)	(2.606535e+02 -1.618911e+01 6.698172e+01)	(9.758692e-04 1.749633e-04 -2.064240e-03)
59            	(2.606545e+02 -1.618900e+01 6.697965e+01)	(2.606535e+02 -1.618917e+01 6.698170e+01)	(9.867975e-04 1.726873e-04 -2.048764e-03)
60            	(2.606544e+02 -1.618907e+01 6.697960e+01)	(2.606534e+02 -1.618924e+01 6.698163e+01)	(9.969277e-04 1.703575e-04 -2.033653e-03)
61            	(2.606543e+02 -1.618916e+01 6.697950e+01)	(2.606533e+02 -1.618933e+01 6.698152e+01)	(1.006194e-03 1.679771e-04 -2.018848e-03)
62            	(2.606542e+02 -1.618928e+01 6.697933e+01)	(2.606532e+02 -1.618945e+01 6.698133e+01)	(1.014552e-03 1.654302e-04 -2.004433e-03)
63            	(2.606544e+02 -1.618958e+01 6.697870e+01)	(2.606534e+02 -1.618974e+01 6.698069e+01)	(1.020664e-03 1.625462e-04 -1.990555e-03)
64            	(2.606551e+02 -1.618967e+01 6.697885e+01)	(2.606540e+02 -1.618983e+01 6.698083e+01)	(1.026755e-03 1.595123e-04 -1.976490e-03)
65            	(2.606557e+02 -1.618977e+01 6.697896e+01)	(2.606547e+02 -1.618993e+01 6.698092e+01)	(1.032615e-03 1.564320e-04 -1.962773e-03)
66            	(2.606565e+02 -1.619002e+01 6.697856e+01)	(2.606554e+02 -1.619017e+01 6.698051e+01)	(1.037755e-03 1.534697e-04 -1.950383e-03)
67            	(2.606571e+02 -1.619007e+01 6.697868e+01)	(2.606560e+02 -1.619023e+01 6.698061e+01)	(1.043033e-03 1.506995e-04 -1.938185e-03)
68            	(2.606576e+02 -1.619013e+01 6.697875e+01)	(2.606565e+02 -1.619028e+01 6.698068e+01)	(1.048778e-03 1.482335e-04 -1.926918e-03)
69            	(2.606577e+02 -1.619017e+01 6.697869e+01)	(2.606567e+02 -1.619031e+01 6.698061e+01)	(1.054695e-03 1.460825e-04 -1.916709e-03)
70            	(2.606597e+02 -1.619025e+01 6.697945e+01)	(2.606586e+02 -1.619039e+01 6.698135e+01)	(1.061596e-03 1.442683e-04 -1.906603e-03)
71            	(2.606598e+02 -1.619027e+01 6.697940e+01)	(2.606587e+02 -1.619041e+01 6.698130e+01)	(1.067827e-03 1.426662e-04 -1.897503e-03)
72            	(2.606599e+02 -1.619028e+01 6.697939e+01)	(2.606589e+02 -1.619042e+01 6.698128e+01)	(1.074057e-03 1.412961e-04 -1.889379e-03)
73            	(2.606601e+02 -1.619027e+01 6.697941e+01)	(2.606590e+02 -1.619041e+01 6.698130e+01)	(1.079842e-03 1.400866e-04 -1.881874e-03)
74            	(2.606605e+02 -1.619024e+01 6.697960e+01)	(2.606594e+02 -1.619038e+01 6.698148e+01)	(1.085372e-03 1.392533e-04 -1.875078e-03)
75            	(2.606607e+02 -1.619023e+01 6.697968e+01)	(2.606596e+02 -1.619037e+01 6.698155e+01)	(1.090025e-03 1.384790e-04 -1.868479e-03)
76            	(2.606609e+02 -1.619021e+01 6.697978e+01)	(2.606598e+02 -1.619035e+01 6.698164e+01)	(1.094534e-03 1.378266e-04 -1.862237e-03)
77            	(2.606611e+02 -1.619020e+01 6.697991e+01)	(2.606600e+02 -1.619034e+01 6.698177e+01)	(1.098412e-03 1.373034e-04 -1.856322e-03)
78            	(2.606613e+02 -1.619019e+01 6.698006e+01)	(2.606602e+02 -1.619033e+01 6.698191e+01)	(1.101676e-03 1.369133e-04 -1.850722e-03)
79            	(2.606617e+02 -1.619016e+01 6.698041e+01)	(2.606606e+02 -1.619029e+01 6.698225e+01)	(1.104325e-03 1.368095e-04 -1.845404e-03)
80            	(2.606618e+02 -1.619016e+01 6.698052e+01)	(2.606607e+02 -1.619030e+01 6.698236e+01)	(1.106271e-03 1.367140e-04 -1.840214e-03)
81            	(2.606620e+02 -1.619017e+01 6.698062e+01)	(2.606608e+02 -1.619030e+01 6.698245e+01)	(1.108422e-03 1.366227e-04 -1.835237e-03)
82            	(2.606618e+02 -1.619017e+01 6.698073e+01)	(2.606606e+02 -1.619031e+01 6.698256e+01)	(1.109868e-03 1.367056e-04 -1.830752e-03)
83            	(2.606618e+02 -1.619019e+01 6.698078e+01)	(2.606607e+02 -1.619032e+01 6.698260e+01)	(1.110413e-03 1.367111e-04 -1.826223e-03)
84            	(2.606618e+02 -1.619021e+01 6.698080e+01)	(2.606607e+02 -1.619035e+01 6.698262e+01)	(1.111278e-03 1.367060e-04 -1.821779e-03)
85            	(2.606619e+02 -1.619023e+01 6.698081e+01)	(2.606608e+02 -1.619037e+01 6.698263e+01)	(1.111478e-03 1.367287e-04 -1.817552e-03)
86            	(2.606614e+02 -1.619025e+01 6.698062e+01)	(2.606603e+02 -1.619039e+01 6.698243e+01)	(1.110926e-03 1.369789e-04 -1.814051e-03)
87            	(2.606614e+02 -1.619027e+01 6.698060e+01)	(2.606603e+02 -1.619041e+01 6.698242e+01)	(1.109538e-03 1.372352e-04 -1.810492e-03)
88            	(2.606614e+02 -1.619029e+01 6.698058e+01)	(2.606603e+02 -1.619043e+01 6.698239e+01)	(1.108840e-03 1.374909e-04 -1.807028e-03)
89            	(2.606614e+02 -1.619031e+01 6.698056e+01)	(2.606603e+02 -1.619045e+01 6.698236e+01)	(1.107652e-03 1.377857e-04 -1.803800e-03)
90            	(2.606615e+02 -1.619032e+01 6.698053e+01)	(2.606604e+02 -1.619046e+01 6.698233e+01)	(1.105984e-03 1.381439e-04 -1.800823e-03)
91            	(2.606615e+02 -1.619033e+01 6.698049e+01)	(2.606604e+02 -1.619047e+01 6.698229e+01)	(1.103858e-03 1.385708e-04 -1.798097e-03)
92            	(2.606615e+02 -1.619034e+01 6.698046e+01)	(2.606604e+02 -1.619048e+01 6.698226e+01)	(1.101358e-03 1.390768e-04 -1.795606e-03)
93            	(2.606616e+02 -1.619035e+01 6.698044e+01)	(2.606605e+02 -1.619049e+01 6.698223e+01)	(1.098588e-03 1.396620e-04 -1.793348e-03)
94            	(2.606616e+02 -1.619035e+01 6.698042e+01)	(2.606605e+02 -1.619050e+01 6.698221e+01)	(1.095581e-03 1.403206e-04 -1.791339e-03)
95            	(2.606617e+02 -1.619036e+01 6.698042e+01)	(2.606606e+02 -1.619050e+01 6.698221e+01)	(1.092397e-03 1.410496e-04 -1.789584e-03)
96            	(2.606617e+02 -1.619036e+01 6.698043e+01)	(2.606607e+02 -1.619051e+01 6.698222e+01)	(1.089164e-03 1.418522e-04 -1.788084e-03)
97            	(2.606618e+02 -1.619037e+01 6.698046e+01)	(2.606607e+02 -1.619051e+01 6.698224e+01)	(1.085946e-03 1.427109e-04 -1.786791e-03)
98            	(2.606618e+02 -1.619037e+01 6.698050e+01)	(2.606608e+02 -1.619051e+01 6.698229e+01)	(1.082748e-03 1.435968e-04 -1.785699e-03)
99            	(2.606619e+02 -1.619037e+01 6.698056e+01)	(2.606608e+02 -1.619051e+01 6.698234e+01)	(1.079609e-03 1.444875e-04 -1.784791e-03)
100           	(2.606619e+02 -1.619037e+01 6.698063e+01)	(2.606608e+02 -1.619051e+01 6.698241e+01)	(1.076579e-03 1.453698e-04 -1.784056e-03)
101           	(2.606619e+02 -1.619037e+01 6.698070e+01)	(2.606609e+02 -1.619051e+01 6.698249e+01)	(1.073689e-03 1.462342e-04 -1.783461e-03)
102           	(2.606619e+02 -1.619036e+01 6.698079e+01)	(2.606609e+02 -1.619051e+01 6.698257e+01)	(1.070985e-03 1.470759e-04 -1.782995e-03)
103           	(2.606620e+02 -1.619036e+01 6.698088e+01)	(2.606609e+02 -1.619050e+01 6.698266e+01)	(1.068521e-03 1.478847e-04 -1.782601e-03)
104           	(2.606620e+02 -1.619035e+01 6.698096e+01)	(2.606609e+02 -1.619050e+01 6.698274e+01)	(1.066315e-03 1.486490e-04 -1.782281e-03)
105           	(2.606619e+02 -1.619034e+01 6.698103e+01)	(2.606609e+02 -1.619049e+01 6.698281e+01)	(1.064389e-03 1.493635e-04 -1.782000e-03)
106           	(2.606619e+02 -1.619033e+01 6.698109e+01)	(2.606609e+02 -1.619048e+01 6.698287e+01)	(1.062761e-03 1.500216e-04 -1.781708e-03)
107           	(2.606619e+02 -1.619032e+01 6.698114e+01)	(2.606609e+02 -1.619047e+01 6.698293e+01)	(1.061437e-03 1.506192e-04 -1.781367e-03)
108           	(2.606620e+02 -1.619030e+01 6.698127e+01)	(2.606609e+02 -1.619045e+01 6.698305e+01)	(1.060409e-03 1.511364e-04 -1.780860e-03)
109           	(2.606621e+02 -1.619029e+01 6.698137e+01)	(2.606610e+02 -1.619044e+01 6.698315e+01)	(1.059658e-03 1.515769e-04 -1.780215e-03)
110           	(2.606621e+02 -1.619027e+01 6.698145e+01)	(2.606611e+02 -1.619042e+01 6.698323e+01)	(1.059173e-03 1.519427e-04 -1.779469e-03)
111           	(2.606621e+02 -1.619025e+01 6.698145e+01)	(2.606610e+02 -1.619040e+01 6.698323e+01)	(1.058945e-03 1.522475e-04 -1.778705e-03)
112           	(2.606620e+02 -1.619023e+01 6.698145e+01)	(2.606609e+02 -1.619038e+01 6.698322e+01)	(1.058954e-03 1.524808e-04 -1.777857e-03)
113           	(2.606620e+02 -1.619020e+01 6.698149e+01)	(2.606609e+02 -1.619036e+01 6.698327e+01)	(1.059162e-03 1.526200e-04 -1.776767e-03)
114           	(2.606619e+02 -1.619018e+01 6.698146e+01)	(2.606608e+02 -1.619033e+01 6.698323e+01)	(1.059549e-03 1.526842e-04 -1.775571e-03)
115           	(2.606617e+02 -1.619015e+01 6.698142e+01)	(2.606607e+02 -1.619030e+01 6.698319e+01)	(1.060100e-03 1.526566e-04 -1.774189e-03)
116           	(2.606615e+02 -1.619012e+01 6.698136e+01)	(2.606605e+02 -1.619027e+01 6.698313e+01)	(1.060784e-03 1.525381e-04 -1.772620e-03)
117           	(2.606614e+02 -1.619009e+01 6.698128e+01)	(2.606603e+02 -1.619024e+01 6.698305e+01)	(1.061539e-03 1.523258e-04 -1.770878e-03)
118           	(2.606612e+02 -1.619006e+01 6.698119e+01)	(2.606601e+02 -1.619021e+01 6.698296e+01)	(1.062317e-03 1.520208e-04 -1.768994e-03)
119           	(2.606610e+02 -1.619003e+01 6.698109e+01)	(2.606600e+02 -1.619018e+01 6.698285e+01)	(1.063050e-03 1.516234e-04 -1.766975e-03)
120           	(2.606608e+02 -1.619001e+01 6.698096e+01)	(2.606598e+02 -1.619016e+01 6.698273e+01)	(1.063694e-03 1.511326e-04 -1.764839e-03)
121           	(2.606606e+02 -1.618999e+01 6.698083e+01)	(2.606596e+02 -1.619014e+01 6.698259e+01)	(1.064208e-03 1.505496e-04 -1.762597e-03)
122           	(2.606604e+02 -1.618997e+01 6.698068e+01)	(2.606593e+02 -1.619012e+01 6.698244e+01)	(1.064537e-03 1.498705e-04 -1.760258e-03)
123           	(2.606602e+02 -1.618996e+01 6.698052e+01)	(2.606591e+02 -1.619011e+01 6.698228e+01)	(1.064656e-03 1.491017e-04 -1.757849e-03)
124           	(2.606600e+02 -1.618995e+01 6.698035e+01)	(2.606589e+02 -1.619010e+01 6.698211e+01)	(1.064557e-03 1.482535e-04 -1.755399e-03)
125           	(2.606597e+02 -1.618995e+01 6.698018e+01)	(2.606587e+02 -1.619009e+01 6.698193e+01)	(1.064206e-03 1.473361e-04 -1.752948e-03)
126           	(2.606595e+02 -1.618995e+01 6.697999e+01)	(2.606584e+02 -1.619009e+01 6.698174e+01)	(1.063567e-03 1.463627e-04 -1.750542e-03)
127           	(2.606593e+02 -1.618995e+01 6.697981e+01)	(2.606582e+02 -1.619010e+01 6.698156e+01)	(1.062667e-03 1.453575e-04 -1.748175e-03)
128           	(2.606590e+02 -1.618996e+01 6.697963e+01)	(2.606579e+02 -1.619010e+01 6.698137e+01)	(1.061452e-03 1.443372e-04 -1.745899e-03)
129           	(2.606588e+02 -1.618996e+01 6.697944e+01)	(2.606577e+02 -1.619011e+01 6.698118e+01)	(1.059922e-03 1.433201e-04 -1.743708e-03)
130           	(2.606584e+02 -1.618998e+01 6.697919e+01)	(2.606574e+02 -1.619012e+01 6.698093e+01)	(1.058038e-03 1.423381e-04 -1.741782e-03)
131           	(2.606582e+02 -1.618998e+01 6.697900e+01)	(2.606571e+02 -1.619012e+01 6.698074e+01)	(1.055833e-03 1.413902e-04 -1.739911e-03)
132           	(2.606579e+02 -1.618999e+01 6.697882e+01)	(2.606569e+02 -1.619013e+01 6.698055e+01)	(1.053304e-03 1.404901e-04 -1.738155e-03)
133           	(2.606577e+02 -1.618999e+01 6.697863e+01)	(2.606566e+02 -1.619013e+01 6.698037e+01)	(1.050422e-03 1.396529e-04 -1.736529e-03)
134           	(2.606574e+02 -1.618998e+01 6.697844e+01)	(2.606564e+02 -1.619012e+01 6.698018e+01)	(1.047146e-03 1.388822e-04 -1.735073e-03)
135           	(2.606572e+02 -1.618998e+01 6.697826e+01)	(2.606561e+02 -1.619012e+01 6.697999e+01)	(1.043453e-03 1.381823e-04 -1.733818e-03)
136           	(2.606569e+02 -1.618997e+01 6.697809e+01)	(2.606559e+02 -1.619011e+01 6.697982e+01)	(1.039354e-03 1.375562e-04 -1.732783e-03)
137           	(2.606567e+02 -1.618996e+01 6.697792e+01)	(2.606556e+02 -1.619009e+01 6.697965e+01)	(1.034855e-03 1.369960e-04 -1.731970e-03)
138           	(2.606564e+02 -1.618994e+01 6.697775e+01)	(2.606554e+02 -1.619008e+01 6.697948e+01)	(1.029982e-03 1.364863e-04 -1.731366e-03)
139           	(2.606562e+02 -1.618992e+01 6.697759e+01)	(2.606552e+02 -1.619005e+01 6.697932e+01)	(1.024768e-03 1.360276e-04 -1.730978e-03)
140           	(2.606557e+02 -1.618989e+01 6.697724e+01)	(2.606546e+02 -1.619002e+01 6.697898e+01)	(1.019195e-03 1.356556e-04 -1.731064e-03)
141           	(2.606555e+02 -1.618985e+01 6.697711e+01)	(2.606544e+02 -1.618999e+01 6.697884e+01)	(1.013509e-03 1.353229e-04 -1.731186e-03)
142           	(2.606553e+02 -1.618982e+01 6.697699e+01)	(2.606543e+02 -1.618995e+01 6.697872e+01)	(1.007838e-03 1.350272e-04 -1.731423e-03)
143           	(2.606551e+02 -1.618978e+01 6.697687e+01)	(2.606541e+02 -1.618991e+01 6.697860e+01)	(1.002157e-03 1.347669e-04 -1.731799e-03)
144           	(2.606549e+02 -1.618973e+01 6.697676e+01)	(2.606539e+02 -1.618987e+01 6.697850e+01)	(9.965210e-04 1.345446e-04 -1.732318e-03)
145           	(2.606544e+02 -1.618968e+01 6.697651e+01)	(2.606534e+02 -1.618981e+01 6.697824e+01)	(9.908744e-04 1.343963e-04 -1.733190e-03)
146           	(2.606542e+02 -1.618963e+01 6.697643e+01)	(2.606532e+02 -1.618977e+01 6.697816e+01)	(9.853899e-04 1.342826e-04 -1.734027e-03)
147           	(2.606540e+02 -1.618958e+01 6.697636e+01)	(2.606530e+02 -1.618972e+01 6.697809e+01)	(9.802022e-04 1.342141e-04 -1.734881e-03)
148           	(2.606538e+02 -1.618953e+01 6.697631e+01)	(2.606528e+02 -1.618966e+01 6.697804e+01)	(9.752685e-04 1.341973e-04 -1.735723e-03)
149           	(2.606536e+02 -1.618947e+01 6.697627e+01)	(2.606527e+02 -1.618961e+01 6.697800e+01)	(9.706080e-04 1.342320e-04 -1.736538e-03)
150           	(2.606534e+02 -1.618942e+01 6.697624e+01)	(2.606525e+02 -1.618955e+01 6.697798e+01)	(9.662180e-04 1.343163e-04 -1.737291e-03)
151           	(2.606531e+02 -1.618935e+01 6.697613e+01)	(2.606521e+02 -1.618949e+01 6.697787e+01)	(9.620681e-04 1.344644e-04 -1.738114e-03)
152           	(2.606529e+02 -1.618929e+01 6.697614e+01)	(2.606519e+02 -1.618942e+01 6.697788e+01)	(9.581627e-04 1.346405e-04 -1.738710e-03)
153           	(2.606527e+02 -1.618922e+01 6.697618e+01)	(2.606517e+02 -1.618935e+01 6.697792e+01)	(9.545265e-04 1.348361e-04 -1.739106e-03)
154           	(2.606525e+02 -1.618915e+01 6.697624e+01)	(2.606516e+02 -1.618928e+01 6.697798e+01)	(9.511419e-04 1.350517e-04 -1.739275e-03)
155           	(2.606523e+02 -1.618908e+01 6.697632e+01)	(2.606514e+02 -1.618921e+01 6.697806e+01)	(9.480229e-04 1.352861e-04 -1.739208e-03)
156           	(2.606522e+02 -1.618900e+01 6.697642e+01)	(2.606512e+02 -1.618914e+01 6.697816e+01)	(9.451653e-04 1.355354e-04 -1.738869e-03)
157           	(2.606520e+02 -1.618893e+01 6.697654e+01)	(2.606510e+02 -1.618907e+01 6.697828e+01)	(9.425639e-04 1.357974e-04 -1.738235e-03)
158           	(2.606518e+02 -1.618886e+01 6.697667e+01)	(2.606509e+02 -1.618899e+01 6.697841e+01)	(9.402014e-04 1.360680e-04 -1.737275e-03)
159           	(2.606516e+02 -1.618878e+01 6.697681e+01)	(2.606507e+02 -1.618892e+01 6.697854e+01)	(9.380245e-04 1.363418e-04 -1.735988e-03)
160           	(2.606514e+02 -1.618871e+01 6.697695e+01)	(2.606505e+02 -1.618884e+01 6.697868e+01)	(9.360008e-04 1.366184e-04 -1.734372e-03)
161           	(2.606512e+02 -1.618863e+01 6.697709e+01)	(2.606503e+02 -1.618877e+01 6.697882e+01)	(9.341114e-04 1.368993e-04 -1.732445e-03)
162           	(2.606510e+02 -1.618855e+01 6.697723e+01)	(2.606501e+02 -1.618869e+01 6.697896e+01)	(9.323452e-04 1.371843e-04 -1.730232e-03)
163           	(2.606508e+02 -1.618848e+01 6.697736e+01)	(2.606499e+02 -1.618862e+01 6.697909e+01)	(9.306613e-04 1.374686e-04 -1.727783e-03)
164           	(2.606506e+02 -1.618840e+01 6.697749e+01)	(2.606496e+02 -1.618854e+01 6.697921e+01)	(9.290090e-04 1.377453e-04 -1.725142e-03)
165           	(2.606503e+02 -1.618833e+01 6.697761e+01)	(2.606494e+02 -1.618847e+01 6.697933e+01)	(9.273569e-04 1.380161e-04 -1.722359e-03)
166           	(2.606501e+02 -1.618826e+01 6.697771e+01)	(2.606492e+02 -1.618839e+01 6.697943e+01)	(9.256833e-04 1.382902e-04 -1.719539e-03)
167           	(2.606499e+02 -1.618818e+01 6.697779e+01)	(2.606489e+02 -1.618832e+01 6.697950e+01)	(9.239521e-04 1.385746e-04 -1.716767e-03)
168           	(2.606496e+02 -1.618811e+01 6.697784e+01)	(2.606487e+02 -1.618825e+01 6.697955e+01)	(9.221379e-04 1.388769e-04 -1.714111e-03)
169           	(2.606494e+02 -1.618804e+01 6.697787e+01)	(2.606485e+02 -1.618818e+01 6.697958e+01)	(9.202463e-04 1.392051e-04 -1.711618e-03)
170           	(2.606494e+02 -1.618797e+01 6.697798e+01)	(2.606485e+02 -1.618811e+01 6.697969e+01)	(9.183048e-04 1.395519e-04 -1.709133e-03)
171           	(2.606493e+02 -1.618789e+01 6.697806e+01)	(2.606484e+02 -1.618803e+01 6.697977e+01)	(9.163132e-04 1.399253e-04 -1.706705e-03)
172           	(2.606492e+02 -1.618783e+01 6.697810e+01)	(2.606483e+02 -1.618797e+01 6.697981e+01)	(9.142579e-04 1.403291e-04 -1.704407e-03)
173           	(2.606490e+02 -1.618776e+01 6.697804e+01)	(2.606481e+02 -1.618790e+01 6.697975e+01)	(9.121171e-04 1.407766e-04 -1.702380e-03)
174           	(2.606488e+02 -1.618769e+01 6.697797e+01)	(2.606479e+02 -1.618783e+01 6.697968e+01)	(9.098966e-04 1.412553e-04 -1.700543e-03)
175           	(2.606487e+02 -1.618762e+01 6.697789e+01)	(2.606478e+02 -1.618777e+01 6.697959e+01)	(9.075594e-04 1.417549e-04 -1.698802e-03)
176           	(2.606486e+02 -1.618755e+01 6.697787e+01)	(2.606477e+02 -1.618769e+01 6.697957e+01)	(9.051182e-04 1.422510e-04 -1.696925e-03)
177           	(2.606486e+02 -1.618747e+01 6.697783e+01)	(2.606477e+02 -1.618761e+01 6.697952e+01)	(9.025850e-04 1.427439e-04 -1.694991e-03)
178           	(2.606484e+02 -1.618740e+01 6.697769e+01)	(2.606475e+02 -1.618754e+01 6.697939e+01)	(8.999943e-04 1.432473e-04 -1.693198e-03)
179           	(2.606482e+02 -1.618732e+01 6.697755e+01)	(2.606473e+02 -1.618747e+01 6.697925e+01)	(8.973381e-04 1.437540e-04 -1.691536e-03)
180           	(2.606480e+02 -1.618724e+01 6.697742e+01)	(2.606472e+02 -1.618739e+01 6.697911e+01)	(8.946151e-04 1.442613e-04 -1.689966e-03)
181           	(2.606479e+02 -1.618716e+01 6.697727e+01)	(2.606470e+02 -1.618731e+01 6.697896e+01)	(8.918051e-04 1.447755e-04 -1.688488e-03)
182           	(2.606477e+02 -1.618708e+01 6.697713e+01)	(2.606468e+02 -1.618722e+01 6.697882e+01)	(8.888996e-04 1.452999e-04 -1.687116e-03)
183           	(2.606475e+02 -1.618699e+01 6.697698e+01)	(2.606466e+02 -1.618714e+01 6.697867e+01)	(8.858841e-04 1.458439e-04 -1.685867e-03)
184           	(2.606473e+02 -1.618691e+01 6.697683e+01)	(2.606464e+02 -1.618705e+01 6.697852e+01)	(8.827362e-04 1.464155e-04 -1.684735e-03)
185           	(2.606471e+02 -1.618682e+01 6.697668e+01)	(2.606463e+02 -1.618696e+01 6.697837e+01)	(8.794616e-04 1.470239e-04 -1.683705e-03)
186           	(2.606470e+02 -1.618673e+01 6.697653e+01)	(2.606461e+02 -1.618688e+01 6.697821e+01)	(8.760444e-04 1.476775e-04 -1.682773e-03)
187           	(2.606468e+02 -1.618664e+01 6.697637e+01)	(2.606459e+02 -1.618679e+01 6.697805e+01)	(8.724828e-04 1.483818e-04 -1.681933e-03)
188           	(2.606466e+02 -1.618655e+01 6.697621e+01)	(2.606457e+02 -1.618669e+01 6.697789e+01)	(8.687817e-04 1.491405e-04 -1.681180e-03)
189           	(2.606464e+02 -1.618645e+01 6.697604e+01)	(2.606455e+02 -1.618660e+01 6.697772e+01)	(8.649515e-04 1.499571e-04 -1.680510e-03)
190           	(2.606462e+02 -1.618636e+01 6.697587e+01)	(2.606453e+02 -1.618651e+01 6.697755e+01)	(8.609885e-04 1.508311e-04 -1.679913e-03)
191           	(2.606460e+02 -1.618626e+01 6.697570e+01)	(2.606451e+02 -1.618641e+01 6.697738e+01)	(8.568842e-04 1.517622e-04 -1.679398e-03)
192           	(2.606458e+02 -1.618616e+01 6.697552e+01)	(2.606449e+02 -1.618631e+01 6.697720e+01)	(8.526210e-04 1.527500e-04 -1.678962e-03)
193           	(2.606455e+02 -1.618605e+01 6.697534e+01)	(2.606447e+02 -1.618621e+01 6.697702e+01)	(8.481736e-04 1.537958e-04 -1.678593e-03)
194           	(2.606453e+02 -1.618594e+01 6.697517e+01)	(2.606444e+02 -1.618610e+01 6.697685e+01)	(8.435045e-04 1.549017e-04 -1.678264e-03)
195           	(2.606450e+02 -1.618583e+01 6.697500e+01)	(2.606442e+02 -1.618599e+01 6.697668e+01)	(8.385778e-04 1.560755e-04 -1.677939e-03)
196           	(2.606447e+02 -1.618572e+01 6.697483e+01)	(2.606439e+02 -1.618587e+01 6.697651e+01)	(8.333625e-04 1.573290e-04 -1.677572e-03)
197           	(2.606444e+02 -1.618560e+01 6.697462e+01)	(2.606436e+02 -1.618576e+01 6.697629e+01)	(8.278081e-04 1.586855e-04 -1.677196e-03)
198           	(2.606441e+02 -1.618547e+01 6.697446e+01)	(2.606433e+02 -1.618563e+01 6.697614e+01)	(8.219455e-04 1.601521e-04 -1.676653e-03)
199           	(2.606436e+02 -1.618534e+01 6.697418e+01)	(2.606428e+02 -1.618550e+01 6.697586e+01)	(8.157039e-04 1.617801e-04 -1.676168e-03)
200           	(2.606433e+02 -1.618520e+01 6.697405e+01)	(2.606425e+02 -1.618537e+01 6.697573e+01)	(8.091280e-04 1.635318e-04 -1.675373e-03)
201           	(2.606430e+02 -1.618506e+01 6.697392e+01)	(2.606422e+02 -1.618523e+01 6.697559e+01)	(8.022011e-04 1.654268e-04 -1.674361e-03)
202           	(2.606427e+02 -1.618492e+01 6.697378e+01)	(2.606419e+02 -1.618508e+01 6.697545e+01)	(7.948756e-04 1.674845e-04 -1.673199e-03)
203           	(2.606424e+02 -1.618477e+01 6.697363e+01)	(2.606416e+02 -1.618494e+01 6.697530e+01)	(7.871168e-04 1.697211e-04 -1.671957e-03)
204           	(2.606419e+02 -1.618462e+01 6.697334e+01)	(2.606411e+02 -1.618479e+01 6.697501e+01)	(7.788721e-04 1.721858e-04 -1.670970e-03)
205           	(2.606415e+02 -1.618446e+01 6.697317e+01)	(2.606408e+02 -1.618464e+01 6.697484e+01)	(7.702064e-04 1.748441e-04 -1.669928e-03)
206           	(2.606412e+02 -1.618430e+01 6.697299e+01)	(2.606404e+02 -1.618448e+01 6.697466e+01)	(7.611397e-04 1.777201e-04 -1.668952e-03)
207           	(2.606408e+02 -1.618413e+01 6.697281e+01)	(2.606401e+02 -1.618431e+01 6.697447e+01)	(7.516868e-04 1.808262e-04 -1.668114e-03)
208           	(2.606405e+02 -1.618396e+01 6.697260e+01)	(2.606398e+02 -1.618415e+01 6.697427e+01)	(7.418693e-04 1.841617e-04 -1.667440e-03)
209           	(2.606400e+02 -1.618380e+01 6.697225e+01)	(2.606392e+02 -1.618399e+01 6.697391e+01)	(7.317092e-04 1.877522e-04 -1.667213e-03)
210           	(2.606396e+02 -1.618363e+01 6.697205e+01)	(2.606389e+02 -1.618382e+01 6.697371e+01)	(7.213634e-04 1.915003e-04 -1.666957e-03)
211           	(2.606393e+02 -1.618347e+01 6.697185e+01)	(2.606386e+02 -1.618366e+01 6.697352e+01)	(7.109945e-04 1.953574e-04 -1.666659e-03)