# Force       
# CofR        : (0.000000e+00 0.000000e+00 0.000000e+00)
#
# Time        	(total_x total_y total_z)	(pressure_x pressure_y pressure_z)	(viscous_x viscous_y viscous_z)
0.00060024    	(-1.972950e-03 -5.956233e-03 2.982084e+02)	(-1.972810e-03 -5.956233e-03 2.982084e+02)	(-1.398238e-07 1.371191e-10 -2.677657e-07)
0.00132087    	(-4.851169e-03 -5.947459e-03 2.982134e+02)	(-4.851049e-03 -5.947459e-03 2.982134e+02)	(-1.200747e-07 -5.055221e-10 -9.724111e-08)
0.00218514    	(-8.135623e-04 -5.941449e-03 2.982121e+02)	(-8.134328e-04 -5.941449e-03 2.982121e+02)	(-1.294696e-07 2.802020e-11 -1.021969e-07)
0.00322225    	(-6.963681e-04 -5.943649e-03 2.982120e+02)	(-6.962109e-04 -5.943649e-03 2.982120e+02)	(-1.572248e-07 4.887899e-10 -1.265048e-07)
0.00446731    	(-6.440628e-04 -5.946664e-03 2.982120e+02)	(-6.438748e-04 -5.946664e-03 2.982120e+02)	(-1.879466e-07 6.693852e-10 -1.541507e-07)
0.00595988    	(-3.526003e-04 -5.947282e-03 2.982121e+02)	(-3.523845e-04 -5.947283e-03 2.982121e+02)	(-2.157414e-07 7.988640e-10 -1.795786e-07)
0.00774988    	(-2.584885e-06 -5.948049e-03 2.982122e+02)	(-2.347996e-06 -5.948050e-03 2.982122e+02)	(-2.368899e-07 8.274838e-10 -1.986614e-07)
0.00989944    	(3.640038e-04 -5.948205e-03 2.982123e+02)	(3.642508e-04 -5.948205e-03 2.982123e+02)	(-2.470465e-07 8.325176e-10 -2.071652e-07)
0.0124789     	(7.431688e-04 -5.948022e-03 2.982124e+02)	(7.434091e-04 -5.948022e-03 2.982124e+02)	(-2.403204e-07 8.852588e-10 -1.993550e-07)
0.0155645     	(1.072852e-03 -5.947513e-03 2.982125e+02)	(1.073065e-03 -5.947514e-03 2.982125e+02)	(-2.125511e-07 1.088989e-09 -1.718266e-07)
0.0192625     	(1.373607e-03 -5.947039e-03 2.982126e+02)	(1.373764e-03 -5.947041e-03 2.982126e+02)	(-1.578640e-07 1.516434e-09 -1.191768e-07)
0.0237137     	(1.612787e-03 -5.946898e-03 2.982126e+02)	(1.612859e-03 -5.946900e-03 2.982126e+02)	(-7.169291e-08 2.060470e-09 -3.687276e-08)
0.0290653     	(1.733544e-03 -5.946373e-03 2.982127e+02)	(1.733499e-03 -5.946376e-03 2.982127e+02)	(4.446925e-08 2.898281e-09 7.375910e-08)
0.0355164     	(1.757598e-03 -5.946448e-03 2.982127e+02)	(1.757409e-03 -5.946452e-03 2.982127e+02)	(1.889345e-07 4.053897e-09 2.101414e-07)
0.0432578     	(1.670534e-03 -5.946818e-03 2.982127e+02)	(1.670182e-03 -5.946823e-03 2.982127e+02)	(3.516539e-07 5.113157e-09 3.616494e-07)
0.0525791     	(1.509068e-03 -5.948132e-03 2.982126e+02)	(1.508545e-03 -5.948137e-03 2.982126e+02)	(5.229229e-07 5.042511e-09 5.163958e-07)
0.0637646     	(1.386974e-03 -5.949071e-03 2.982126e+02)	(1.386262e-03 -5.949075e-03 2.982126e+02)	(7.116000e-07 3.597765e-09 6.761000e-07)
0.0769839     	(1.431859e-03 -5.951043e-03 2.982126e+02)	(1.430896e-03 -5.951044e-03 2.982126e+02)	(9.633518e-07 1.773239e-10 8.724863e-07)
0.0926511     	(1.705108e-03 -5.955279e-03 2.982126e+02)	(1.703734e-03 -5.955270e-03 2.982126e+02)	(1.374547e-06 -9.643219e-09 1.177621e-06)
0.111167      	(2.203619e-03 -5.961286e-03 2.982127e+02)	(2.201537e-03 -5.961269e-03 2.982127e+02)	(2.082302e-06 -1.671921e-08 1.681981e-06)
0.132769      	(2.848668e-03 -5.965371e-03 2.982128e+02)	(2.845459e-03 -5.965322e-03 2.982128e+02)	(3.209175e-06 -4.867366e-08 2.477980e-06)
0.159         	(3.776002e-03 -5.982350e-03 2.982130e+02)	(3.770931e-03 -5.982206e-03 2.982130e+02)	(5.070492e-06 -1.446424e-07 3.714435e-06)
0.19          	(5.302607e-03 -6.001432e-03 2.982131e+02)	(5.293041e-03 -6.000887e-03 2.982131e+02)	(9.565922e-06 -5.450618e-07 6.092860e-06)
0.22875       	(7.831416e-03 -6.060217e-03 2.982133e+02)	(7.815296e-03 -6.059348e-03 2.982133e+02)	(1.612014e-05 -8.685424e-07 9.659760e-06)
0.273958      	(1.166546e-02 -6.142975e-03 2.982133e+02)	(1.163501e-02 -6.142710e-03 2.982133e+02)	(3.045185e-05 -2.648483e-07 1.522429e-05)
0.319166      	(1.388858e-02 -6.337925e-03 2.982124e+02)	(1.385232e-02 -6.338025e-03 2.982123e+02)	(3.626381e-05 1.005924e-07 2.330028e-05)
0.364375      	(2.156102e-03 -6.118447e-03 2.982137e+02)	(2.114905e-03 -6.119058e-03 2.982136e+02)	(4.119620e-05 6.117132e-07 2.138229e-05)
0.409583      	(4.189230e-02 -6.431616e-03 2.982311e+02)	(4.181702e-02 -6.435454e-03 2.982310e+02)	(7.528125e-05 3.838007e-06 5.927265e-05)
0.432187      	(2.768345e-02 -8.087141e-03 2.981696e+02)	(2.759384e-02 -8.087474e-03 2.981696e+02)	(8.961248e-05 3.325385e-07 2.685174e-05)
0.454792      	(5.543368e-02 -6.549408e-03 2.982252e+02)	(5.532030e-02 -6.534247e-03 2.982251e+02)	(1.133792e-04 -1.516147e-05 5.010423e-05)
0.477396      	(2.127502e-02 -7.212809e-03 2.981836e+02)	(2.115807e-02 -7.193186e-03 2.981836e+02)	(1.169465e-04 -1.962273e-05 2.780709e-05)
0.5           	(4.481829e-02 -7.358869e-03 2.982031e+02)	(4.469218e-02 -7.346937e-03 2.982031e+02)	(1.261123e-04 -1.193146e-05 2.631817e-05)
0.526316      	(2.799533e-02 -7.382655e-03 2.981943e+02)	(2.784252e-02 -7.364802e-03 2.981943e+02)	(1.528038e-04 -1.785357e-05 1.491943e-05)
0.555921      	(2.410619e-02 -7.242892e-03 2.981967e+02)	(2.395210e-02 -7.223916e-03 2.981966e+02)	(1.540938e-04 -1.897525e-05 4.307106e-06)
0.590081      	(1.573012e-02 -7.182770e-03 2.981985e+02)	(1.557831e-02 -7.163593e-03 2.981985e+02)	(1.518133e-04 -1.917692e-05 -7.069605e-06)
0.627346      	(3.137374e-03 -6.883606e-03 2.981954e+02)	(2.987154e-03 -6.867695e-03 2.981954e+02)	(1.502201e-04 -1.591142e-05 -2.406092e-05)
0.653964      	(-1.355455e-02 -6.614308e-03 2.981932e+02)	(-1.368494e-02 -6.591359e-03 2.981933e+02)	(1.303879e-04 -2.294927e-05 -3.320344e-05)
0.685422      	(-1.754179e-02 -6.643293e-03 2.982012e+02)	(-1.765277e-02 -6.615095e-03 2.982012e+02)	(1.109847e-04 -2.819852e-05 -3.338533e-05)
0.705083      	(-2.379760e-02 -6.366035e-03 2.981981e+02)	(-2.389127e-02 -6.341881e-03 2.981981e+02)	(9.366711e-05 -2.415362e-05 -3.817852e-05)
0.727769      	(-2.245006e-02 -5.815696e-03 2.982072e+02)	(-2.252242e-02 -5.794709e-03 2.982073e+02)	(7.235714e-05 -2.098636e-05 -3.476082e-05)
0.752517      	(-2.966532e-02 -5.403239e-03 2.982091e+02)	(-2.972407e-02 -5.384345e-03 2.982092e+02)	(5.875206e-05 -1.889390e-05 -2.126269e-05)
0.780016      	(-2.193756e-02 -4.736568e-03 2.982154e+02)	(-2.198285e-02 -4.718130e-03 2.982154e+02)	(4.528586e-05 -1.843783e-05 -3.761640e-06)
0.811442      	(-1.754895e-02 -4.350211e-03 2.982183e+02)	(-1.758228e-02 -4.334333e-03 2.982183e+02)	(3.333064e-05 -1.587761e-05 2.083375e-05)
0.838379      	(-1.348667e-02 -3.319667e-03 2.982170e+02)	(-1.350821e-02 -3.310834e-03 2.982170e+02)	(2.154328e-05 -8.832973e-06 3.496892e-05)
0.865316      	(-1.434178e-02 -2.540128e-03 2.982157e+02)	(-1.437156e-02 -2.540161e-03 2.982156e+02)	(2.978088e-05 3.292234e-08 4.799683e-05)
0.898987      	(-9.047362e-03 -2.590956e-03 2.982126e+02)	(-9.088230e-03 -2.601316e-03 2.982126e+02)	(4.086781e-05 1.035979e-05 5.682000e-05)
0.932658      	(-1.885853e-02 -1.995834e-03 2.982046e+02)	(-1.889587e-02 -2.017634e-03 2.982046e+02)	(3.733878e-05 2.180074e-05 5.685263e-05)
0.966329      	(-3.371779e-02 -2.844883e-03 2.982020e+02)	(-3.373729e-02 -2.867250e-03 2.982020e+02)	(1.950102e-05 2.236726e-05 4.670483e-05)
0.983164      	(-4.753758e-02 -3.079539e-03 2.981948e+02)	(-4.754701e-02 -3.109222e-03 2.981948e+02)	(9.426038e-06 2.968304e-05 3.389172e-05)
1             	(-4.757953e-02 -2.817891e-03 2.981987e+02)	(-4.757273e-02 -2.855873e-03 2.981986e+02)	(-6.801216e-06 3.798169e-05 3.396417e-05)
1.01923       	(-5.621603e-02 -3.740813e-03 2.982038e+02)	(-5.619147e-02 -3.780663e-03 2.982037e+02)	(-2.455975e-05 3.985001e-05 3.612945e-05)
1.04108       	(-6.854481e-02 -4.439961e-03 2.982038e+02)	(-6.849186e-02 -4.484838e-03 2.982038e+02)	(-5.295262e-05 4.487709e-05 4.013114e-05)
1.06658       	(-7.028179e-02 -4.013614e-03 2.982080e+02)	(-7.018189e-02 -4.062993e-03 2.982080e+02)	(-9.989537e-05 4.937917e-05 4.368815e-05)
1.09547       	(-7.247254e-02 -4.797522e-03 2.982144e+02)	(-7.232566e-02 -4.849679e-03 2.982144e+02)	(-1.468862e-04 5.215690e-05 6.141201e-05)
1.12918       	(-6.583937e-02 -5.118266e-03 2.982159e+02)	(-6.564180e-02 -5.166363e-03 2.982158e+02)	(-1.975680e-04 4.809687e-05 8.970267e-05)
1.16627       	(-4.599071e-02 -6.137069e-03 2.982163e+02)	(-4.576065e-02 -6.181783e-03 2.982162e+02)	(-2.300598e-04 4.471325e-05 1.204868e-04)
1.20798       	(-7.901015e-03 -6.391305e-03 2.982117e+02)	(-7.658677e-03 -6.437255e-03 2.982115e+02)	(-2.423378e-04 4.594994e-05 1.549112e-04)
1.25665       	(5.350219e-02 -6.327089e-03 2.982067e+02)	(5.368239e-02 -6.366812e-03 2.982065e+02)	(-1.802065e-04 3.972244e-05 1.885512e-04)
1.30532       	(1.289566e-01 -7.014044e-03 2.981953e+02)	(1.290179e-01 -7.042693e-03 2.981951e+02)	(-6.131216e-05 2.864885e-05 2.125620e-04)
1.34426       	(2.183833e-01 -7.353122e-03 2.981874e+02)	(2.182736e-01 -7.375841e-03 2.981871e+02)	(1.096987e-04 2.271903e-05 2.381477e-04)
1.38319       	(3.265944e-01 -7.875395e-03 2.981865e+02)	(3.262406e-01 -7.892029e-03 2.981862e+02)	(3.538155e-04 1.663441e-05 2.882035e-04)
1.41239       	(4.245523e-01 -8.394719e-03 2.981945e+02)	(4.239753e-01 -8.405032e-03 2.981942e+02)	(5.769658e-04 1.031274e-05 3.426419e-04)
1.4416        	(5.758961e-01 -7.843944e-03 2.982023e+02)	(5.750283e-01 -7.849223e-03 2.982019e+02)	(8.677537e-04 5.278821e-06 4.210976e-04)
1.4708        	(7.368949e-01 -9.046826e-03 2.982292e+02)	(7.356991e-01 -9.042624e-03 2.982287e+02)	(1.195858e-03 -4.201612e-06 5.378129e-04)
1.5           	(9.781581e-01 -9.592333e-03 2.982539e+02)	(9.765683e-01 -9.580985e-03 2.982533e+02)	(1.589755e-03 -1.134738e-05 6.869267e-04)
1.53571       	(1.357592e+00 -1.036126e-02 2.983108e+02)	(1.355441e+00 -1.034326e-02 2.983099e+02)	(2.151160e-03 -1.799466e-05 9.195298e-04)
1.57792       	(1.932959e+00 -9.102770e-03 2.984012e+02)	(1.930059e+00 -9.079626e-03 2.983999e+02)	(2.899956e-03 -2.314408e-05 1.242426e-03)
1.60275       	(2.381249e+00 -8.677407e-03 2.984997e+02)	(2.377800e+00 -8.652095e-03 2.984982e+02)	(3.448624e-03 -2.531140e-05 1.519171e-03)
1.63331       	(3.066052e+00 -5.172952e-03 2.986244e+02)	(3.061893e+00 -5.152565e-03 2.986226e+02)	(4.159072e-03 -2.038682e-05 1.855489e-03)
1.66664       	(3.829349e+00 -6.136002e-03 2.988095e+02)	(3.824411e+00 -6.116005e-03 2.988073e+02)	(4.937643e-03 -1.999705e-05 2.239980e-03)
1.70368       	(4.683846e+00 -4.747385e-03 2.989909e+02)	(4.678082e+00 -4.730486e-03 2.989883e+02)	(5.763454e-03 -1.689900e-05 2.636137e-03)
1.73331       	(5.356570e+00 -3.664117e-03 2.992336e+02)	(5.350112e+00 -3.649863e-03 2.992305e+02)	(6.458230e-03 -1.425446e-05 3.026819e-03)
1.75998       	(5.855513e+00 -4.647115e-03 2.994917e+02)	(5.848470e+00 -4.633034e-03 2.994883e+02)	(7.043215e-03 -1.408152e-05 3.400273e-03)
1.7818        	(6.150870e+00 -4.108577e-03 2.997748e+02)	(6.143381e+00 -4.096350e-03 2.997710e+02)	(7.488594e-03 -1.222674e-05 3.759686e-03)
1.80164       	(6.341893e+00 -4.304918e-03 3.000607e+02)	(6.334052e+00 -4.294169e-03 3.000565e+02)	(7.840903e-03 -1.074921e-05 4.114570e-03)
1.81967       	(6.437079e+00 -4.610864e-03 3.003529e+02)	(6.428977e+00 -4.599904e-03 3.003485e+02)	(8.102030e-03 -1.095979e-05 4.473914e-03)
1.83607       	(6.435536e+00 -4.616073e-03 3.006451e+02)	(6.427253e+00 -4.604644e-03 3.006403e+02)	(8.283776e-03 -1.142890e-05 4.841614e-03)
1.85246       	(6.385696e+00 -4.997823e-03 3.009288e+02)	(6.377298e+00 -4.985143e-03 3.009236e+02)	(8.398576e-03 -1.267966e-05 5.234952e-03)
1.86721       	(6.240838e+00 -5.179836e-03 3.012032e+02)	(6.232394e+00 -5.165147e-03 3.011976e+02)	(8.443843e-03 -1.468885e-05 5.643544e-03)
1.88197       	(6.078472e+00 -5.676836e-03 3.014565e+02)	(6.070051e+00 -5.658842e-03 3.014504e+02)	(8.421130e-03 -1.799414e-05 6.092868e-03)
1.89508       	(5.863116e+00 -5.396251e-03 3.016903e+02)	(5.854780e+00 -5.374704e-03 3.016837e+02)	(8.336034e-03 -2.154683e-05 6.558167e-03)
1.9082        	(5.660321e+00 -5.121338e-03 3.018930e+02)	(5.652138e+00 -5.095834e-03 3.018859e+02)	(8.182734e-03 -2.550370e-05 7.069232e-03)
1.92131       	(5.440384e+00 -4.837894e-03 3.020684e+02)	(5.432432e+00 -4.808293e-03 3.020608e+02)	(7.951964e-03 -2.960078e-05 7.615932e-03)
1.93443       	(5.214954e+00 -5.018445e-03 3.022138e+02)	(5.207301e+00 -4.984392e-03 3.022056e+02)	(7.652391e-03 -3.405279e-05 8.172915e-03)
1.94754       	(4.986680e+00 -5.446813e-03 3.023301e+02)	(4.979365e+00 -5.407832e-03 3.023214e+02)	(7.314772e-03 -3.898132e-05 8.702761e-03)
1.96066       	(4.768192e+00 -5.717575e-03 3.024118e+02)	(4.761226e+00 -5.673420e-03 3.024026e+02)	(6.966161e-03 -4.415512e-05 9.187531e-03)
1.97377       	(4.552789e+00 -5.556373e-03 3.024534e+02)	(4.546147e+00 -5.506919e-03 3.024438e+02)	(6.641880e-03 -4.945385e-05 9.620505e-03)
1.98689       	(4.365175e+00 -5.183529e-03 3.024504e+02)	(4.358839e+00 -5.129068e-03 3.024404e+02)	(6.336032e-03 -5.446110e-05 1.001826e-02)
2             	(4.209263e+00 -4.688578e-03 3.024026e+02)	(4.203218e+00 -4.629602e-03 3.023923e+02)	(6.045034e-03 -5.897618e-05 1.036976e-02)
2.0125        	(4.100474e+00 -4.524403e-03 3.023159e+02)	(4.094685e+00 -4.461310e-03 3.023052e+02)	(5.789230e-03 -6.309332e-05 1.066099e-02)
2.025         	(4.020268e+00 -3.988200e-03 3.021829e+02)	(4.014674e+00 -3.921451e-03 3.021720e+02)	(5.593971e-03 -6.674928e-05 1.088821e-02)
2.0375        	(3.963992e+00 -3.592741e-03 3.020201e+02)	(3.958518e+00 -3.522923e-03 3.020091e+02)	(5.473813e-03 -6.981778e-05 1.103492e-02)
2.05          	(3.933028e+00 -3.025737e-03 3.018214e+02)	(3.927603e+00 -2.953527e-03 3.018103e+02)	(5.425263e-03 -7.221008e-05 1.110041e-02)
2.06286       	(3.903725e+00 -2.538842e-03 3.015897e+02)	(3.898284e+00 -2.464794e-03 3.015786e+02)	(5.441154e-03 -7.404870e-05 1.108299e-02)
2.07571       	(3.902961e+00 -2.127522e-03 3.013341e+02)	(3.897444e+00 -2.052262e-03 3.013231e+02)	(5.516787e-03 -7.525969e-05 1.098582e-02)
2.08857       	(3.907499e+00 -2.045509e-03 3.010638e+02)	(3.901863e+00 -1.969411e-03 3.010529e+02)	(5.635743e-03 -7.609824e-05 1.081801e-02)
2.10184       	(3.904393e+00 -1.557357e-03 3.007806e+02)	(3.898619e+00 -1.480960e-03 3.007700e+02)	(5.773839e-03 -7.639758e-05 1.057386e-02)
2.11512       	(3.909078e+00 -6.891752e-04 3.005127e+02)	(3.903195e+00 -6.135987e-04 3.005024e+02)	(5.883032e-03 -7.557654e-05 1.026019e-02)
2.12839       	(3.916536e+00 3.389829e-04 3.002632e+02)	(3.910609e+00 4.126712e-04 3.002533e+02)	(5.926449e-03 -7.368829e-05 9.909529e-03)
2.14166       	(3.910213e+00 1.302121e-03 3.000568e+02)	(3.904295e+00 1.373041e-03 3.000472e+02)	(5.918131e-03 -7.092010e-05 9.576557e-03)
2.15493       	(3.900433e+00 2.807870e-03 2.998921e+02)	(3.894532e+00 2.874790e-03 2.998828e+02)	(5.900999e-03 -6.691913e-05 9.287458e-03)
2.1682        	(3.885519e+00 4.397393e-03 2.997733e+02)	(3.879620e+00 4.459421e-03 2.997642e+02)	(5.899121e-03 -6.202820e-05 9.050203e-03)
2.18147       	(3.873121e+00 5.862269e-03 2.996890e+02)	(3.867214e+00 5.918114e-03 2.996802e+02)	(5.907830e-03 -5.584573e-05 8.865625e-03)
2.19475       	(3.874482e+00 7.446285e-03 2.996396e+02)	(3.868565e+00 7.494683e-03 2.996309e+02)	(5.916195e-03 -4.839839e-05 8.724762e-03)
2.20802       	(3.891275e+00 9.142264e-03 2.996173e+02)	(3.885360e+00 9.181879e-03 2.996087e+02)	(5.914669e-03 -3.961487e-05 8.608636e-03)
2.22129       	(3.932512e+00 1.126608e-02 2.996128e+02)	(3.926611e+00 1.129536e-02 2.996042e+02)	(5.901261e-03 -2.927640e-05 8.510772e-03)
2.23523       	(4.000882e+00 1.323123e-02 2.996175e+02)	(3.995000e+00 1.324886e-02 2.996091e+02)	(5.882045e-03 -1.763085e-05 8.417186e-03)
2.24916       	(4.091181e+00 1.517804e-02 2.996159e+02)	(4.085318e+00 1.518317e-02 2.996076e+02)	(5.863724e-03 -5.126067e-06 8.323575e-03)
2.2631        	(4.189741e+00 1.713556e-02 2.996081e+02)	(4.183886e+00 1.712767e-02 2.995998e+02)	(5.855516e-03 7.884779e-06 8.229123e-03)
2.27703       	(4.285096e+00 1.889569e-02 2.995904e+02)	(4.279238e+00 1.887470e-02 2.995822e+02)	(5.857719e-03 2.098220e-05 8.142878e-03)
2.2919        	(4.366288e+00 2.042358e-02 2.995550e+02)	(4.360422e+00 2.038900e-02 2.995469e+02)	(5.865488e-03 3.458533e-05 8.063796e-03)
2.30676       	(4.425586e+00 2.194120e-02 2.995090e+02)	(4.419714e+00 2.189308e-02 2.995011e+02)	(5.872437e-03 4.811367e-05 7.990910e-03)
2.32163       	(4.447891e+00 2.322451e-02 2.994510e+02)	(4.442022e+00 2.316213e-02 2.994431e+02)	(5.868471e-03 6.237039e-05 7.916124e-03)
2.33649       	(4.424663e+00 2.394456e-02 2.993837e+02)	(4.418816e+00 2.386694e-02 2.993758e+02)	(5.846589e-03 7.761820e-05 7.838183e-03)
2.35135       	(4.361116e+00 2.420316e-02 2.993070e+02)	(4.355318e+00 2.410976e-02 2.992993e+02)	(5.797931e-03 9.340636e-05 7.756987e-03)
2.36622       	(4.258065e+00 2.376229e-02 2.992272e+02)	(4.252348e+00 2.365365e-02 2.992196e+02)	(5.717772e-03 1.086416e-04 7.674629e-03)
2.38108       	(4.123890e+00 2.289352e-02 2.991461e+02)	(4.118289e+00 2.277090e-02 2.991385e+02)	(5.601563e-03 1.226162e-04 7.587769e-03)
2.39595       	(3.966465e+00 2.149981e-02 2.990670e+02)	(3.961014e+00 2.136426e-02 2.990595e+02)	(5.450868e-03 1.355473e-04 7.494260e-03)
2.41081       	(3.796753e+00 2.002347e-02 2.989928e+02)	(3.791481e+00 1.987577e-02 2.989854e+02)	(5.272164e-03 1.477051e-04 7.395160e-03)
2.42568       	(3.626889e+00 1.876106e-02 2.989236e+02)	(3.621815e+00 1.860098e-02 2.989163e+02)	(5.074554e-03 1.600738e-04 7.287897e-03)
2.44054       	(3.468934e+00 1.772846e-02 2.988595e+02)	(3.464064e+00 1.755493e-02 2.988523e+02)	(4.869671e-03 1.735300e-04 7.170668e-03)
2.45541       	(3.332797e+00 1.678981e-02 2.987989e+02)	(3.328130e+00 1.660141e-02 2.987919e+02)	(4.666842e-03 1.884028e-04 7.044311e-03)
2.47027       	(3.223786e+00 1.586226e-02 2.987423e+02)	(3.219308e+00 1.565783e-02 2.987354e+02)	(4.477782e-03 2.044280e-04 6.911039e-03)
2.48514       	(3.147799e+00 1.509364e-02 2.986888e+02)	(3.143483e+00 1.487166e-02 2.986820e+02)	(4.315483e-03 2.219852e-04 6.777461e-03)
2.5           	(3.106882e+00 1.460240e-02 2.986358e+02)	(3.102692e+00 1.436185e-02 2.986292e+02)	(4.190591e-03 2.405585e-04 6.648711e-03)
2.51471       	(3.099364e+00 1.421117e-02 2.985828e+02)	(3.095254e+00 1.395132e-02 2.985762e+02)	(4.109662e-03 2.598497e-04 6.525321e-03)
2.52941       	(3.121069e+00 1.394168e-02 2.985299e+02)	(3.116993e+00 1.366174e-02 2.985235e+02)	(4.076602e-03 2.799424e-04 6.406200e-03)
2.54412       	(3.164451e+00 1.389026e-02 2.984775e+02)	(3.160358e+00 1.358930e-02 2.984712e+02)	(4.092675e-03 3.009539e-04 6.291272e-03)
2.55882       	(3.224205e+00 1.420474e-02 2.984258e+02)	(3.220049e+00 1.388227e-02 2.984197e+02)	(4.155921e-03 3.224721e-04 6.178204e-03)
2.57353       	(3.291425e+00 1.446448e-02 2.983774e+02)	(3.287162e+00 1.412020e-02 2.983714e+02)	(4.262063e-03 3.442862e-04 6.066834e-03)
2.58775       	(3.359849e+00 1.472000e-02 2.983331e+02)	(3.355448e+00 1.435464e-02 2.983271e+02)	(4.400448e-03 3.653661e-04 5.957704e-03)
2.60196       	(3.425495e+00 1.466215e-02 2.982945e+02)	(3.420931e+00 1.427648e-02 2.982887e+02)	(4.563615e-03 3.856768e-04 5.848179e-03)
2.61618       	(3.484097e+00 1.448128e-02 2.982640e+02)	(3.479355e+00 1.407608e-02 2.982583e+02)	(4.742585e-03 4.052035e-04 5.740053e-03)
2.62988       	(3.539409e+00 1.409620e-02 2.982428e+02)	(3.534484e+00 1.367285e-02 2.982372e+02)	(4.925103e-03 4.233507e-04 5.635749e-03)
2.64359       	(3.583538e+00 1.340674e-02 2.982294e+02)	(3.578433e+00 1.296705e-02 2.982239e+02)	(5.105090e-03 4.396968e-04 5.532909e-03)
2.6573        	(3.621417e+00 1.229916e-02 2.982261e+02)	(3.616142e+00 1.184700e-02 2.982206e+02)	(5.274953e-03 4.521560e-04 5.433427e-03)
2.67101       	(3.652264e+00 1.104855e-02 2.982330e+02)	(3.646836e+00 1.058868e-02 2.982277e+02)	(5.427831e-03 4.598736e-04 5.338614e-03)
2.68472       	(3.679224e+00 9.459043e-03 2.982493e+02)	(3.673666e+00 8.997046e-03 2.982440e+02)	(5.558149e-03 4.619974e-04 5.248198e-03)
2.69842       	(3.703983e+00 7.657863e-03 2.982735e+02)	(3.698322e+00 7.199926e-03 2.982683e+02)	(5.660904e-03 4.579365e-04 5.164255e-03)
2.71279       	(3.727133e+00 5.631200e-03 2.983047e+02)	(3.721399e+00 5.184366e-03 2.982996e+02)	(5.733940e-03 4.468333e-04 5.087387e-03)
2.72715       	(3.751723e+00 3.572121e-03 2.983404e+02)	(3.745946e+00 3.143721e-03 2.983354e+02)	(5.777066e-03 4.283997e-04 5.022421e-03)
2.74151       	(3.778744e+00 1.323600e-03 2.983772e+02)	(3.772946e+00 9.208038e-04 2.983722e+02)	(5.797555e-03 4.027965e-04 4.969451e-03)
2.75587       	(3.809655e+00 -8.962367e-04 2.984118e+02)	(3.803850e+00 -1.267348e-03 2.984069e+02)	(5.805672e-03 3.711110e-04 4.926208e-03)
2.77023       	(3.844387e+00 -2.961075e-03 2.984415e+02)	(3.838576e+00 -3.297507e-03 2.984366e+02)	(5.810891e-03 3.364320e-04 4.891279e-03)
2.78459       	(3.883936e+00 -4.896542e-03 2.984641e+02)	(3.878115e+00 -5.197519e-03 2.984592e+02)	(5.820752e-03 3.009766e-04 4.863097e-03)
2.79895       	(3.926932e+00 -6.598947e-03 2.984792e+02)	(3.921092e+00 -6.865427e-03 2.984743e+02)	(5.839916e-03 2.664799e-04 4.838829e-03)
2.81331       	(3.970494e+00 -8.011796e-03 2.984865e+02)	(3.964622e+00 -8.246127e-03 2.984816e+02)	(5.871699e-03 2.343305e-04 4.814860e-03)
2.82767       	(4.013672e+00 -9.090356e-03 2.984862e+02)	(4.007753e+00 -9.296679e-03 2.984814e+02)	(5.918736e-03 2.063230e-04 4.787405e-03)
2.84203       	(4.055604e+00 -1.019574e-02 2.984794e+02)	(4.049621e+00 -1.037904e-02 2.984746e+02)	(5.982445e-03 1.833010e-04 4.752642e-03)
2.85639       	(4.093802e+00 -1.107382e-02 2.984672e+02)	(4.087739e+00 -1.123932e-02 2.984625e+02)	(6.063226e-03 1.654959e-04 4.708526e-03)
2.87075       	(4.126953e+00 -1.160216e-02 2.984521e+02)	(4.120792e+00 -1.175374e-02 2.984474e+02)	(6.160268e-03 1.515756e-04 4.654832e-03)
2.88368       	(4.157152e+00 -1.188350e-02 2.984371e+02)	(4.150886e+00 -1.202354e-02 2.984325e+02)	(6.265645e-03 1.400439e-04 4.594635e-03)
2.8966        	(4.175997e+00 -1.197207e-02 2.984222e+02)	(4.169616e+00 -1.209999e-02 2.984176e+02)	(6.381323e-03 1.279154e-04 4.527104e-03)
2.90953       	(4.188970e+00 -1.177345e-02 2.984081e+02)	(4.182465e+00 -1.188654e-02 2.984037e+02)	(6.504318e-03 1.130896e-04 4.452555e-03)
2.92245       	(4.196088e+00 -1.138638e-02 2.983959e+02)	(4.189456e+00 -1.148209e-02 2.983915e+02)	(6.631754e-03 9.570808e-05 4.371476e-03)
2.93538       	(4.197581e+00 -1.082224e-02 2.983857e+02)	(4.190820e+00 -1.089732e-02 2.983814e+02)	(6.760964e-03 7.508011e-05 4.284210e-03)
2.9483        	(4.193843e+00 -1.009579e-02 2.983784e+02)	(4.186953e+00 -1.015006e-02 2.983742e+02)	(6.889984e-03 5.426616e-05 4.191457e-03)
2.96123       	(4.186007e+00 -9.418003e-03 2.983742e+02)	(4.178989e+00 -9.454213e-03 2.983701e+02)	(7.017479e-03 3.620928e-05 4.094105e-03)
2.97415       	(4.173759e+00 -8.884402e-03 2.983729e+02)	(4.166617e+00 -8.907034e-03 2.983689e+02)	(7.141717e-03 2.263272e-05 3.992436e-03)
2.98708       	(4.157928e+00 -8.462418e-03 2.983745e+02)	(4.150669e+00 -8.478315e-03 2.983706e+02)	(7.259804e-03 1.589655e-05 3.886540e-03)
3             	(4.139591e+00 -8.348251e-03 2.983789e+02)	(4.132223e+00 -8.365169e-03 2.983751e+02)	(7.367808e-03 1.691838e-05 3.776462e-03)
3.01351       	(4.117350e+00 -8.538584e-03 2.983858e+02)	(4.109886e+00 -8.563585e-03 2.983822e+02)	(7.464426e-03 2.500103e-05 3.660430e-03)
3.02703       	(4.094977e+00 -9.093562e-03 2.983942e+02)	(4.087432e+00 -9.131129e-03 2.983907e+02)	(7.545464e-03 3.756710e-05 3.541645e-03)
3.04054       	(4.071937e+00 -1.006025e-02 2.984036e+02)	(4.064327e+00 -1.011127e-02 2.984002e+02)	(7.609791e-03 5.101171e-05 3.420258e-03)
3.05405       	(4.048861e+00 -1.125245e-02 2.984134e+02)	(4.041203e+00 -1.131345e-02 2.984101e+02)	(7.657702e-03 6.100061e-05 3.296999e-03)
3.06799       	(4.024623e+00 -1.247363e-02 2.984228e+02)	(4.016934e+00 -1.253972e-02 2.984196e+02)	(7.689159e-03 6.608958e-05 3.171229e-03)
3.08193       	(4.002043e+00 -1.385047e-02 2.984313e+02)	(3.994338e+00 -1.391430e-02 2.984283e+02)	(7.704222e-03 6.382277e-05 3.045959e-03)
3.09586       	(3.980661e+00 -1.527742e-02 2.984388e+02)	(3.972958e+00 -1.533061e-02 2.984359e+02)	(7.703843e-03 5.318801e-05 2.922237e-03)
3.1098        	(3.959658e+00 -1.643543e-02 2.984452e+02)	(3.951968e+00 -1.646977e-02 2.984424e+02)	(7.689743e-03 3.433480e-05 2.801911e-03)
3.12373       	(3.939524e+00 -1.737379e-02 2.984506e+02)	(3.931860e+00 -1.738203e-02 2.984479e+02)	(7.664217e-03 8.243597e-06 2.688122e-03)
3.1382        	(3.916044e+00 -1.797586e-02 2.984550e+02)	(3.908415e+00 -1.795297e-02 2.984524e+02)	(7.628902e-03 -2.289004e-05 2.582228e-03)
3.15268       	(3.897123e+00 -1.857020e-02 2.984583e+02)	(3.889535e+00 -1.851288e-02 2.984558e+02)	(7.587887e-03 -5.731399e-05 2.490424e-03)
3.16715       	(3.878391e+00 -1.902690e-02 2.984607e+02)	(3.870846e+00 -1.893393e-02 2.984583e+02)	(7.544161e-03 -9.297728e-05 2.415817e-03)
3.18162       	(3.859326e+00 -1.941182e-02 2.984621e+02)	(3.851826e+00 -1.928460e-02 2.984597e+02)	(7.500170e-03 -1.272253e-04 2.360577e-03)
3.19609       	(3.840158e+00 -1.978413e-02 2.984626e+02)	(3.832701e+00 -1.962567e-02 2.984603e+02)	(7.457406e-03 -1.584567e-04 2.325800e-03)
3.21056       	(3.821550e+00 -2.023471e-02 2.984620e+02)	(3.814132e+00 -2.004939e-02 2.984597e+02)	(7.417902e-03 -1.853140e-04 2.311213e-03)
3.22504       	(3.802855e+00 -2.072222e-02 2.984606e+02)	(3.795472e+00 -2.051314e-02 2.984583e+02)	(7.382286e-03 -2.090739e-04 2.315172e-03)
3.23951       	(3.784504e+00 -2.130330e-02 2.984581e+02)	(3.777153e+00 -2.107161e-02 2.984557e+02)	(7.351271e-03 -2.316867e-04 2.334616e-03)
3.25398       	(3.767238e+00 -2.224056e-02 2.984549e+02)	(3.759913e+00 -2.198565e-02 2.984526e+02)	(7.325200e-03 -2.549090e-04 2.366075e-03)
3.26765       	(3.750201e+00 -2.338382e-02 2.984507e+02)	(3.742897e+00 -2.310362e-02 2.984483e+02)	(7.304107e-03 -2.801985e-04 2.403735e-03)
3.28131       	(3.731528e+00 -2.468972e-02 2.984469e+02)	(3.724241e+00 -2.438165e-02 2.984445e+02)	(7.286692e-03 -3.080607e-04 2.444768e-03)
3.29498       	(3.712121e+00 -2.608211e-02 2.984432e+02)	(3.704849e+00 -2.574470e-02 2.984408e+02)	(7.271843e-03 -3.374181e-04 2.485915e-03)
3.30865       	(3.692272e+00 -2.746990e-02 2.984402e+02)	(3.685013e+00 -2.710137e-02 2.984377e+02)	(7.259153e-03 -3.685304e-04 2.524875e-03)
3.32232       	(3.671224e+00 -2.881679e-02 2.984385e+02)	(3.663975e+00 -2.841447e-02 2.984359e+02)	(7.248764e-03 -4.023225e-04 2.560454e-03)
3.33599       	(3.649895e+00 -3.010548e-02 2.984379e+02)	(3.642655e+00 -2.966745e-02 2.984353e+02)	(7.240519e-03 -4.380299e-04 2.592147e-03)
3.34965       	(3.628118e+00 -3.133456e-02 2.984392e+02)	(3.620884e+00 -3.085928e-02 2.984365e+02)	(7.233918e-03 -4.752807e-04 2.621352e-03)
3.36332       	(3.606820e+00 -3.238559e-02 2.984421e+02)	(3.599592e+00 -3.187270e-02 2.984395e+02)	(7.227727e-03 -5.128947e-04 2.649429e-03)
3.37699       	(3.587120e+00 -3.315363e-02 2.984467e+02)	(3.579898e+00 -3.260392e-02 2.984440e+02)	(7.221243e-03 -5.497102e-04 2.678122e-03)
3.39066       	(3.569020e+00 -3.348522e-02 2.984528e+02)	(3.561806e+00 -3.290139e-02 2.984500e+02)	(7.213916e-03 -5.838348e-04 2.709682e-03)
3.40433       	(3.553363e+00 -3.350304e-02 2.984607e+02)	(3.546157e+00 -3.289274e-02 2.984580e+02)	(7.206702e-03 -6.102941e-04 2.745832e-03)
3.41799       	(3.540761e+00 -3.313428e-02 2.984703e+02)	(3.533560e+00 -3.250591e-02 2.984675e+02)	(7.200574e-03 -6.283625e-04 2.787735e-03)
3.43166       	(3.531241e+00 -3.234743e-02 2.984813e+02)	(3.524045e+00 -3.171061e-02 2.984785e+02)	(7.195830e-03 -6.368168e-04 2.836909e-03)
3.44533       	(3.524846e+00 -3.128853e-02 2.984935e+02)	(3.517653e+00 -3.065157e-02 2.984906e+02)	(7.193189e-03 -6.369613e-04 2.893954e-03)
3.459         	(3.521360e+00 -3.002579e-02 2.985067e+02)	(3.514167e+00 -2.939519e-02 2.985037e+02)	(7.192316e-03 -6.306067e-04 2.958890e-03)
3.47266       	(3.520649e+00 -2.852831e-02 2.985207e+02)	(3.513457e+00 -2.790900e-02 2.985176e+02)	(7.192641e-03 -6.193082e-04 3.031895e-03)
3.48633       	(3.522503e+00 -2.701697e-02 2.985354e+02)	(3.515309e+00 -2.641405e-02 2.985323e+02)	(7.193831e-03 -6.029233e-04 3.113642e-03)
3.5           	(3.526422e+00 -2.557322e-02 2.985513e+02)	(3.519227e+00 -2.499127e-02 2.985481e+02)	(7.195451e-03 -5.819431e-04 3.204305e-03)
3.51389       	(3.532911e+00 -2.422843e-02 2.985680e+02)	(3.525713e+00 -2.367061e-02 2.985647e+02)	(7.197564e-03 -5.578256e-04 3.303999e-03)
3.52778       	(3.541699e+00 -2.308178e-02 2.985852e+02)	(3.534499e+00 -2.255119e-02 2.985818e+02)	(7.199625e-03 -5.305863e-04 3.411533e-03)
3.54167       	(3.552077e+00 -2.218910e-02 2.986030e+02)	(3.544876e+00 -2.168787e-02 2.985995e+02)	(7.201548e-03 -5.012361e-04 3.526522e-03)
3.55556       	(3.563899e+00 -2.158488e-02 2.986209e+02)	(3.556695e+00 -2.111427e-02 2.986172e+02)	(7.203532e-03 -4.706016e-04 3.648546e-03)
3.56989       	(3.576746e+00 -2.124122e-02 2.986392e+02)	(3.569540e+00 -2.080301e-02 2.986354e+02)	(7.206024e-03 -4.382117e-04 3.778979e-03)
3.58423       	(3.591367e+00 -2.099778e-02 2.986565e+02)	(3.584159e+00 -2.059241e-02 2.986526e+02)	(7.208613e-03 -4.053684e-04 3.914768e-03)
3.59857       	(3.606902e+00 -2.088824e-02 2.986729e+02)	(3.599690e+00 -2.051536e-02 2.986689e+02)	(7.212126e-03 -3.728804e-04 4.054361e-03)
3.6129        	(3.622677e+00 -2.088791e-02 2.986880e+02)	(3.615460e+00 -2.054671e-02 2.986838e+02)	(7.217012e-03 -3.411979e-04 4.196997e-03)
3.62724       	(3.639091e+00 -2.093736e-02 2.987015e+02)	(3.631867e+00 -2.062498e-02 2.986972e+02)	(7.223952e-03 -3.123807e-04 4.342241e-03)
3.64158       	(3.655115e+00 -2.090070e-02 2.987136e+02)	(3.647880e+00 -2.061402e-02 2.987091e+02)	(7.234399e-03 -2.866714e-04 4.489455e-03)
3.65591       	(3.670892e+00 -2.066949e-02 2.987237e+02)	(3.663644e+00 -2.040465e-02 2.987191e+02)	(7.248914e-03 -2.648417e-04 4.638875e-03)
3.67025       	(3.686268e+00 -2.027495e-02 2.987317e+02)	(3.678999e+00 -2.002723e-02 2.987269e+02)	(7.269127e-03 -2.477204e-04 4.789925e-03)
3.68399       	(3.701820e+00 -1.975569e-02 2.987372e+02)	(3.694524e+00 -1.952062e-02 2.987323e+02)	(7.295374e-03 -2.350777e-04 4.939022e-03)
3.69773       	(3.715072e+00 -1.920246e-02 2.987407e+02)	(3.707745e+00 -1.897736e-02 2.987357e+02)	(7.327246e-03 -2.250948e-04 5.089126e-03)
3.71147       	(3.727345e+00 -1.851411e-02 2.987419e+02)	(3.719982e+00 -1.829722e-02 2.987366e+02)	(7.363173e-03 -2.168942e-04 5.237311e-03)