# kMean  POINT_DATA 26867
# x  y  z  kMean
0.0115468 0 6.39774e-08 2.75412e-09
-0.0115468 0 6.39774e-08 1.42704e-06
0.0115468 6.77626e-21 0.00015991 2.63708e-09
-0.0115468 0 0.000159974 1.42944e-06
0.0115468 1.35525e-20 0.000505084 2.76558e-09
-0.0115468 1.35525e-20 0.000505284 1.73946e-06
0.0115468 0 0.000661266 2.85091e-09
-0.0115468 1.35525e-20 0.000661528 1.99685e-06
0.0115468 6.77626e-21 0.000824591 2.79738e-09
-0.0115468 1.35525e-20 0.000824855 2.29923e-06
0.0115468 0 0.00119315 2.95958e-09
-0.0115467 -6.77626e-21 0.00119341 2.51651e-06
0.0116176 0 9.47928e-05 2.59967e-09
-0.0116176 -1.35525e-20 9.48608e-05 1.44466e-06
-0.0116191 0 6.70009e-08 1.44442e-06
0.0116191 -1.35525e-20 6.69999e-08 2.60026e-09
0.0115467 0 0.00135627 2.98001e-09
-0.0115467 0 0.00135654 2.38039e-06
0.0116144 0 0.0005677 2.77632e-09
-0.0116144 0 0.000567955 1.86607e-06
0.0116106 0 0.000748261 2.79521e-09
-0.0116106 0 0.00074858 2.2e-06
0.0115467 6.77626e-21 0.00152892 2.89621e-09
-0.0115467 0 0.00152913 2.26878e-06
0.0116105 -1.35525e-20 0.00124687 3.01456e-09
-0.0116105 0 0.00124719 2.49409e-06
0.0116054 0 0.00142604 2.97288e-09
-0.0116054 0 0.00142632 2.34167e-06
0.0115467 0 0.00190897 3.04425e-09
-0.0115467 -6.77626e-21 0.00190903 2.16168e-06
0.0117276 1.35525e-20 6.63331e-08 5.62574e-09
-0.0117276 0 6.63357e-08 2.042e-06
0.0117103 2.71051e-20 0.000650308 3.91473e-09
-0.0117103 0 0.000650723 2.0987e-06
0.0115467 0 0.002087 3.48293e-09
-0.0115467 0 0.002087 2.32087e-06
0.011609 0 0.00193558 3.17853e-09
-0.011609 0 0.00193568 2.20078e-06
0.0117025 1.35525e-20 0.00130847 2.57019e-09
-0.0117026 6.77626e-21 0.00130891 2.08366e-06
0.0116004 0 0.00211165 3.46635e-09
-0.0116004 -1.35525e-20 0.00211165 2.23485e-06
0.0116425 1.35525e-20 0.00204724 3.44915e-09
-0.0116425 -1.35525e-20 0.0020473 2.24403e-06
-0.0116585 -1.35525e-20 0.00213828 2.45204e-06
0.0116585 1.35525e-20 0.00213829 3.89019e-09
0.0117067 0 0.00192887 2.94064e-09
-0.0117067 0 0.00192906 2.00283e-06
0.0118537 0 0.000958822 3.37989e-09
-0.0118537 4.51751e-21 0.000959338 2.41963e-06
0.0119178 -2.25875e-21 0.000318505 5.01955e-09
-0.0119179 6.77626e-21 0.000318753 2.12586e-06
0.011932 -1.35525e-20 7.04545e-08 6.47073e-09
-0.011932 1.35525e-20 7.04584e-08 2.25723e-06
0.0118325 -2.71051e-21 0.00163048 3.09161e-09
-0.0118325 8.13152e-21 0.00163082 2.16955e-06
0.0118724 -1.35525e-20 0.00142154 2.67187e-09
-0.0118724 0 0.00142207 1.97e-06
-0.0117616 1.35525e-20 0.0021856 2.49057e-06
0.0117616 -1.35525e-20 0.0021856 3.9577e-09
0.0118132 -8.13152e-20 0.00220929 5.01419e-09
-0.0118132 -2.71051e-20 0.00220929 2.92839e-06
0.0118989 -3.76459e-22 0.00195759 3.48528e-09
-0.0118989 1.12938e-21 0.00195776 2.30785e-06
0.0119718 0 0.00153816 2.24059e-09
-0.0119719 6.77626e-21 0.00153863 1.83535e-06
0.0120983 0 7.96199e-08 1.12727e-08
-0.0120983 1.35525e-20 7.96227e-08 3.46503e-06
0.0120694 -6.77626e-21 0.000852289 3.18342e-09
-0.0120695 6.77626e-21 0.000852887 2.07274e-06
0.0122081 0 0.000167029 1.19649e-08
-0.0122082 -2.71051e-20 0.000167211 4.21425e-06
0.012221 0 7.14643e-08 1.19662e-08
-0.012221 -1.35525e-20 7.14638e-08 4.21529e-06
0.0121684 -1.35525e-21 0.0012252 1.92267e-09
-0.0121684 4.51751e-22 0.00122579 1.36884e-06
-0.0120251 6.77626e-21 0.00230653 2.57797e-06
0.0120251 -2.71051e-20 0.00230654 4.35541e-09
0.0122349 -6.45358e-22 0.000642094 7.09096e-09
-0.0122349 -5.16287e-21 0.00064261 2.77991e-06
0.0120593 5.0822e-21 0.00232225 4.46209e-09
-0.0120595 0 0.00232234 2.62697e-06
0.0122855 2.71051e-20 6.71745e-08 1.43936e-08
-0.0122856 0 6.71712e-08 4.60945e-06
0.0122109 3.67048e-21 0.00173612 2.54605e-09
-0.012211 3.67048e-21 0.00173646 1.67809e-06
0.0121468 1.35525e-20 0.00214597 4.65175e-09
-0.0121468 0 0.00214607 2.73819e-06
0.0122263 6.77626e-21 0.00229069 4.89133e-09
-0.0122264 -6.77626e-21 0.00229083 2.83553e-06
0.0124605 1.35525e-20 5.58025e-08 1.7154e-08
-0.0124606 -2.71051e-20 5.57974e-08 5.93489e-06
0.0125121 2.1684e-20 0.000225072 1.8736e-08
-0.0125121 1.0842e-20 0.000225226 6.30709e-06
0.012289 0 0.00242767 5.6584e-09
-0.012289 -1.35525e-20 0.00242767 3.15679e-06
0.0125901 0 0.000921608 2.79716e-09
-0.0125902 2.71051e-20 0.000921969 1.11385e-06
-0.0124011 -6.77626e-21 0.00241706 3.01124e-06
0.0124011 1.35525e-20 0.00241705 5.28708e-09
-0.0123956 0 0.00247653 2.99759e-06
0.0123957 0 0.00247657 5.26957e-09
0.0124525 1.69407e-21 0.00218684 4.44961e-09
-0.0124526 1.69407e-21 0.00218694 2.5882e-06
0.0125382 1.35525e-20 0.00209398 3.58202e-09
-0.0125382 -1.35525e-20 0.00209412 2.17579e-06
0.0126447 2.71051e-21 0.00162104 1.5246e-09
-0.0126448 1.89735e-20 0.00162131 8.73313e-07
-0.012772 1.35525e-20 0.000141313 7.92498e-06
0.0127721 0 0.000141176 2.43131e-08
-0.0127747 0 1.51157e-08 7.91902e-06
0.0127748 2.71051e-20 1.51099e-08 2.42753e-08
0.0126132 2.71051e-21 0.00241893 5.9739e-09
-0.0126132 1.35525e-20 0.00241896 3.28082e-06
0.0125864 1.35525e-20 0.00256393 5.96154e-09
-0.0125864 -1.35525e-20 0.00256393 3.23839e-06
-0.0129279 -1.35525e-20 4.53136e-09 8.70364e-06
0.0129279 1.35525e-20 4.53058e-09 2.73746e-08
0.0129181 -6.77626e-21 0.000605291 1.53899e-08
-0.0129182 -9.03502e-21 0.000605505 5.06734e-06
0.0129069 0 0.00122264 2.40282e-09
-0.012907 -6.77626e-21 0.00122289 9.41745e-07
-0.0127465 0 0.00263727 4.44594e-06
0.0127465 5.42101e-20 0.0026373 9.51514e-09
0.0128746 0 0.00194104 2.39531e-09
-0.0128746 4.51751e-21 0.00194116 1.37747e-06
0.0130688 1.35525e-20 3.79635e-09 2.89807e-08
-0.0130689 -1.35525e-20 3.79672e-09 9.45194e-06
0.0130684 0 0.000129705 2.89547e-08
-0.0130685 -1.35525e-20 0.000129767 9.43867e-06
0.0129106 -4.51751e-21 0.00229685 5.74766e-09
-0.0129106 0 0.0022969 2.89938e-06
0.0131166 8.13152e-21 0.00164045 1.83363e-09
-0.0131166 -1.6263e-20 0.0016406 8.98736e-07
0.013248 0 0.000302942 3.19332e-08
-0.013248 0 0.000303006 1.04644e-05
-0.0129825 6.77626e-21 0.00274594 5.23209e-06
0.0129826 1.35525e-20 0.00274602 1.19308e-08
0.0132464 0 0.000911421 4.67795e-09
-0.0132464 0 0.000911568 1.61768e-06
-0.0131305 -9.03502e-21 0.00262462 5.27975e-06
0.0131306 -4.51751e-21 0.0026246 1.24813e-08
0.0132416 2.71051e-20 0.00211418 1.96628e-09
-0.0132416 0 0.00211424 1.11382e-06
0.0131188 1.35525e-20 0.00280831 1.37428e-08
-0.0131188 0 0.00280832 5.59218e-06
-0.013437 0 2.0837e-09 1.11481e-05
0.0134371 1.35525e-20 2.08334e-09 3.47008e-08
-0.0134397 0 0.000120678 1.11499e-05
0.0134397 0 0.00012062 3.47239e-08
0.0135679 0 1.40568e-09 3.79398e-08
-0.0135679 -1.35525e-20 1.40569e-09 1.14749e-05
0.0135763 9.03502e-21 0.000596651 2.20125e-08
-0.0135763 0 0.000596723 6.78908e-06
0.0135724 4.51751e-21 0.00122409 3.67221e-09
-0.0135724 2.25875e-21 0.00122418 1.24099e-06
-0.0133502 0 0.0029148 6.06653e-06
0.0133503 2.71051e-20 0.00291486 1.80621e-08
0.013478 6.77626e-21 0.00238371 8.47539e-09
-0.013478 0 0.00238375 3.17979e-06
0.0135677 -2.25875e-21 0.0018552 2.0565e-09
-0.0135677 -4.51751e-21 0.00185526 7.75132e-07
0.0136939 0 1.22236e-09 4.11902e-08
-0.013694 -1.35525e-20 1.2223e-09 1.19351e-05
0.0136952 1.35525e-20 0.000110031 4.1136e-08
-0.0136952 -1.35525e-20 0.000110068 1.19274e-05
-0.0135432 -2.03288e-20 0.00300515 7.43448e-06
0.0135435 2.03288e-20 0.00300527 2.58339e-08
-0.0139035 0 0.000294203 1.2661e-05
0.0139035 0 0.00029418 4.40093e-08
0.0135883 1.69407e-20 0.00302624 2.64138e-08
-0.0135884 3.38813e-21 0.00302627 7.46794e-06
0.0139156 0 0.000900725 6.71858e-09
-0.0139156 -5.42101e-20 0.000900773 2.24054e-06
-0.01368 2.25875e-21 0.00276396 6.68496e-06
0.0136801 4.51751e-21 0.00276395 2.2862e-08
0.0139126 0 0.00154323 2.00137e-09
-0.0139126 0 0.00154327 5.74446e-07
0.0138988 0 0.00219575 3.03518e-09
-0.0138988 0 0.00219579 8.54768e-07
-0.0141099 1.35525e-20 3.98814e-10 1.30901e-05
0.01411 2.71051e-20 3.98707e-10 5.38481e-08
-0.0141138 1.35525e-20 9.87891e-05 1.30909e-05
0.0141139 0 9.87469e-05 5.38825e-08
-0.0138007 0 0.00312567 6.48303e-06
0.0138008 1.35525e-20 0.00312569 2.48046e-08
0.0142228 -1.35525e-20 2.30663e-10 6.33418e-08
-0.0142228 0 2.30703e-10 1.31003e-05
0.0142415 0 0.000580985 3.61069e-08
-0.0142415 -2.25875e-21 0.000581003 7.89857e-06
0.0142522 -2.25875e-21 0.00120638 5.78555e-09
-0.0142522 1.12938e-21 0.0012064 1.55226e-06
0.0143301 0 2.07129e-10 7.16821e-08
-0.0143301 0 2.07152e-10 1.33579e-05
0.0143313 0 8.886e-05 7.15653e-08
-0.0143313 -1.35525e-20 8.88982e-05 1.33563e-05
-0.0139712 6.77626e-21 0.00320466 5.90085e-06
0.0139713 -6.77626e-21 0.00320471 2.70472e-08
0.0142441 -1.12938e-21 0.00187483 2.50197e-09
-0.0142441 -7.90564e-21 0.00187485 6.92287e-07
-0.0140734 -5.42101e-21 0.00302456 5.84711e-06
0.0140735 -2.71051e-21 0.00302455 2.60203e-08
0.0141851 -4.51751e-21 0.0026086 1.28091e-08
-0.0141851 -9.03502e-22 0.0026086 3.36383e-06
0.0140971 6.77626e-21 0.00326317 2.64541e-08
-0.0140971 6.77626e-21 0.00326321 5.60013e-06
0.0142075 1.35525e-20 0.0031652 2.54267e-08
-0.0142075 1.35525e-20 0.00316527 5.45887e-06
-0.0145609 0 0.00028173 1.37989e-05
0.0145609 -2.71051e-20 0.000281722 8.14459e-08
0.0145815 0 0.000874339 1.12652e-08
-0.0145815 5.42101e-20 0.000874352 2.66269e-06
0.0142358 0 0.00332756 2.33881e-08
-0.0142358 1.35525e-20 0.00332756 5.18792e-06
-0.0145905 0 0.00151944 7.12967e-07
0.0145905 5.42101e-20 0.00151943 3.05452e-09
-0.0145715 0 0.00221287 6.29187e-07
0.0145715 0 0.00221286 1.94687e-09
-0.0143572 0 0.00338359 5.02013e-06
0.0143573 1.35525e-20 0.00338361 2.41733e-08
0.0144402 -7.52918e-21 0.00302844 1.77897e-08
-0.0144402 -3.01167e-21 0.00302844 3.96698e-06
-0.0143824 0 0.00330546 5.02813e-06
0.0143824 1.35525e-20 0.00330544 2.393e-08
-0.0147853 1.35525e-20 4.21902e-11 1.39605e-05
0.0147853 0 4.21638e-11 9.09841e-08
-0.0147878 1.35525e-20 7.9557e-05 1.39611e-05
0.0147879 0 7.95089e-05 9.09436e-08
-0.0148815 1.35525e-20 2.04877e-11 1.38268e-05
0.0148815 1.35525e-20 2.04793e-11 1.02572e-07
0.0146215 5.42101e-20 0.00280141 4.72451e-09
-0.0146215 -2.71051e-20 0.00280142 1.36481e-06
0.0149014 -1.12938e-21 0.000554696 5.59719e-08
-0.0149014 2.25875e-21 0.000554698 8.50231e-06
-0.0145855 0 0.00326148 4.63324e-06
0.0145855 -2.71051e-20 0.00326148 2.24613e-08
0.014922 0 0.00116913 9.39839e-09
-0.014922 4.51751e-21 0.00116914 1.82761e-06
0.0149733 0 1.85822e-11 1.02383e-07
-0.0149733 0 1.85877e-11 1.40413e-05
0.0149737 0 7.37337e-05 1.02292e-07
-0.0149737 -1.35525e-20 7.37863e-05 1.40413e-05
0.0146079 0 0.00349938 2.97286e-08
-0.014608 -2.71051e-20 0.00349939 5.06009e-06
0.0149198 -5.64689e-21 0.00184898 3.25998e-09
-0.0149198 1.12938e-21 0.00184898 7.00649e-07
0.0146663 1.35525e-20 0.00343242 3.01843e-08
-0.0146663 0 0.00343245 5.07357e-06
0.0149195 -3.38813e-21 0.0025206 3.75182e-09
-0.0149195 0 0.00252061 8.74933e-07
0.0147322 1.35525e-20 0.00355672 3.44328e-08
-0.0147322 -1.35525e-20 0.00355672 5.21921e-06
0.0148881 -1.12938e-21 0.00309606 2.03432e-08
-0.0148881 0 0.00309607 3.30189e-06
-0.0152103 0 0.000264569 1.42025e-05
0.0152103 0 0.000264568 1.11041e-07
-0.0152372 2.71051e-20 0.0008328 3.00906e-06
0.0152372 -2.71051e-20 0.000832795 1.76981e-08
-0.0148482 2.03288e-20 0.00360995 5.91541e-06
0.0148482 -6.77626e-21 0.00360996 4.49836e-08
-0.0148928 1.35525e-20 0.00347705 5.72628e-06
0.0148929 1.35525e-20 0.00347703 4.19608e-08
-0.0152552 2.71051e-20 0.0014732 8.96658e-07
0.0152552 -2.71051e-20 0.00147319 5.39612e-09
-0.0152472 -5.42101e-20 0.00216845 5.65749e-07
0.0152472 0 0.00216845 2.68016e-09
-0.0154527 -6.77626e-21 2.80358e-12 1.39211e-05
0.0154528 0 2.79985e-12 1.51738e-07
-0.015454 -1.35525e-20 6.43525e-05 1.39208e-05
0.0154541 -6.77626e-21 6.42876e-05 1.51755e-07
0.0150217 2.71051e-20 0.0036898 4.99597e-08
-0.0150218 -2.71051e-20 0.00368982 5.95211e-06
0.0150966 -2.71051e-20 0.00340471 4.69866e-08
-0.0150966 0 0.00340473 5.9771e-06
0.0152385 -5.42101e-20 0.00284793 5.5472e-09
-0.0152385 0 0.00284795 8.74452e-07
0.0155345 -1.35525e-20 1.12383e-12 1.67504e-07
-0.0155345 0 1.12475e-12 1.3749e-05
0.015136 1.35525e-20 0.00358109 4.87146e-08
-0.0151361 0 0.00358111 5.76752e-06
-0.0155483 2.25875e-21 0.000512804 8.78013e-06
0.0155483 2.25875e-21 0.000512807 9.40427e-08
0.0156089 -6.77626e-21 5.68089e-05 1.55455e-07
-0.015609 -6.77626e-21 5.68715e-05 1.39012e-05
0.0156116 0 1.05225e-12 1.55423e-07
-0.0156117 6.77626e-21 1.05295e-12 1.39e-05
0.0151553 0 0.00375104 4.75479e-08
-0.0151554 0 0.00375106 5.40006e-06
0.0156 1.58113e-21 0.00110028 2.26161e-08
-0.0156001 -2.25875e-21 0.00110028 2.52231e-06
0.0155874 -1.12938e-21 0.0017884 6.16706e-09
-0.0155874 0 0.0017884 8.55369e-07
0.0152737 -1.35525e-20 0.00381165 5.0922e-08
-0.0152737 1.35525e-20 0.00381167 5.05306e-06
0.0153111 1.35525e-20 0.00369351 4.97111e-08
-0.0153111 0 0.00369353 5.07603e-06
0.0155684 -5.64689e-22 0.00250744 4.14537e-09
-0.0155684 1.12938e-21 0.00250745 6.98117e-07
-0.015842 -2.71051e-20 0.000233949 1.36303e-05
0.015842 0 0.000233939 1.94657e-07
0.0155233 -2.25875e-21 0.00325342 2.37725e-08
-0.0155233 4.51751e-22 0.00325344 2.86162e-06
-0.0158872 5.42101e-20 0.000762439 3.75506e-06
0.0158872 -2.71051e-20 0.000762443 4.14943e-08
0.0154852 0 0.00363865 4.868e-08
-0.0154853 0 0.00363867 4.75903e-06
0.0154926 -6.77626e-21 0.00391521 4.85118e-08
-0.0154927 1.35525e-20 0.00391523 4.58622e-06
-0.0159268 -2.71051e-20 0.00138121 1.37671e-06
0.0159268 2.71051e-20 0.00138121 1.1954e-08
0.0155593 0 0.00385211 4.72215e-08
-0.0155593 0 0.00385213 4.51567e-06
-0.0158994 -2.71051e-20 0.00212232 6.05001e-07
0.0158994 -2.71051e-20 0.00212231 4.89418e-09
0.0155753 0 0.0039559 4.45133e-08
-0.0155753 0 0.00395592 4.40734e-06
0.0158856 -2.71051e-20 0.00284658 3.53795e-09
-0.0158856 -2.71051e-20 0.00284659 7.42361e-07
0.0156482 0 0.0040035 4.38564e-08
-0.0156482 6.77626e-21 0.00400354 4.18055e-06
-0.0161504 -4.51751e-21 0.000464673 1.15528e-05
0.0161504 -7.34095e-21 0.000464663 1.89689e-07
0.0156709 1.35525e-20 0.00394832 4.37443e-08
-0.015671 0 0.00394834 4.20292e-06
0.0157655 1.50584e-21 0.00368363 3.25715e-08
-0.0157655 1.50584e-21 0.00368365 3.3412e-06
0.0162446 4.23516e-22 7.62403e-14 2.93784e-07
-0.016245 0 7.56613e-14 1.61636e-05
-0.0162671 -8.47033e-22 1.42355e-05 1.60962e-05
0.0162671 3.38813e-21 1.44936e-05 2.95877e-07
-0.0162672 0 1.74793e-06 1.62284e-05
0.0162714 0 1.43204e-06 2.99145e-07
0.0159384 -2.71051e-20 0.00346447 8.20009e-09
-0.0159385 0 0.00346449 1.26291e-06
-0.0162376 -5.64689e-23 0.00174471 1.3697e-06
0.0162376 -9.03502e-22 0.00174471 1.35232e-08
0.0163345 -2.25875e-21 0.000944398 9.30343e-08
-0.0163345 -2.25875e-21 0.000944389 7.564e-06
0.015896 5.42101e-20 0.00392571 4.04861e-08
-0.015896 2.71051e-20 0.00392573 3.90272e-06
-0.0162554 1.6134e-22 0.00244438 8.27749e-07
0.0162554 2.42009e-22 0.00244439 6.47861e-09
0.0159401 0 0.00419454 4.87893e-08
-0.0159401 -1.35525e-20 0.00419456 4.41061e-06
0.0162141 1.12938e-21 0.00317059 5.97656e-09
-0.0162141 -1.69407e-21 0.0031706 1.02522e-06
0.015999 0 0.0041493 4.91916e-08
-0.0159991 0 0.0041493 4.46241e-06
0.0160259 -1.35525e-20 0.00425061 5.25851e-08
-0.016026 1.35525e-20 0.00425065 4.75706e-06
-0.0166367 -9.41148e-23 0.00035282 1.63399e-05
0.0166368 1.8823e-22 0.000352947 3.11975e-07
0.0160815 1.35525e-20 0.00428686 4.99382e-08
-0.0160816 0 0.00428691 4.61197e-06
0.0161049 -1.35525e-20 0.004232 5.00757e-08
-0.0161051 0 0.00423203 4.62326e-06
0.0162263 -1.05879e-22 0.00384235 3.12564e-08
-0.0162266 -2.75286e-21 0.00384243 3.18257e-06
0.0162339 0 0.00382625 3.05398e-08
-0.016234 1.16467e-21 0.00382673 3.12136e-06
0.0162338 0 0.00384434 3.13156e-08
-0.0162398 8.15269e-21 0.00384585 3.18569e-06
-0.0167083 0 1.01673e-14 1.6613e-05
0.0167084 -1.35525e-20 1.01342e-14 3.33541e-07
0.0166691 -2.71051e-20 0.00146459 2.33357e-08
-0.0166691 -5.42101e-20 0.0014646 2.24501e-06
0.0165265 -2.71051e-20 0.00282079 4.9999e-09
-0.0165265 0 0.0028208 7.90652e-07
0.0161983 0 0.00436316 5.20322e-08
-0.0161985 -6.77626e-21 0.00436322 4.89142e-06
-0.0166645 5.42101e-20 0.00194622 1.24901e-06
0.0166645 2.71051e-20 0.00194622 1.4601e-08
0.0165187 2.71051e-20 0.00350445 6.83235e-09
-0.0165187 0 0.00350445 1.26608e-06
0.0169423 -1.35525e-20 1.10804e-15 3.35837e-07
-0.0169424 0 1.1016e-15 2.25195e-05
0.0163498 -1.35525e-20 0.00446209 5.73892e-08
-0.0163499 -1.35525e-20 0.00446209 5.30773e-06
0.0169271 0 0.000866322 1.50064e-07
-0.0169272 1.97641e-21 0.000866349 1.38923e-05
-0.0168736 -1.35525e-20 0.00168494 2.03361e-06
0.0168736 -1.35525e-20 0.00168494 2.28479e-08
0.0164548 1.12938e-21 0.00428001 5.85556e-08
-0.0164548 -2.25875e-21 0.00428001 5.33866e-06
0.0168849 0 0.00243442 1.17477e-08
-0.0168849 -1.83524e-21 0.00243442 1.20318e-06
-0.0164961 0 0.00455753 5.85107e-06
0.0164962 -1.35525e-20 0.0045576 6.0694e-08
0.0168359 1.69407e-21 0.00316003 7.16112e-09
-0.0168359 0 0.00316003 1.22e-06
-0.0171339 -1.35525e-20 1.75376e-16 2.69909e-05
0.0171341 -6.77626e-21 1.78371e-16 3.08373e-07
-0.0170775 5.42101e-20 0.00142436 3.01446e-06
0.0170775 5.42101e-20 0.00142435 3.39602e-08
-0.0171372 0 0.000271957 2.77915e-05
0.0171373 -4.06576e-21 0.000272005 3.06682e-07
-0.0170666 2.71051e-20 0.0019255 1.72004e-06
0.0170666 -2.71051e-20 0.0019255 2.09546e-08
0.0167863 2.25875e-21 0.00388663 2.50747e-08
-0.0167864 -1.12938e-21 0.00388663 2.97858e-06
-0.0166205 1.35525e-20 0.00463871 6.21408e-06
0.0166206 0 0.00463876 6.24023e-08
-0.0166523 1.35525e-20 0.00459983 6.2716e-06
0.0166524 0 0.00459991 6.32111e-08
-0.0166794 -1.35525e-20 0.00467709 6.83861e-06
0.0166794 0 0.00467712 6.93973e-08
-0.0168451 -7.05861e-22 0.00433528 5.26054e-06
0.0168452 -4.23516e-22 0.00433529 4.98636e-08
-0.0171764 2.71051e-20 0.00277492 1.20295e-06
0.0171764 2.71051e-20 0.00277493 9.79264e-09
0.0174301 0 3.0333e-16 3.1781e-07
-0.0174307 0 3.00573e-16 3.61903e-05
-0.0168042 -1.35525e-20 0.0046435 7.69077e-06
0.0168042 -1.35525e-20 0.00464355 7.80705e-08
-0.0167886 6.77626e-21 0.00474834 8.12447e-06
0.0167886 -6.77626e-21 0.00474833 8.19957e-08
0.0174491 6.77626e-21 0.000139018 3.18488e-07
-0.0174496 0 0.000138437 3.70199e-05
0.0171294 0 0.00350657 7.10778e-09
-0.0171294 -2.71051e-20 0.00350657 1.61016e-06
-0.0175669 0 -2.94673e-17 4.10343e-05
0.0175669 0 -2.95019e-17 3.28946e-07
0.0175583 7.05861e-22 0.000896586 1.9521e-07
-0.0175584 -2.82344e-22 0.000896624 2.51869e-05
0.0175189 1.41172e-22 0.00167529 4.31635e-08
-0.0175189 -2.82344e-22 0.00167528 4.00898e-06
-0.0176062 -6.77626e-21 4.62814e-05 4.31613e-05
0.0176065 -6.77626e-21 4.65287e-05 3.21915e-07
-0.0176089 -6.77626e-21 -8.32258e-18 4.31668e-05
0.0176092 0 -8.282e-18 3.21946e-07
-0.0171399 -2.71051e-20 0.00413685 2.83695e-06
0.0171399 0 0.00413685 1.50783e-08
-0.0176343 6.77626e-21 -4.6544e-18 4.31487e-05
0.0176347 0 -4.56016e-18 3.23208e-07
-0.0170445 -2.71051e-20 0.00462908 8.4877e-06
0.0170445 -2.71051e-20 0.00462909 8.34302e-08
0.0175376 0 0.00228764 2.27974e-08
-0.0175376 5.64689e-22 0.00228764 2.04447e-06
-0.0170023 1.35525e-20 0.00488772 9.62437e-06
0.0170024 2.71051e-20 0.00488778 9.64959e-08
-0.0176972 0 4.73799e-05 4.47201e-05
0.0176979 0 4.76325e-05 3.23524e-07
-0.0177006 6.77626e-21 -1.62136e-17 4.47158e-05
0.0177013 0 -1.6163e-17 3.23525e-07
-0.0174646 9.03502e-22 0.00310782 1.74134e-06
0.0174646 1.58113e-21 0.00310783 1.21468e-08
-0.0171112 1.35525e-20 0.00481655 9.71725e-06
0.0171113 -1.35525e-20 0.00481662 9.77186e-08
-0.0171346 0 0.00497401 1.00086e-05
0.0171346 -1.35525e-20 0.00497404 9.83248e-08
0.0174342 1.12938e-21 0.00383428 1.14861e-08
-0.0174342 -1.12938e-21 0.00383428 2.53942e-06
-0.0172171 2.71051e-20 0.00502788 1.06099e-05
0.0172172 0 0.0050279 1.00781e-07
-0.0172554 0 0.00493142 1.0488e-05
0.0172555 -2.71051e-20 0.00493146 1.00873e-07
-0.0174076 3.76459e-21 0.00453333 7.14489e-06
0.0174076 1.69407e-21 0.00453333 6.1945e-08
0.0177905 -5.42101e-20 0.00276844 1.82548e-08
-0.0177905 -2.71051e-20 0.00276844 1.83452e-06
-0.0177573 -2.71051e-20 0.00348298 2.20959e-06
0.0177573 2.71051e-20 0.00348298 9.90702e-09
0.017378 0 0.0051328 1.04942e-07
-0.017378 0 0.00513282 1.17522e-05
-0.0174497 0 0.0051796 1.20378e-05
0.0174497 0 0.0051796 1.08953e-07
0.0177264 0 0.00417355 1.35389e-08
-0.0177264 2.71051e-20 0.00417356 3.47481e-06
-0.0175028 0 0.00510092 1.18947e-05
0.0175028 0 0.00510089 1.10477e-07
-0.0181612 5.42101e-20 0.00171797 4.29336e-06
0.0181612 0 0.00171797 5.47681e-08
-0.0175201 6.77626e-21 0.00522551 1.287e-05
0.0175201 6.77626e-21 0.00522552 1.12961e-07
-0.0182822 -5.42101e-20 0.00051562 6.27518e-05
0.0182823 -5.42101e-20 0.000515625 3.75834e-07
-0.0181327 -1.05879e-22 0.00240415 2.76456e-06
0.0181321 0 0.00240536 3.21945e-08
0.0181317 0 0.00242421 3.18573e-08
-0.0181316 -9.52912e-22 0.00242445 2.76056e-06
0.0176138 3.01167e-21 0.0049468 1.07525e-07
-0.0176138 -1.50584e-21 0.0049468 1.10827e-05
-0.0180947 1.69407e-21 0.00311468 2.62236e-06
0.0180947 -5.64689e-22 0.00311468 1.98094e-08
-0.0180563 0 0.00382342 3.55819e-06
0.0180563 -1.12938e-21 0.00382342 1.37782e-08
0.0177083 -1.35525e-20 0.00534825 1.19068e-07
-0.0177083 0 0.00534827 1.48412e-05
0.0177631 0 0.00528871 1.21619e-07
-0.0177632 1.35525e-20 0.00528871 1.48265e-05
0.0179883 2.25875e-21 0.00454808 4.39911e-08
-0.0179883 -2.25875e-21 0.00454808 6.74782e-06
0.0178024 -2.71051e-20 0.00540965 1.4172e-07
-0.0178024 0 0.00540968 1.62839e-05
-0.0184402 -2.71051e-20 0.00274762 2.72643e-06
0.0184402 0 0.00274762 3.18414e-08
0.0180052 -1.35525e-21 0.00502463 9.73274e-08
-0.0180053 -9.03502e-22 0.00502464 1.21156e-05
-0.0183918 0 0.00345433 3.67024e-06
0.0183918 2.71051e-20 0.00345433 1.90749e-08
0.0179451 6.77626e-21 0.00550275 1.81966e-07
-0.0179452 2.71051e-20 0.0055028 2.04365e-05
0.0183611 -2.71051e-20 0.0041536 1.27625e-08
-0.0183611 -2.71051e-20 0.0041536 4.84532e-06
-0.0188422 -1.35525e-20 7.03791e-05 6.9995e-05
0.0188422 0 7.03242e-05 4.64024e-07
-0.0188477 -1.35525e-20 1.08477e-18 7.00024e-05
0.0188478 0 1.12113e-18 4.64102e-07
0.0188602 -1.12938e-21 0.00112833 2.8441e-07
-0.0188602 -4.51751e-21 0.00112833 3.93794e-05
0.0180592 -2.03288e-20 0.00557718 1.90645e-07
-0.0180592 0 0.00557719 2.165e-05
0.0181347 4.51751e-21 0.00538307 1.76254e-07
-0.0181347 0 0.00538308 1.98635e-05
0.018942 0 6.18177e-19 4.80621e-07
-0.018942 1.35525e-20 6.20531e-19 7.14686e-05
-0.0188166 -2.25875e-21 0.00228404 4.45666e-06
0.0188166 -1.12938e-21 0.00228404 5.83262e-08
0.0183535 0 0.00480354 2.44662e-08
-0.0183535 2.71051e-20 0.00480354 6.79442e-06
0.0187311 9.88205e-22 0.00307208 3.59503e-08
-0.0187311 -2.82344e-22 0.00307209 3.83577e-06
0.0190249 -1.35525e-20 8.51688e-05 4.96909e-07
-0.019025 1.35525e-20 8.52513e-05 7.30258e-05
0.0190314 0 5.64137e-19 4.97116e-07
-0.0190315 0 5.6594e-19 7.30429e-05
0.0182204 1.35525e-20 0.00568235 1.84069e-07
-0.0182205 -2.71051e-20 0.00568237 2.11283e-05
0.0187398 3.17637e-22 0.00374577 2.54375e-08
-0.0187398 5.29396e-22 0.00374577 5.28072e-06
0.0186713 -3.38813e-21 0.00447941 2.09425e-08
-0.0186713 -4.51751e-21 0.00447941 6.99002e-06
0.0183607 2.71051e-20 0.00577387 2.05265e-07
-0.0183608 -1.35525e-20 0.00577391 2.2048e-05
0.018471 5.42101e-21 0.00561102 1.94771e-07
-0.018471 -1.35525e-20 0.00561103 2.14266e-05
0.0186129 2.71051e-21 0.00519726 9.36217e-08
-0.0186129 0 0.00519727 1.40721e-05
-0.0191646 -2.71051e-20 0.00284903 4.62463e-06
0.0191646 0 0.00284904 5.90184e-08
0.0184854 -1.35525e-20 0.00585516 2.06393e-07
-0.0184854 0 0.00585517 2.32614e-05
-0.0191555 -2.71051e-20 0.00330159 5.50039e-06
0.0191555 -2.71051e-20 0.00330159 4.72438e-08
-0.0190101 -2.71051e-20 0.00412451 7.39591e-06
0.0190101 -2.71051e-20 0.00412451 2.63054e-08
0.0185921 0 0.00576697 1.98975e-07
-0.0185922 -1.35525e-20 0.00576697 2.32759e-05
0.0186006 1.35525e-20 0.0059303 1.79466e-07
-0.0186006 0 0.00593032 2.33091e-05
0.0195234 0 0.000571323 5.83764e-07
-0.0195235 -5.42101e-20 0.000571337 8.02379e-05
0.0194631 0 0.00176849 1.03335e-07
-0.0194631 0 0.0017685 7.21981e-06
0.0194127 -7.05861e-22 0.00241319 8.06268e-08
-0.0194127 -4.23516e-22 0.0024132 5.94834e-06
0.0189749 -2.71051e-20 0.00481042 2.02205e-08
-0.0189749 -2.71051e-20 0.00481043 8.9146e-06
-0.0193686 -1.35525e-20 0.00306998 5.81299e-06
0.0193686 1.35525e-20 0.00306998 6.43672e-08
0.0188275 4.51751e-21 0.00563325 1.40283e-07
-0.0188275 0 0.00563325 2.00728e-05
0.0187165 1.35525e-20 0.00600598 1.97315e-07
-0.0187166 6.77626e-21 0.006006 2.56637e-05
0.018758 -2.71051e-20 0.00590202 1.92283e-07
-0.0187581 -1.35525e-20 0.00590202 2.50113e-05
-0.0193727 7.05861e-22 0.00376105 8.08492e-06
0.0193727 -9.88205e-22 0.00376105 5.35862e-08
0.0190128 2.71051e-20 0.00540895 3.73755e-08
-0.0190128 2.71051e-20 0.00540896 1.19629e-05
0.0195979 0 0.00284199 8.30765e-08
-0.0195979 0 0.00284199 6.45331e-06
-0.0193152 2.25875e-21 0.00445137 9.93237e-06
0.0193152 4.51751e-21 0.00445137 3.71726e-08
0.0189326 0 0.00587663 1.8833e-07
-0.0189326 0 0.00587663 2.62373e-05
0.0188663 0 0.00610388 2.18201e-07
-0.0188663 6.77626e-21 0.00610386 2.76495e-05
0.0195613 -2.71051e-20 0.00328798 7.17862e-08
-0.0195614 2.71051e-20 0.00328799 6.97762e-06
0.0189889 0 0.00604039 2.23444e-07
-0.018989 -1.35525e-20 0.00604037 2.79581e-05
-0.0192967 4.51751e-21 0.00511377 1.25428e-05
0.0192967 4.51751e-21 0.00511377 3.43058e-08
0.0190006 0 0.00619147 2.26058e-07
-0.0190007 0 0.00619146 2.82667e-05
-0.0200621 0 6.76646e-05 8.24778e-05
0.0200622 0 6.75697e-05 6.62581e-07
-0.020064 0 4.17803e-20 8.24612e-05
0.0200641 0 4.14469e-20 6.62219e-07
0.0196641 -2.71051e-20 0.0040803 6.18828e-08
-0.0196641 2.71051e-20 0.0040803 1.03475e-05
0.0190835 0 0.00626078 2.35597e-07
-0.0190836 0 0.00626078 2.91547e-05
0.0191312 0 0.00616557 2.36216e-07
-0.0191313 1.35525e-20 0.00616556 2.90955e-05
0.0201001 0 0.00115693 4.10557e-07
-0.0201001 0 0.00115692 4.68872e-05
0.020134 0 -1.74266e-22 6.73788e-07
-0.020134 0 -2.54554e-22 8.28776e-05
0.0192828 -3.76459e-22 0.00579514 1.4677e-07
-0.0192828 -2.25875e-21 0.00579514 2.28161e-05
0.0196202 0 0.00477317 4.08031e-08
-0.0196202 0 0.00477317 1.30288e-05
0.020199 0 6.46581e-05 6.85835e-07
-0.0201991 0 6.4737e-05 8.33397e-05
0.0202019 0 -1.24442e-21 6.85953e-07
-0.020202 0 -1.29903e-21 8.33421e-05
-0.0200841 -1.12938e-21 0.00236289 9.08491e-06
0.0200841 0 0.00236289 1.25129e-07
0.0200029 -1.41172e-22 0.00305699 1.04393e-07
-0.0200052 0 0.00305579 8.37018e-06
0.0192378 0 0.00638365 2.4638e-07
-0.0192378 6.77626e-21 0.00638366 2.92165e-05
-0.0195959 0 0.00544033 1.63874e-05
0.0195959 2.71051e-20 0.00544033 3.89185e-08
0.019304 6.77626e-21 0.00643682 2.60197e-07
-0.019304 6.77626e-21 0.00643682 3.00202e-05
0.0200275 2.25875e-21 0.00361572 9.89742e-08
-0.0200275 -1.12938e-21 0.00361572 1.06861e-05
-0.0193634 6.77626e-21 0.00636554 3.03966e-05
0.0193634 0 0.00636554 2.66435e-07
-0.0193735 1.35525e-20 0.00649741 2.959e-05
0.0193735 -6.77626e-21 0.00649743 2.57704e-07
0.01996 -1.807e-21 0.00438812 8.25278e-08
-0.01996 -4.51751e-22 0.00438812 1.36162e-05
0.0194904 0 0.00622238 2.65494e-07
-0.0194904 -3.01167e-21 0.00622238 3.07051e-05
-0.019924 -1.12938e-21 0.00509886 1.74839e-05
0.019924 3.38813e-21 0.00509886 5.75189e-08
-0.0195415 0 0.00664815 2.84571e-05
0.0195416 0 0.00664816 2.53105e-07
0.0202851 0 0.004065 1.23068e-07
-0.0202851 0 0.004065 1.37486e-05
-0.0198605 0 0.00581201 2.37352e-05
0.0198605 0 0.005812 1.1267e-07
-0.0196164 2.71051e-20 0.00659814 2.88011e-05
0.0196164 0 0.00659815 2.59014e-07
0.0207232 -1.0842e-19 0.00058077 7.68708e-07
-0.0207232 0 0.000580775 8.5757e-05
-0.0196178 -2.71051e-20 0.00671647 3.05931e-05
0.0196178 0 0.00671648 2.87972e-07
0.020698 0 0.00176855 1.70385e-07
-0.020698 5.42101e-20 0.00176856 1.18996e-05
0.020263 2.71051e-20 0.00474092 9.77837e-08
-0.020263 5.42101e-20 0.00474092 1.81818e-05
-0.0196919 -1.35525e-20 0.00678278 2.9535e-05
0.0196919 -2.71051e-20 0.00678278 2.53507e-07
-0.0197373 0 0.00670395 2.96868e-05
0.0197373 2.71051e-20 0.00670395 2.59014e-07
0.0206519 -5.42101e-20 0.0030578 1.61743e-07
-0.0206519 0 0.00305779 1.20036e-05
-0.0199196 -1.6134e-22 0.00639127 2.81269e-05
0.0199196 2.42009e-22 0.00639127 2.00385e-07
-0.0202264 -5.42101e-20 0.00542437 2.22904e-05
0.0202264 2.71051e-20 0.00542436 5.37613e-08
0.020622 1.41172e-22 0.00374914 1.69966e-07
-0.0206228 2.82344e-22 0.00375114 1.61079e-05
0.0198641 0 0.00693691 2.605e-07
-0.0198641 0 0.00693695 3.01852e-05
-0.0205958 0 0.00438945 1.89787e-05
0.0205958 0 0.00438945 1.5914e-07
-0.0202261 0 0.00606703 2.45137e-05
0.0202261 0 0.00606702 5.42848e-08
-0.019943 -6.77626e-21 0.00700755 3.09942e-05
0.019943 0 0.00700753 2.65735e-07
-0.0200066 6.77626e-21 0.00693928 3.14744e-05
0.0200066 -6.77626e-21 0.00693924 2.73199e-07
0.0205707 2.25875e-21 0.00506212 1.21562e-07
-0.0205707 2.25875e-21 0.00506213 2.382e-05
-0.0200223 1.35525e-20 0.00707846 3.04435e-05
0.0200223 6.77626e-21 0.00707846 2.64538e-07
-0.0201294 6.02335e-21 0.0068093 3.21389e-05
0.0201294 -7.52918e-21 0.00680928 2.72933e-07
-0.0212882 -6.77626e-21 4.76376e-05 8.44253e-05
0.0212882 -6.77626e-21 4.75779e-05 8.37307e-07
-0.0212888 -6.77626e-21 7.04351e-22 8.44255e-05
0.0212889 -6.77626e-21 7.21822e-22 8.37183e-07
-0.0209335 -2.71051e-20 0.00403737 2.0561e-05
0.0209335 -2.71051e-20 0.00403737 2.19795e-07
-0.0205488 -2.25875e-21 0.00572803 2.74384e-05
0.0205489 0 0.00572803 8.01931e-08
0.0213388 0 -2.89833e-23 8.43153e-07
-0.0213388 6.77626e-21 -2.82364e-23 8.43649e-05
0.0213183 1.12938e-21 0.00116254 5.29532e-07
-0.0213183 -1.12938e-21 0.00116254 5.02383e-05
0.0213863 -6.77626e-21 4.6423e-05 8.49659e-07
-0.0213864 -6.77626e-21 4.64792e-05 8.43848e-05
0.0213874 0 -2.69e-23 8.49691e-07
-0.0213874 0 -2.61819e-23 8.43846e-05
0.0208978 -2.71051e-20 0.00471075 1.9454e-07
-0.0208978 -5.42101e-20 0.00471075 2.3348e-05
0.0212954 1.69407e-21 0.00239197 2.34311e-07
-0.0212955 1.12938e-21 0.00239197 1.6958e-05
-0.0201947 0 0.00723276 2.96543e-05
0.0201949 -1.35525e-20 0.00723272 2.65415e-07
0.0204968 0 0.00642258 1.28766e-07
-0.0204968 -2.25875e-21 0.00642259 2.96318e-05
-0.0202705 0 0.0071837 2.99599e-05
0.0202706 -2.71051e-20 0.00718367 2.71715e-07
-0.0202683 -2.71051e-20 0.00729859 3.17182e-05
0.0202684 0 0.00729853 3.06181e-07
-0.0208996 -2.71051e-20 0.00536219 3.13171e-05
0.0208996 2.71051e-20 0.00536218 1.38342e-07
-0.0203418 -2.71051e-20 0.00736427 3.04788e-05
0.0203419 0 0.00736419 2.69052e-07
-0.0213396 -1.69407e-22 0.00363555 2.30068e-05
0.0213396 5.64689e-22 0.00363554 2.89112e-07