# kMean  POINT_DATA 16415
# x  y  z  kMean
0 0.0199996 6.27196e-08 5.44849e-10
0 -0.0199996 6.27196e-08 1.50301e-06
6.77626e-21 0.0199996 0.000164428 5.58141e-10
-6.77626e-21 -0.0199996 0.000164406 1.50881e-06
0 0.0199996 0.000494301 6.10642e-10
0 -0.0199996 0.00049425 1.77415e-06
6.77626e-21 0.0199996 0.00066126 6.57158e-10
0 -0.0199996 0.000661186 2.06723e-06
0 0.0199996 0.000837191 7.33045e-10
-3.38813e-21 -0.0199996 0.000837103 2.36508e-06
-6.77626e-21 0.0199996 0.00118069 7.80331e-10
-6.77626e-21 -0.0199996 0.00118063 2.51941e-06
0 0.0199996 0.00135639 7.60809e-10
0 -0.0199996 0.0013563 2.39847e-06
-3.38813e-21 0.0199996 0.0015402 7.71295e-10
0 -0.0199996 0.00154013 2.2562e-06
6.77626e-21 0.0200767 6.65771e-05 5.3786e-10
-6.77626e-21 -0.0200767 6.65774e-05 1.47117e-06
0 -0.0200781 6.52655e-08 1.47124e-06
6.77626e-21 0.0200781 6.52653e-08 5.379e-10
6.77626e-21 -0.0200799 0.000590145 1.89402e-06
-6.77626e-21 0.0200799 0.000590186 6.21003e-10
6.77626e-21 -0.0200759 0.000728686 2.14671e-06
6.77626e-21 0.0200759 0.000728732 6.73707e-10
-6.77626e-21 0.0199996 0.00190617 8.65014e-10
0 -0.0199996 0.00190616 2.52277e-06
-6.77626e-21 0.0199996 0.002087 9.97077e-10
6.77626e-21 -0.0199996 0.002087 2.98261e-06
-6.77626e-21 -0.0200757 0.00127182 2.39107e-06
-6.77626e-21 0.0200757 0.00127186 7.48561e-10
0 -0.0200724 0.00141161 2.27636e-06
0 0.0200724 0.00141166 7.45793e-10
6.77626e-21 0.0201349 6.62416e-08 8.73853e-10
-6.77626e-21 -0.0201349 6.62417e-08 1.81522e-06
0 -0.0201347 0.00065501 2.04131e-06
-2.03288e-20 0.0201347 0.000655012 7.57309e-10
0 -0.0200697 0.0019779 2.6845e-06
-6.77626e-21 0.0200697 0.0019779 8.90518e-10
6.77626e-21 -0.0201289 0.00132677 2.0701e-06
0 0.0201289 0.00132677 6.44116e-10
1.35525e-20 -0.0200872 0.00211021 3.05753e-06
0 0.0200872 0.00211021 9.69318e-10
0 0.0201043 0.00206081 9.45402e-10
0 -0.0201043 0.00206081 2.9582e-06
0 0.0201291 0.00199353 8.2698e-10
-6.77626e-21 -0.0201292 0.00199355 2.57393e-06
0 0.0201574 0.00212882 1.0708e-09
-6.77626e-21 -0.0201575 0.00212883 3.0742e-06
6.77626e-21 0.020211 0.00203549 9.08084e-10
-6.77626e-21 -0.020211 0.0020355 2.7751e-06
2.03288e-20 -0.0203752 7.14254e-08 1.48516e-06
0 0.0203752 7.14225e-08 6.10864e-10
1.12938e-21 0.0203552 0.000964466 6.6879e-10
-6.77626e-22 -0.0203552 0.000964545 2.27461e-06
-1.12938e-21 0.0203848 0.000318457 6.75344e-10
-1.807e-21 -0.0203849 0.00031848 1.55164e-06
7.52918e-22 0.0203485 0.00158856 6.004e-10
-7.52918e-22 -0.0203485 0.00158862 1.84768e-06
0 0.0204541 7.18967e-08 1.09861e-09
-1.69407e-21 -0.0204543 7.19036e-08 1.97903e-06
1.01644e-20 0.0203479 0.0020921 9.03334e-10
-1.01644e-20 -0.0203479 0.00209209 2.71545e-06
1.35525e-20 0.0203454 0.00217864 1.0254e-09
-3.38813e-20 -0.0203455 0.00217865 2.92572e-06
0 0.0204014 0.00198907 9.38255e-10
0 -0.0204014 0.00198909 2.73855e-06
2.71051e-20 -0.0204481 0.00220585 3.55028e-06
-2.71051e-20 0.0204481 0.00220585 1.4321e-09
-6.77626e-21 0.0206171 7.35991e-08 2.43625e-09
0 -0.0206171 7.36088e-08 3.37291e-06
-6.77626e-21 0.0206345 0.00124176 5.73289e-10
4.51751e-21 -0.0206345 0.00124188 1.82837e-06
-6.77626e-21 -0.0206728 7.48735e-08 3.36271e-06
0 0.0206729 7.48661e-08 2.39657e-09
1.35525e-20 -0.0206741 6.9881e-05 3.35933e-06
6.77626e-21 0.0206742 7.00029e-05 2.39281e-09
-1.12938e-21 0.0206668 0.000657308 1.35264e-09
-1.12938e-21 -0.0206668 0.000657428 2.59965e-06
2.03288e-21 -0.0206275 0.00169452 1.96833e-06
6.77626e-22 0.0206275 0.00169445 6.87564e-10
0 -0.0205976 0.00224546 3.65611e-06
1.35525e-20 0.0205976 0.00224546 1.6023e-09
6.77626e-21 -0.0208219 8.13377e-08 4.14232e-06
-6.77626e-21 0.0208221 8.134e-08 2.89253e-09
0 -0.0208462 0.000330913 4.42897e-06
0 0.0208462 0.000330886 3.40289e-09
0 0.0208502 0.000953774 8.43634e-10
1.35525e-20 -0.0208502 0.00095382 2.40776e-06
0 0.0208443 0.00153524 6.55152e-10
-1.35525e-20 -0.0208443 0.00153527 1.81556e-06
5.64689e-22 -0.0208065 0.00198302 3.46674e-06
-8.47033e-22 0.0208065 0.00198301 1.5413e-09
0 0.0209013 0.00232596 2.13477e-09
1.35525e-20 -0.0209014 0.00232597 4.56873e-06
0 0.0210643 9.15077e-05 3.9688e-09
-1.35525e-20 -0.0210643 9.14935e-05 5.5217e-06
0 0.021067 7.81657e-08 3.93117e-09
1.35525e-20 -0.021067 7.81689e-08 5.495e-06
0 0.0209628 0.00234226 2.26222e-09
-6.77626e-21 -0.0209629 0.00234226 4.86274e-06
0 -0.0210006 0.00235227 5.05245e-06
-6.77626e-21 0.0210007 0.00235228 2.33347e-09
0 -0.0211368 7.77048e-08 5.78754e-06
0 0.0211368 7.77005e-08 3.79665e-09
0 -0.021129 0.00122301 1.28531e-06
1.807e-20 0.021129 0.00122301 4.84308e-10
-5.80823e-21 -0.0211316 0.00168768 1.9664e-06
5.80823e-21 0.0211316 0.00168768 7.50516e-10
3.38813e-21 -0.0210927 0.00225836 5.20388e-06
0 0.0210929 0.00225827 2.3327e-09
0 -0.0212074 0.000639288 3.80031e-06
2.25875e-21 0.0212074 0.000639306 2.33574e-09
0 -0.0212432 6.9494e-08 6.43566e-06
0 0.0212432 6.94876e-08 4.1795e-09
6.77626e-21 -0.0212484 0.000106495 6.49584e-06
-6.77626e-21 0.0212484 0.000106533 4.22165e-09
-3.38813e-21 -0.0211906 0.00240261 5.53316e-06
-3.38813e-21 0.0211908 0.00240268 2.62734e-09
1.12938e-21 0.0213439 0.00202515 2.11487e-09
-1.12938e-21 -0.0213439 0.00202511 5.0235e-06
6.77626e-21 -0.021371 0.00245038 6.08238e-06
0 0.021371 0.00245038 2.95651e-09
-6.77626e-21 -0.0213837 0.00242604 6.06952e-06
0 0.0213837 0.00242606 2.9337e-09
9.03502e-21 -0.0214676 0.00151463 1.14372e-06
-2.25875e-21 0.0214676 0.00151468 4.43553e-10
6.77626e-21 -0.0215176 0.000962595 1.67219e-06
2.25875e-21 0.0215177 0.000962668 8.65795e-10
1.35525e-20 -0.0215442 0.000394974 7.08684e-06
2.71051e-21 0.0215442 0.000395021 4.51985e-09
6.77626e-21 0.0214146 0.00239572 2.74356e-09
0 -0.0214146 0.00239566 5.75159e-06
0 0.0214165 0.00246241 2.90879e-09
0 -0.0214166 0.00246244 6.05708e-06
1.35525e-20 0.0216582 0.000128728 5.62189e-09
-1.35525e-20 -0.0216582 0.000128716 8.38514e-06
1.35525e-20 0.021662 1.14539e-08 5.60494e-09
1.35525e-20 -0.021662 1.14538e-08 8.35825e-06
0 -0.0217415 0.00061236 4.8377e-06
0 0.0217415 0.000612448 3.01186e-09
0 -0.021737 0.00121888 1.07216e-06
0 0.021737 0.00121897 4.7522e-10
-3.38813e-20 0.0216411 0.00252171 2.9301e-09
2.03288e-20 -0.0216411 0.00252171 6.11265e-06
-1.35525e-20 0.02179 2.37922e-09 5.79872e-09
0 -0.02179 2.37986e-09 8.7427e-06
-2.71051e-20 -0.02171 0.00187069 2.49854e-06
0 0.02171 0.00187073 1.01487e-09
-1.12938e-21 0.0216778 0.00229011 2.79069e-09
3.76459e-22 -0.0216778 0.00229006 5.95638e-06
1.35525e-20 -0.0219185 2.30167e-09 9.69744e-06
0 0.0219185 2.30112e-09 6.68237e-09
1.35525e-20 -0.0219202 0.000137039 9.78545e-06
0 0.0219202 0.000137059 6.74762e-09
1.35525e-20 -0.0218193 0.00256902 5.68316e-06
0 0.0218193 0.00256904 2.59937e-09
-5.42101e-21 -0.0219845 0.000395978 9.48055e-06
0 0.0219845 0.000396036 6.63469e-09
0 0.0219638 0.00229023 1.92335e-09
-1.12938e-21 -0.0219638 0.00229019 4.56374e-06
0 -0.022074 0.000916584 2.28772e-06
6.77626e-21 0.022074 0.000916678 1.43797e-09
0 0.0219561 0.00252866 2.27131e-09
0 -0.0219561 0.00252862 5.35283e-06
2.25875e-21 -0.0220578 0.00154554 1.06211e-06
-2.25875e-21 0.0220578 0.00154561 4.35168e-10
-6.77626e-21 0.0219646 0.00260748 2.20764e-09
6.77626e-21 -0.0219646 0.00260749 5.2877e-06
-9.03502e-21 -0.0220661 0.00204937 2.55211e-06
-9.03502e-21 0.0220661 0.00204941 9.04504e-10
0 0.0222375 0.000149296 8.05237e-09
0 -0.0222375 0.000149275 1.18239e-05
0 0.0222467 3.22447e-09 8.02631e-09
1.35525e-20 -0.0222467 3.22463e-09 1.17984e-05
0 -0.0221409 0.00250159 5.35631e-06
-5.42101e-21 0.0221409 0.00250164 2.25288e-09
1.35525e-20 -0.0221239 0.0026495 5.39819e-06
-1.35525e-20 0.022124 0.00264953 2.25795e-09
-7.7443e-21 -0.0223263 0.000544462 8.65915e-06
-7.7443e-21 0.0223263 0.000544533 5.76442e-09
-2.71051e-20 -0.0223861 3.1175e-09 1.21953e-05
1.35525e-20 0.0223861 3.11743e-09 7.8215e-09
-2.71051e-20 -0.0223888 0.00123042 1.3343e-06
-2.71051e-20 0.0223888 0.00123052 6.90276e-10
0 -0.022362 0.00189325 2.31227e-06
-2.71051e-20 0.0223621 0.00189332 9.99401e-10
0 -0.022297 0.00269531 6.41951e-06
0 0.0222971 0.00269532 3.20382e-09
0 0.0223597 0.00232905 1.9963e-09
-1.41172e-22 -0.0223597 0.00232902 4.52575e-06
0 -0.0225373 3.03017e-09 1.29635e-05
-1.35525e-20 0.0225373 3.03008e-09 7.91829e-09
0 -0.0225385 0.000146314 1.29563e-05
-1.35525e-20 0.0225385 0.00014633 7.91606e-09
-2.25875e-21 -0.0227012 0.000916189 3.15908e-06
-2.25875e-21 0.0227012 0.000916249 1.78245e-09
0 -0.0226844 0.00155924 1.14979e-06
6.77626e-21 0.0226844 0.0015593 5.20693e-10
-9.03502e-21 -0.0227492 0.000352729 1.24495e-05
9.03502e-21 0.0227492 0.000352757 7.24694e-09
-1.52466e-20 0.0226133 0.00278009 3.21997e-09
1.56701e-20 -0.0226135 0.00278015 6.82308e-06
1.69407e-21 -0.0226203 0.00278197 6.83421e-06
-1.99053e-20 0.0226205 0.00278201 3.22728e-09
-1.12938e-20 -0.0227193 0.00214001 2.37198e-06
6.77626e-21 0.0227194 0.00214006 1.10562e-09
0 -0.0226787 0.00257543 6.55367e-06
0 0.0226787 0.00257546 3.08968e-09
2.71051e-20 -0.0228459 3.0686e-09 1.43471e-05
-1.35525e-20 0.0228459 3.06837e-09 8.33057e-09
-2.71051e-20 -0.0230054 2.97292e-09 1.47384e-05
2.71051e-20 0.0230055 2.97266e-09 8.53184e-09
0 -0.0230123 0.000602124 8.6085e-06
0 0.0230123 0.000602154 4.90797e-09
0 -0.023008 0.00123188 1.58747e-06
0 0.023008 0.00123192 7.93579e-10
2.71051e-20 -0.0229678 0.00191423 2.11228e-06
2.71051e-20 0.0229679 0.00191427 9.43191e-10
2.71051e-20 -0.0229065 0.00285905 7.32197e-06
0 0.0229066 0.00285905 4.11881e-09
2.71051e-20 -0.0230244 0.00241843 4.76473e-06
0 0.0230245 0.00241845 2.40639e-09
0 -0.0231706 2.61992e-09 1.54741e-05
0 0.0231707 2.61967e-09 8.76857e-09
-1.58113e-20 -0.0232775 0.000961994 3.16171e-06
-6.77626e-21 0.0232775 0.000961998 1.65776e-09
-1.35525e-20 -0.0231293 0.00291865 7.54412e-06
0 0.0231295 0.00291871 4.36401e-09
0 -0.0233249 0.000300658 1.46969e-05
-4.51751e-21 0.023325 0.000300662 8.2311e-09
4.51751e-21 -0.02332 0.00155442 1.12296e-06
-2.25875e-21 0.0233201 0.00155442 5.3565e-10
-4.51751e-21 -0.0233274 0.00215907 1.90634e-06
-2.25875e-21 0.0233275 0.00215911 9.38543e-10
-2.25875e-22 -0.023274 0.00268504 7.30472e-06
6.77626e-22 0.023274 0.00268509 4.09157e-09
0 -0.023471 1.49911e-09 1.65454e-05
-1.35525e-20 0.023471 1.49901e-09 9.21256e-09
-6.77626e-21 0.0233567 0.00297983 4.83285e-09
6.77626e-21 -0.0233572 0.00297997 7.70979e-06
0 -0.0236362 1.14284e-09 1.66686e-05
2.71051e-20 0.0236362 1.14275e-09 9.36351e-09
0 -0.0236942 0.000643715 9.04002e-06
4.51751e-21 0.0236943 0.000643673 4.89174e-09
0 -0.0235249 0.00302491 7.92311e-06
-1.35525e-20 0.0235249 0.0030249 5.2022e-09
0 0.0236288 0.00246502 2.50796e-09
0 -0.0236288 0.002465 4.49974e-06
-4.51751e-21 -0.0237458 0.00121881 1.96873e-06
9.03502e-21 0.0237458 0.00121876 9.3016e-10
-1.54886e-20 0.0237119 0.001791 5.11906e-10
1.16165e-20 -0.0237119 0.00179099 1.05463e-06
-1.35525e-20 -0.0238006 1.02424e-09 1.72079e-05
-1.35525e-20 0.0238007 1.02415e-09 9.53848e-09
-1.35525e-20 -0.0236226 0.00305129 8.77943e-06
0 0.0236229 0.00305137 5.90561e-09
-1.89735e-20 -0.0238637 0.000205253 1.73468e-05
-8.13152e-21 0.0238637 0.000205233 9.54412e-09
4.51751e-21 0.0238647 0.0021658 1.00383e-09
-9.03502e-21 -0.0238647 0.00216579 1.81368e-06
0 -0.0239679 0.000898007 3.29332e-06
0 0.0239679 0.000897928 1.43484e-09
2.11758e-22 -0.0238497 0.00276261 9.92165e-06
0 0.0238551 0.00276337 6.47498e-09
2.71051e-20 -0.0239683 0.00153372 8.68575e-07
0 0.0239683 0.00153368 4.69084e-10
-5.92923e-21 -0.0238695 0.00276832 1.00031e-05
8.36445e-21 0.0238703 0.00276773 6.53574e-09
1.37643e-21 0.0238743 0.0027737 6.54052e-09
4.44692e-21 -0.0238747 0.00277615 9.99366e-06
-2.71051e-20 0.024114 6.40622e-10 9.62778e-09
1.35525e-20 -0.024114 6.40669e-10 1.78249e-05
0 -0.0241188 0.00014417 1.78138e-05
0 0.0241188 0.000144162 9.62025e-09
0 0.023916 0.00312978 6.38314e-09
0 -0.0239162 0.00312984 9.17045e-06
-6.77626e-21 -0.0239639 0.00314272 8.9872e-06
-2.71051e-20 0.0239641 0.00314276 6.24669e-09
0 -0.0242749 5.21783e-10 1.74794e-05
0 0.0242749 5.21731e-10 9.70244e-09
6.77626e-21 -0.0242836 0.000581065 1.07066e-05
6.77626e-21 0.0242836 0.000580992 5.62373e-09
6.77626e-21 -0.0242888 0.00120263 2.22303e-06
4.51751e-21 0.0242888 0.00120255 1.06339e-09
-1.35525e-20 -0.0242868 0.00186242 1.1122e-06
2.25875e-21 0.0242868 0.00186238 5.88057e-10
-4.23516e-22 -0.0241617 0.00319553 9.30489e-06
-4.23516e-22 0.0241636 0.00319606 5.93939e-09
-1.60936e-20 0.0241859 0.00320201 5.89836e-09
2.03288e-20 -0.0241859 0.00320202 9.31816e-06
-2.96462e-21 0.024188 0.00319341 5.89818e-09
2.5411e-21 -0.0241882 0.00319265 9.33923e-06
0 -0.0244313 0.000134568 1.76948e-05
-1.35525e-20 0.0244313 0.000134562 9.43392e-09
-1.35525e-20 -0.0244331 4.67577e-10 1.77032e-05
-1.35525e-20 0.0244331 4.67521e-10 9.43749e-09
6.77626e-21 0.0243347 0.00249909 2.33974e-09
-4.51751e-21 -0.0243348 0.00249899 4.18421e-06
4.51751e-21 -0.0242968 0.00292754 8.61388e-06
-4.51751e-21 0.0242969 0.00292753 5.35002e-09
-6.77626e-21 -0.0243689 0.00315158 8.36466e-06
6.77626e-21 0.0243692 0.00315214 5.28841e-09
-2.71051e-20 -0.0246008 0.000284734 1.78586e-05
-2.71051e-20 0.0246009 0.000284687 9.47083e-09
0 -0.0243969 0.00325839 7.78574e-06
0 0.0243971 0.00325844 5.09881e-09
0 -0.0246107 0.000878663 3.65806e-06
0 0.0246107 0.000878579 1.67811e-09
0 0.0246166 0.00151534 6.11172e-10
-2.71051e-20 -0.0246166 0.0015154 1.04997e-06
0 0.0244714 0.00314468 4.58655e-09
1.35525e-20 -0.0244716 0.0031441 7.33959e-06
3.38813e-21 0.0245037 0.00290524 4.01104e-09
3.38813e-21 -0.0245038 0.00290534 6.61947e-06
6.77626e-21 0.0244779 0.00323338 4.74436e-09
6.77626e-21 -0.0244781 0.00323321 7.46329e-06
6.77626e-21 0.0244842 0.00328166 4.63342e-09
0 -0.0244845 0.00328173 7.27189e-06
-2.71051e-20 -0.0246092 0.00219461 1.1902e-06
-2.71051e-20 0.0246092 0.00219461 5.21478e-10
1.35525e-20 -0.0247622 2.53333e-10 1.79198e-05
2.71051e-20 0.0247622 2.53306e-10 9.45698e-09
1.35525e-20 -0.0247664 0.000132515 1.79154e-05
0 0.0247664 0.000132509 9.45382e-09
6.77626e-21 0.0246221 0.00297551 3.87234e-09
0 -0.0246221 0.00297544 6.36581e-06
0 -0.0249174 1.98984e-10 1.75694e-05
1.35525e-20 0.0249175 1.98951e-10 9.92098e-09
-2.71051e-20 -0.0247046 0.00334037 6.44282e-06
-1.35525e-20 0.0247048 0.00334043 4.1342e-09
0 -0.0249272 0.000565998 1.09349e-05
-2.25875e-21 0.0249272 0.00056594 5.87255e-09
9.03502e-21 0.0249353 0.00118348 1.47431e-09
9.03502e-21 -0.0249353 0.00118355 2.44586e-06
-1.35525e-20 -0.0247706 0.00325114 6.57577e-06
-1.35525e-20 0.0247708 0.0032513 4.20612e-09
1.12938e-20 -0.0249331 0.00185459 1.12072e-06
0 0.0249331 0.00185457 6.35192e-10
-2.25875e-21 0.0249123 0.00254806 1.54994e-09
-4.51751e-21 -0.0249123 0.00254799 3.07168e-06
0 -0.02507 0.000129703 1.77188e-05
1.35525e-20 0.02507 0.000129703 9.12146e-09
2.71051e-20 -0.0250722 1.7145e-10 1.77194e-05
4.06576e-20 0.0250723 1.7142e-10 9.11688e-09
-2.71051e-20 -0.024868 0.00338391 7.20669e-06
0 0.024868 0.00338392 5.50892e-09
-4.51751e-22 -0.0249657 0.00300265 5.32413e-06
2.25875e-21 0.0249658 0.00300271 3.29011e-09
0 -0.0252401 0.000277386 1.77629e-05
2.71051e-20 0.0252401 0.000277365 9.10046e-09
0 0.0252519 0.000862099 2.48696e-09
0 -0.0252519 0.00086215 3.83786e-06
2.71051e-20 0.025258 0.00150133 9.01551e-10
0 -0.0252581 0.00150136 1.17484e-06
1.35525e-20 0.0250939 0.00344404 5.62725e-09
-6.77626e-21 -0.025094 0.00344409 7.32336e-06
0 -0.0252521 0.00218276 1.05183e-06
0 0.0252521 0.00218278 4.79489e-10
0 -0.0253959 6.8222e-11 1.80659e-05
-1.35525e-20 0.0253959 6.82125e-11 9.0529e-09
2.71051e-20 -0.0254017 0.000130131 1.80739e-05
1.35525e-20 0.0254017 0.000130132 9.05591e-09
-2.71051e-20 -0.0252837 0.00277308 1.9463e-06
-2.71051e-20 0.0252837 0.00277313 8.48494e-10
4.51751e-21 -0.0252272 0.00330837 7.07925e-06
-9.03502e-21 0.0252273 0.0033085 5.4358e-09
1.35525e-20 -0.0252594 0.00348814 7.27772e-06
1.35525e-20 0.0252598 0.00348825 5.8961e-09
-2.71051e-20 -0.0255539 4.13586e-11 1.83079e-05
0 0.0255539 4.13515e-11 9.79361e-09
0 -0.0255655 0.000552669 1.14929e-05
2.25875e-21 0.0255655 0.000552643 6.18774e-09
2.25875e-21 0.0255758 0.00116696 2.05299e-09
-9.03502e-21 -0.0255758 0.00116699 2.75905e-06
0 -0.0255762 0.00184005 1.17767e-06
4.51751e-21 0.0255762 0.00184006 8.55208e-10
1.12938e-21 -0.0255826 0.00249894 1.4506e-06
-1.12938e-21 0.0255826 0.00249898 7.46582e-10
0 -0.0257081 0.000131346 1.86091e-05
-1.35525e-20 0.0257081 0.000131355 8.97991e-09
-1.35525e-20 -0.0257119 3.5178e-11 1.86192e-05
-1.35525e-20 0.0257119 3.51714e-11 8.97168e-09
-2.71051e-20 -0.0254803 0.00354696 7.37089e-06
-2.71051e-20 0.0254805 0.00354701 6.71869e-09
1.12938e-21 -0.0255731 0.00306885 4.72655e-06
-3.38813e-21 0.0255732 0.00306889 3.6466e-09
0 -0.0258709 0.000270959 1.8909e-05
2.71051e-20 0.0258709 0.000270951 8.95026e-09
2.71051e-20 0.0258866 0.000847023 3.10406e-09
-2.71051e-20 -0.0258866 0.000847041 4.43925e-06
0 -0.0258956 0.00148572 1.45728e-06
0 0.0258956 0.00148572 1.36356e-09
3.38813e-21 0.025711 0.00360842 8.24754e-09
0 -0.0257111 0.00360845 8.65343e-06
2.71051e-20 -0.0258953 0.00216728 1.03177e-06
-2.71051e-20 0.0258953 0.0021673 6.57808e-10
0 0.0260182 1.43804e-11 8.65499e-09
0 -0.0260182 1.43794e-11 1.93697e-05
3.38813e-21 -0.0257706 0.00362429 8.69625e-06
-1.01644e-20 0.0257711 0.00362443 8.36442e-09
1.35525e-20 0.0260277 0.000129341 8.64931e-09
-1.35525e-20 -0.0260277 0.000129326 1.93924e-05
0 -0.0258189 0.00342152 8.11276e-06
-4.51751e-21 0.025819 0.00342167 7.47622e-09
2.71051e-20 -0.0259036 0.00281595 1.69528e-06
-2.71051e-20 0.0259037 0.002816 9.84562e-10
-1.35525e-20 -0.0261762 8.33893e-12 1.99137e-05
0 0.0261762 8.34033e-12 9.00171e-09
6.77626e-21 -0.0261907 0.000536281 1.274e-05
-4.51751e-21 0.0261907 0.000536273 6.27107e-09
2.25875e-21 -0.0262092 0.00114375 3.26311e-06
-1.12938e-21 0.0262092 0.00114374 2.82608e-09
0 -0.0260128 0.00368881 7.57226e-06
0 0.0260131 0.00368888 7.32599e-09
0 -0.0262149 0.00181929 1.25412e-06
0 0.026215 0.00181931 1.24075e-09
-1.35525e-20 -0.0263228 0.000121185 2.03385e-05
1.35525e-20 0.0263228 0.000121207 7.5807e-09
-2.71051e-20 -0.0263263 7.17909e-12 2.03558e-05
-1.35525e-20 0.0263263 7.18003e-12 7.54271e-09
-2.25875e-21 -0.0262139 0.00250557 1.27398e-06
-1.12938e-21 0.0262139 0.0025056 8.17651e-10
0 -0.0261379 0.00372349 7.59152e-06
1.35525e-20 0.026138 0.00372353 7.05907e-09
-1.35525e-20 -0.0261645 0.00360603 7.49481e-06
1.35525e-20 0.0261645 0.00360614 6.92492e-09
-7.52918e-22 -0.0262301 0.00320871 4.63613e-06
-2.63521e-21 0.0262302 0.00320874 3.96726e-09
-2.71051e-20 0.0264876 0.000258964 7.3236e-09
0 -0.0264876 0.000258966 2.08298e-05
-5.42101e-20 0.0265116 0.000819292 4.46907e-09
0 -0.0265116 0.000819294 5.49452e-06
0 -0.0265313 0.00145489 1.50961e-06
2.71051e-20 0.0265313 0.00145489 2.03052e-09
1.35525e-20 0.026307 0.00376735 6.21255e-09
-6.77626e-21 -0.0263071 0.00376735 6.47819e-06
0 -0.0265288 0.0021494 1.02596e-06
-2.71051e-20 0.0265288 0.00214943 9.1674e-10
0 0.0266623 2.30403e-12 1.01432e-08
0 -0.0266624 2.30216e-12 1.9879e-05
0 0.0266707 0.000106434 1.02648e-08
0 -0.0266707 0.000106397 1.98477e-05
-2.71051e-20 -0.0265278 0.00283341 1.31205e-06
0 0.0265278 0.00283345 7.11721e-10
0 -0.0264226 0.00379805 6.093e-06
6.77626e-21 0.0264228 0.00379811 6.02485e-09
-1.69407e-21 -0.0265365 0.00359663 5.75309e-06
4.51751e-21 0.0265366 0.00359666 5.69641e-09
1.35525e-20 0.0267959 1.18763e-12 1.35815e-08
1.35525e-20 -0.0267959 1.18628e-12 1.92044e-05
3.38813e-21 0.0268045 0.000501528 1.33001e-08
-3.38813e-21 -0.0268045 0.000501531 1.25849e-05
-2.25875e-21 0.0268426 0.00108835 7.54793e-09
-1.12938e-21 -0.0268426 0.00108835 3.8261e-06
-1.35525e-20 -0.0269065 8.39027e-05 1.82434e-05
-1.35525e-20 0.0269065 8.3938e-05 1.76302e-08
0 -0.0269105 1.09903e-12 1.82743e-05
1.35525e-20 0.0269105 1.10016e-12 1.74719e-08
1.12938e-21 -0.0268569 0.00177537 1.54463e-06
-2.82344e-21 0.0268569 0.00177538 2.19567e-09
0 -0.0268455 0.00249655 1.23966e-06
-2.25875e-21 0.0268455 0.00249657 1.03531e-09
0 -0.0268309 0.00322459 3.5702e-06
-7.67977e-21 0.0268309 0.00322463 3.34081e-09
0 0.0267575 0.00386117 6.67315e-09
-8.47033e-22 -0.0267577 0.00386154 6.02042e-06
0 0.0267685 0.00388946 6.72564e-09
0 -0.0267686 0.00388947 6.03027e-06
-1.69407e-21 -0.0267817 0.00389295 6.05742e-06
0 0.0267818 0.00389298 6.78372e-09
1.69407e-21 -0.0267895 0.00389519 6.06261e-06
0 0.0267897 0.00389526 6.83514e-09
0 -0.0267977 0.00388305 6.07873e-06
0 0.026798 0.00388297 6.87746e-09
-6.77626e-21 -0.0268077 0.00390073 6.09146e-06
-1.69407e-21 0.0268081 0.00390087 6.81951e-09
-2.71051e-20 0.0270953 0.000231001 2.05677e-08
0 -0.0270953 0.000231002 1.72031e-05
-2.71051e-20 0.0271307 0.000745292 1.94559e-08
2.71051e-20 -0.0271307 0.000745291 5.5306e-06
0 0.0271875 0.00136731 4.40395e-09
2.71051e-20 -0.0271875 0.00136731 2.52696e-06
-5.42101e-20 0.0271699 0.00211433 1.59377e-09
0 -0.0271699 0.00211432 1.18277e-06
-3.87215e-21 -0.0270374 0.00364693 5.90606e-06
-1.16165e-20 0.0270375 0.00364697 7.17906e-09
0 -0.0271534 0.00283785 1.41983e-06
0 0.0271534 0.00283788 9.33804e-10
3.01167e-21 0.0273865 0.000433223 9.14648e-08
3.01167e-21 -0.0273866 0.000433225 1.56423e-05
-1.35525e-20 -0.0272025 0.00404243 6.93798e-06
0 0.0272026 0.00404247 7.62266e-09
0 0.0275132 1.10792e-13 1.32738e-07
0 -0.0275208 1.06274e-13 2.13861e-05
0 -0.0275278 1.055e-13 2.15773e-05
0 0.027528 1.05214e-13 1.35553e-07
-2.63521e-21 -0.0275176 0.00087612 1.04362e-05
9.41148e-22 0.0275176 0.000876116 6.76135e-08
-4.23516e-22 -0.0275404 1.84884e-05 2.18764e-05
0 0.027541 1.89916e-05 1.40209e-07
1.35525e-20 -0.0272668 0.00395785 7.01367e-06
1.35525e-20 0.0272669 0.00395792 7.67031e-09
7.05861e-23 0.0275074 0.00171411 5.9049e-09
2.35287e-23 -0.0275075 0.00171411 2.16598e-06
1.12938e-21 -0.0274756 0.00248008 1.36524e-06
3.38813e-21 0.0274756 0.00248009 1.55811e-09
0 -0.0274313 0.00322718 3.13126e-06
2.25875e-21 0.0274313 0.00322722 2.84217e-09
1.35525e-20 -0.0273528 0.00409794 7.88104e-06
0 0.0273528 0.00409795 8.86931e-09
-6.77626e-22 -0.0274774 0.00369777 5.43319e-06
-9.03502e-22 0.0274774 0.00369779 5.54155e-09
-2.71051e-20 0.0278217 0.00130228 1.17494e-08
2.71051e-20 -0.0278217 0.00130226 3.03581e-06
2.71051e-20 0.0277987 0.0020884 2.83815e-09
-2.71051e-20 -0.0277987 0.0020884 1.51533e-06
-1.50584e-21 0.0278795 0.000330568 2.2915e-07
-7.52918e-22 -0.0278795 0.000330574 2.77343e-05
-1.01644e-20 -0.0275674 0.00417883 8.57838e-06
-6.77626e-21 0.0275674 0.00417882 9.53373e-09
-2.71051e-20 -0.0277779 0.00283431 1.33571e-06
0 0.0277779 0.00283433 9.18099e-10
-6.77626e-21 -0.0276684 0.00421691 8.57096e-06
-2.03288e-20 0.0276685 0.00421694 9.49114e-09
0 -0.0277109 0.00403361 8.01076e-06
4.51751e-21 0.0277109 0.00403363 8.68933e-09
0 -0.0278037 0.00346795 2.20691e-06
0 0.0278037 0.00346796 1.29188e-09
-2.71051e-20 0.0280306 3.72656e-14 2.12087e-07
1.35525e-20 -0.0280306 3.72776e-14 2.87526e-05
0 0.0281597 0.000826399 8.57175e-08
2.71051e-21 -0.0281598 0.000826407 1.78063e-05
1.12938e-22 0.0281239 0.00170646 7.53006e-09
6.77626e-22 -0.0281239 0.00170647 2.46954e-06
-2.71051e-20 0.0281926 2.34404e-14 1.57987e-07
-1.35525e-20 -0.0281927 2.34062e-14 3.10757e-05
-2.82344e-21 -0.0281037 0.00246055 1.40751e-06
0 0.0281037 0.00246055 2.10635e-09
1.35525e-20 -0.0278977 0.00430336 8.0533e-06
0 0.0278977 0.00430337 8.5997e-09
5.64689e-22 -0.0280999 0.00316544 1.75404e-06
-5.64689e-22 0.0280999 0.00316545 1.12415e-09
0 -0.0280091 0.00434534 7.98967e-06
0 0.0280092 0.00434534 8.42735e-09
0 -0.0280389 0.00423702 7.80653e-06
-1.35525e-20 0.028039 0.00423703 8.22177e-09
6.58803e-22 -0.0281246 0.00384685 5.00703e-06
5.64689e-22 0.0281246 0.00384686 4.69147e-09
1.35525e-20 -0.0283974 1.64462e-14 3.70079e-05
6.77626e-21 0.0283974 1.64718e-14 2.23815e-07
0 0.0284431 0.00129266 1.37251e-08
0 -0.0284432 0.00129266 4.35999e-06
0 0.0284192 0.00207419 3.48364e-09
2.71051e-20 -0.0284192 0.00207419 1.2861e-06
-2.11758e-22 0.028497 0.000322303 2.54502e-07
0 -0.0284984 0.000322942 4.06163e-05
2.03288e-20 -0.0281711 0.00440642 7.77791e-06
6.77626e-21 0.0281711 0.00440643 7.60926e-09
-2.03288e-20 0.0285521 6.73772e-15 2.28575e-07
1.35525e-20 -0.0285522 6.71076e-15 3.85707e-05
2.71051e-20 0.0284166 0.00281029 1.21936e-09
0 -0.0284166 0.00281029 1.48207e-06
0 -0.0284105 0.00349472 1.9283e-06
2.71051e-20 0.0284105 0.00349472 1.06634e-09
-6.77626e-21 -0.02829 0.00445127 7.62674e-06
6.77626e-21 0.02829 0.00445127 7.38962e-09
-1.69407e-21 -0.0284186 0.00424831 6.98474e-06
-5.64689e-22 0.0284186 0.00424832 6.87334e-09
-5.42101e-20 0.0287651 2.99683e-16 1.66413e-07
0 -0.0287651 2.80993e-16 3.84807e-05
-3.38813e-22 0.0287466 0.00168419 8.10309e-09
2.82344e-22 -0.0287466 0.00168419 3.11897e-06
0 0.0288078 0.000872628 8.04978e-08
-9.03502e-22 -0.0288079 0.000872634 2.13424e-05
-1.22349e-21 0.0287473 0.00242277 2.75979e-09
-1.03526e-21 -0.0287474 0.00242278 1.7288e-06
2.25875e-21 0.0287216 0.00316759 1.2511e-09
0 -0.0287216 0.00316759 1.78452e-06
0 0.028581 0.00456087 8.22956e-09
0 -0.028581 0.00456092 8.229e-06
-1.35525e-21 -0.0287115 0.00388137 4.58891e-06
3.61401e-21 0.0287115 0.00388136 4.10639e-09
0 -0.0286396 0.00458297 8.29378e-06
0 0.0286396 0.00458296 8.2537e-09
0 -0.0286466 0.00457509 8.28951e-06
-3.38813e-21 0.0286467 0.00457506 8.28195e-09
0 -0.0290134 1.85244e-16 4.18822e-05
-6.77626e-21 0.0290134 1.97032e-16 2.6481e-07
0 -0.0286559 0.00458913 8.41321e-06
0 0.028656 0.00458914 8.42881e-09
6.77626e-21 -0.0286627 0.00455199 8.12332e-06
0 0.0286629 0.00455191 8.14465e-09
-6.77626e-21 0.0290304 8.01652e-05 2.71547e-07
0 -0.0290304 8.05642e-05 4.24512e-05
-2.25875e-21 0.029033 0.000330842 2.5348e-07
-2.82344e-21 -0.0290331 0.000330825 4.24182e-05
3.38813e-21 0.0290394 1.68622e-16 2.65669e-07
1.69407e-21 -0.0290395 1.57577e-16 4.21592e-05
0 -0.0286826 0.00457917 8.30504e-06
0 0.0286827 0.00457915 8.41355e-09
-1.69407e-21 -0.0286987 0.00460523 8.33377e-06
-1.69407e-21 0.0286989 0.00460528 8.462e-09
-2.71051e-20 0.0290348 0.00281407 1.65725e-09
-2.71051e-20 -0.0290349 0.00281407 1.52311e-06
-2.71051e-20 0.0291549 0.00144558 9.60975e-09
-2.71051e-20 -0.029155 0.00144558 4.6343e-06
-2.71051e-20 0.0291572 0.00194765 6.193e-09
0 -0.0291573 0.00194765 3.15171e-06
1.93608e-21 -0.0289115 0.00431141 7.94221e-06
9.68038e-21 0.0289115 0.00431139 8.65096e-09
2.71051e-20 0.0290289 0.00350524 1.08017e-09
0 -0.0290289 0.00350525 2.17062e-06
0 0.0293191 1.50334e-16 2.04754e-07
-1.35525e-20 -0.0293191 1.46104e-16 4.98525e-05
-1.27055e-21 0.029326 0.000839966 1.02624e-07
-8.47033e-22 -0.0293263 0.000839955 2.75333e-05
5.92923e-21 0.029346 0.000821793 1.05999e-07
-5.0822e-21 -0.029346 0.00082205 2.83062e-05
1.14349e-20 -0.0293459 0.000843849 2.77224e-05
-4.23516e-22 0.0293459 0.000843917 1.02824e-07
-8.04681e-21 -0.0293597 0.0008398 2.7899e-05
8.04681e-21 0.0293599 0.000839809 1.03332e-07
-1.35525e-20 -0.0290221 0.00472703 9.11992e-06
-2.71051e-20 0.0290221 0.00472702 9.29486e-09
-1.35525e-20 0.0293681 0.00167842 9.20595e-09
-1.35525e-20 -0.0293682 0.00167842 4.33542e-06
0 0.0293492 0.00243751 3.49353e-09
-6.77626e-22 -0.0293492 0.00243751 2.37152e-06
0 -0.029113 0.00461952 9.41503e-06
0 0.029113 0.00461948 9.48102e-09
-2.25875e-21 0.0293461 0.00316209 1.53199e-09
0 -0.0293461 0.00316209 2.13347e-06
3.38813e-21 0.0295421 1.72528e-17 2.71696e-07
-1.69407e-20 -0.0295424 1.48784e-17 6.1574e-05
0 -0.0293068 0.00388267 4.47573e-06
6.77626e-21 0.0293068 0.00388264 3.36599e-09
0 0.0295827 0.00139949 1.47775e-08
0 -0.0295827 0.00139947 6.11654e-06
0 -0.0292241 0.0048031 1.16857e-05
-1.35525e-20 0.0292241 0.00480311 1.08877e-08
4.51751e-21 -0.0296229 0.000312408 6.07385e-05
0 0.029623 0.000312331 2.59144e-07
5.42101e-20 0.0295756 0.00193309 7.23909e-09
2.71051e-20 -0.0295757 0.0019331 4.03478e-06
-3.38813e-21 -0.0296592 -6.02736e-17 6.23736e-05
1.35525e-20 0.0296597 -5.83194e-17 2.65685e-07
-1.35525e-21 0.0293409 0.00435962 7.24072e-09
9.03502e-22 -0.0293409 0.00435962 8.22955e-06
-2.71051e-20 0.0296739 0.0027863 2.38293e-09
-2.71051e-20 -0.0296739 0.00278629 2.32561e-06
0 0.0294234 0.00487816 1.33386e-08
-6.77626e-21 -0.0294234 0.00487816 1.44224e-05
0 0.029651 0.00350312 1.00131e-09
0 -0.029651 0.00350313 2.47716e-06
-1.35525e-20 -0.0298815 -1.91512e-16 5.52745e-05
-1.35525e-20 0.0298817 -1.91316e-16 2.11927e-07
-6.77626e-21 -0.0295073 0.00479844 1.48058e-05
0 0.0295074 0.00479832 1.37724e-08
0 -0.0295245 0.00491622 1.49397e-05
1.35525e-20 0.0295246 0.00491628 1.37213e-08
0 -0.0295733 0.00467629 1.36673e-05
-4.51751e-21 0.0295734 0.00467625 1.25023e-08
2.71051e-20 -0.0296719 0.00412285 4.22133e-06
0 0.0296719 0.00412284 1.73791e-09
-7.52918e-22 0.0299617 0.000815882 1.17215e-07
-6.02335e-21 -0.0299617 0.000815846 3.47883e-05
0 0.0299758 0.000107323 2.47137e-07
-1.35525e-20 -0.0299758 0.000107555 5.50569e-05
0 0.0299859 2.29405e-16 2.47255e-07
2.71051e-20 -0.0299859 2.25785e-16 5.50294e-05
3.76459e-22 0.0300036 0.00165378 1.28304e-08
1.69407e-21 -0.0300036 0.00165377 5.18838e-06
1.35525e-20 0.0300697 -5.94543e-16 2.15685e-07
1.35525e-20 -0.0300699 -5.9649e-16 5.72025e-05
0 0.0299914 0.00233931 4.88794e-09
-3.38813e-21 -0.0299915 0.0023393 3.14363e-06
0 -0.0297031 0.00498347 1.43654e-05
-1.35525e-20 0.0297031 0.00498349 1.25287e-08
6.77626e-22 0.0299738 0.00312123 2.07159e-09
-2.25875e-21 -0.0299738 0.00312125 2.60787e-06
1.35525e-20 0.0301809 0.000217208 1.75881e-07
-1.35525e-20 -0.0301813 0.000217594 6.01336e-05
0 0.0299673 0.0038261 1.35469e-09
3.38813e-21 -0.0299673 0.00382611 3.6006e-06
0 0.0302277 -3.27878e-16 1.7183e-07
0 -0.0302282 -3.28758e-16 5.97989e-05
-6.77626e-21 -0.0298591 0.00504223 1.4504e-05
-6.77626e-21 0.0298591 0.00504225 1.19894e-08
1.35525e-20 -0.0299002 0.00489111 1.39753e-05
0 0.0299003 0.00489105 1.15214e-08
4.14105e-21 0.029979 0.00451148 6.56963e-09
-7.52918e-22 -0.029979 0.00451149 9.42976e-06
-2.71051e-20 0.0302909 0.00277112 2.92406e-09
0 -0.0302909 0.00277112 2.43844e-06
-2.71051e-20 0.0304298 0.0004666 1.3127e-07
0 -0.0304299 0.000466575 6.5587e-05
0 0.0304045 0.00137209 2.11012e-08
0 -0.0304045 0.00137206 6.83567e-06
2.71051e-20 0.0304135 0.00193184 8.62792e-09
0 -0.0304135 0.00193183 4.55607e-06
-2.71051e-20 0.0302818 0.00348659 1.26896e-09
5.42101e-20 -0.0302818 0.0034866 3.01924e-06
0 -0.0300763 0.00512405 1.5511e-05
1.18585e-20 0.0300764 0.0051241 1.05919e-08