# omega  POINT_DATA 26867
# x  y  z  omega
0.0115468 0 6.39774e-08 1225.21
-0.0115468 0 6.39774e-08 1224.75
0.0115468 6.77626e-21 0.00015991 1229.06
-0.0115468 0 0.000159974 1228.57
0.0115468 1.35525e-20 0.000505084 1408.73
-0.0115468 1.35525e-20 0.000505284 1408.39
0.0115468 0 0.000661266 1594.89
-0.0115468 1.35525e-20 0.000661528 1594.69
0.0115468 6.77626e-21 0.000824591 1791.2
-0.0115468 1.35525e-20 0.000824855 1791.02
0.0115468 0 0.00119315 2063.45
-0.0115467 -6.77626e-21 0.00119341 2063.37
0.0116176 0 9.47928e-05 1209.04
-0.0116176 -1.35525e-20 9.48608e-05 1208.56
-0.0116191 0 6.70009e-08 1208.88
0.0116191 -1.35525e-20 6.69999e-08 1209.36
0.0115467 0 0.00135627 2165
-0.0115467 0 0.00135654 2164.96
0.0116144 0 0.0005677 1454.57
-0.0116144 0 0.000567955 1454.29
0.0116106 0 0.000748261 1683.72
-0.0116106 0 0.00074858 1683.52
0.0115467 6.77626e-21 0.00152892 2307.94
-0.0115467 0 0.00152913 2307.85
0.0116105 -1.35525e-20 0.00124687 2052.16
-0.0116105 0 0.00124719 2052.1
0.0116054 0 0.00142604 2204.07
-0.0116054 0 0.00142632 2203.99
0.0115467 0 0.00190897 2028.58
-0.0115467 -6.77626e-21 0.00190903 2029.07
0.0117276 1.35525e-20 6.63331e-08 1117.07
-0.0117276 0 6.63357e-08 1116.41
0.0117103 2.71051e-20 0.000650308 1308.23
-0.0117103 0 0.000650723 1323.52
0.0115467 0 0.002087 1517.59
-0.0115467 0 0.002087 1518.72
0.011609 0 0.00193558 1818.49
-0.011609 0 0.00193568 1819.2
0.0117025 1.35525e-20 0.00130847 1658.22
-0.0117026 6.77626e-21 0.00130891 1687.8
0.0116004 0 0.00211165 1320.15
-0.0116004 -1.35525e-20 0.00211165 1321.5
0.0116425 1.35525e-20 0.00204724 1360.79
-0.0116425 -1.35525e-20 0.0020473 1362.08
-0.0116585 -1.35525e-20 0.00213828 1403.83
0.0116585 1.35525e-20 0.00213829 1402.59
0.0117067 0 0.00192887 1325.03
-0.0117067 0 0.00192906 1346.92
0.0118537 0 0.000958822 1497.38
-0.0118537 4.51751e-21 0.000959338 1516.81
0.0119178 -2.25875e-21 0.000318505 1051.12
-0.0119179 6.77626e-21 0.000318753 1055.66
0.011932 -1.35525e-20 7.04545e-08 1046.08
-0.011932 1.35525e-20 7.04584e-08 1045.36
0.0118325 -2.71051e-21 0.00163048 1789.13
-0.0118325 8.13152e-21 0.00163082 1802.32
0.0118724 -1.35525e-20 0.00142154 1419.85
-0.0118724 0 0.00142207 1458.57
-0.0117616 1.35525e-20 0.0021856 1170.79
0.0117616 -1.35525e-20 0.0021856 1169.26
0.0118132 -8.13152e-20 0.00220929 1297.82
-0.0118132 -2.71051e-20 0.00220929 1299.1
0.0118989 -3.76459e-22 0.00195759 1170.21
-0.0118989 1.12938e-21 0.00195776 1173.62
0.0119718 0 0.00153816 1116.16
-0.0119719 6.77626e-21 0.00153863 1326.54
0.0120983 0 7.96199e-08 972.765
-0.0120983 1.35525e-20 7.96227e-08 972.049
0.0120694 -6.77626e-21 0.000852289 884.996
-0.0120695 6.77626e-21 0.000852887 1049.93
0.0122081 0 0.000167029 913.936
-0.0122082 -2.71051e-20 0.000167211 913.016
0.012221 0 7.14643e-08 913.875
-0.012221 -1.35525e-20 7.14638e-08 912.951
0.0121684 -1.35525e-21 0.0012252 663.086
-0.0121684 4.51751e-22 0.00122579 739.87
-0.0120251 6.77626e-21 0.00230653 1803.78
0.0120251 -2.71051e-20 0.00230654 1802.14
0.0122349 -6.45358e-22 0.000642094 724.541
-0.0122349 -5.16287e-21 0.00064261 752.028
0.0120593 5.0822e-21 0.00232225 1832.6
-0.0120595 0 0.00232234 1834.44
0.0122855 2.71051e-20 6.71745e-08 908.162
-0.0122856 0 6.71712e-08 907.637
0.0122109 3.67048e-21 0.00173612 888.586
-0.012211 3.67048e-21 0.00173646 948.243
0.0121468 1.35525e-20 0.00214597 1735.1
-0.0121468 0 0.00214607 1736.66
0.0122263 6.77626e-21 0.00229069 1915.8
-0.0122264 -6.77626e-21 0.00229083 1917.42
0.0124605 1.35525e-20 5.58025e-08 887.575
-0.0124606 -2.71051e-20 5.57974e-08 887.193
0.0125121 2.1684e-20 0.000225072 867.835
-0.0125121 1.0842e-20 0.000225226 867.53
0.012289 0 0.00242767 2000.24
-0.012289 -1.35525e-20 0.00242767 2001.65
0.0125901 0 0.000921608 204.877
-0.0125902 2.71051e-20 0.000921969 227.653
-0.0124011 -6.77626e-21 0.00241706 2275.38
0.0124011 1.35525e-20 0.00241705 2274.23
-0.0123956 0 0.00247653 2358.89
0.0123957 0 0.00247657 2357.84
0.0124525 1.69407e-21 0.00218684 1572.15
-0.0124526 1.69407e-21 0.00218694 1599.36
0.0125382 1.35525e-20 0.00209398 933.257
-0.0125382 -1.35525e-20 0.00209412 994.191
0.0126447 2.71051e-21 0.00162104 303.979
-0.0126448 1.89735e-20 0.00162131 326.717
-0.012772 1.35525e-20 0.000141313 844.921
0.0127721 0 0.000141176 844.843
-0.0127747 0 1.51157e-08 845.058
0.0127748 2.71051e-20 1.51099e-08 844.983
0.0126132 2.71051e-21 0.00241893 2392.86
-0.0126132 1.35525e-20 0.00241896 2393.88
0.0125864 1.35525e-20 0.00256393 2567.53
-0.0125864 -1.35525e-20 0.00256393 2568.46
-0.0129279 -1.35525e-20 4.53136e-09 845.269
0.0129279 1.35525e-20 4.53058e-09 844.847
0.0129181 -6.77626e-21 0.000605291 519.292
-0.0129182 -9.03502e-21 0.000605505 530.185
0.0129069 0 0.00122264 168.252
-0.012907 -6.77626e-21 0.00122289 188.607
-0.0127465 0 0.00263727 1907.92
0.0127465 5.42101e-20 0.0026373 1906.92
0.0128746 0 0.00194104 463.481
-0.0128746 4.51751e-21 0.00194116 510.226
0.0130688 1.35525e-20 3.79635e-09 858.382
-0.0130689 -1.35525e-20 3.79672e-09 858.995
0.0130684 0 0.000129705 858.125
-0.0130685 -1.35525e-20 0.000129767 858.735
0.0129106 -4.51751e-21 0.00229685 1320.24
-0.0129106 0 0.0022969 1350.52
0.0131166 8.13152e-21 0.00164045 246.521
-0.0131166 -1.6263e-20 0.0016406 269.948
0.013248 0 0.000302942 872.208
-0.013248 0 0.000303006 873.098
-0.0129825 6.77626e-21 0.00274594 1655.86
0.0129826 1.35525e-20 0.00274602 1654.73
0.0132464 0 0.000911421 152.558
-0.0132464 0 0.000911568 173.215
-0.0131305 -9.03502e-21 0.00262462 1651.22
0.0131306 -4.51751e-21 0.0026246 1650.21
0.0132416 2.71051e-20 0.00211418 288.536
-0.0132416 0 0.00211424 336.32
0.0131188 1.35525e-20 0.00280831 1559.83
-0.0131188 0 0.00280832 1560.78
-0.013437 0 2.0837e-09 889.015
0.0134371 1.35525e-20 2.08334e-09 887.988
-0.0134397 0 0.000120678 889.022
0.0134397 0 0.00012062 887.994
0.0135679 0 1.40568e-09 898.283
-0.0135679 -1.35525e-20 1.40569e-09 899.43
0.0135763 9.03502e-21 0.000596651 529.131
-0.0135763 0 0.000596723 538.738
0.0135724 4.51751e-21 0.00122409 121.529
-0.0135724 2.25875e-21 0.00122418 139.052
-0.0133502 0 0.0029148 1385.46
0.0133503 2.71051e-20 0.00291486 1384.55
0.013478 6.77626e-21 0.00238371 833.292
-0.013478 0 0.00238375 846.098
0.0135677 -2.25875e-21 0.0018552 161.343
-0.0135677 -4.51751e-21 0.00185526 182.25
0.0136939 0 1.22236e-09 908.303
-0.013694 -1.35525e-20 1.2223e-09 909.55
0.0136952 1.35525e-20 0.000110031 908.068
-0.0136952 -1.35525e-20 0.000110068 909.314
-0.0135432 -2.03288e-20 0.00300515 879.658
0.0135435 2.03288e-20 0.00300527 878.273
-0.0139035 0 0.000294203 926.22
0.0139035 0 0.00029418 924.828
0.0135883 1.69407e-20 0.00302624 855.551
-0.0135884 3.38813e-21 0.00302627 856.769
0.0139156 0 0.000900725 149.398
-0.0139156 -5.42101e-20 0.000900773 165.256
-0.01368 2.25875e-21 0.00276396 948.82
0.0136801 4.51751e-21 0.00276395 946.115
0.0139126 0 0.00154323 75.3449
-0.0139126 0 0.00154327 88.5514
0.0138988 0 0.00219575 164.325
-0.0138988 0 0.00219579 163.337
-0.0141099 1.35525e-20 3.98814e-10 951.572
0.01411 2.71051e-20 3.98707e-10 950.108
-0.0141138 1.35525e-20 9.87891e-05 951.636
0.0141139 0 9.87469e-05 950.172
-0.0138007 0 0.00312567 1145.64
0.0138008 1.35525e-20 0.00312569 1144.81
0.0142228 -1.35525e-20 2.30663e-10 973.814
-0.0142228 0 2.30703e-10 975.308
0.0142415 0 0.000580985 565.512
-0.0142415 -2.25875e-21 0.000581003 575.212
0.0142522 -2.25875e-21 0.00120638 111.231
-0.0142522 1.12938e-21 0.0012064 126.54
0.0143301 0 2.07129e-10 984.337
-0.0143301 0 2.07152e-10 985.88
0.0143313 0 8.886e-05 984.112
-0.0143313 -1.35525e-20 8.88982e-05 985.653
-0.0139712 6.77626e-21 0.00320466 1158.49
0.0139713 -6.77626e-21 0.00320471 1157.74
0.0142441 -1.12938e-21 0.00187483 99.7997
-0.0142441 -7.90564e-21 0.00187485 113.881
-0.0140734 -5.42101e-21 0.00302456 1205.56
0.0140735 -2.71051e-21 0.00302455 1204.82
0.0141851 -4.51751e-21 0.0026086 621.639
-0.0141851 -9.03502e-22 0.0026086 640.92
0.0140971 6.77626e-21 0.00326317 1325.32
-0.0140971 6.77626e-21 0.00326321 1326.25
0.0142075 1.35525e-20 0.0031652 1430.39
-0.0142075 1.35525e-20 0.00316527 1431.2
-0.0145609 0 0.00028173 1011.34
0.0145609 -2.71051e-20 0.000281722 1009.72
0.0145815 0 0.000874339 156.895
-0.0145815 5.42101e-20 0.000874352 177.449
0.0142358 0 0.00332756 1667
-0.0142358 1.35525e-20 0.00332756 1667.68
-0.0145905 0 0.00151944 73.65
0.0145905 5.42101e-20 0.00151943 61.6242
-0.0145715 0 0.00221287 126.312
0.0145715 0 0.00221286 93.7633
-0.0143572 0 0.00338359 1735.62
0.0143573 1.35525e-20 0.00338361 1734.97
0.0144402 -7.52918e-21 0.00302844 1233.75
-0.0144402 -3.01167e-21 0.00302844 1256.62
-0.0143824 0 0.00330546 1733.02
0.0143824 1.35525e-20 0.00330544 1732.38
-0.0147853 1.35525e-20 4.21902e-11 1057.78
0.0147853 0 4.21638e-11 1056.14
-0.0147878 1.35525e-20 7.9557e-05 1057.81
0.0147879 0 7.95089e-05 1056.18
-0.0148815 1.35525e-20 2.04877e-11 1093.91
0.0148815 1.35525e-20 2.04793e-11 1092.25
0.0146215 5.42101e-20 0.00280141 328.712
-0.0146215 -2.71051e-20 0.00280142 402.386
0.0149014 -1.12938e-21 0.000554696 629.139
-0.0149014 2.25875e-21 0.000554698 640.132
-0.0145855 0 0.00326148 2023.44
0.0145855 -2.71051e-20 0.00326148 2022.82
0.014922 0 0.00116913 112.796
-0.014922 4.51751e-21 0.00116914 129.226
0.0149733 0 1.85822e-11 1102.29
-0.0149733 0 1.85877e-11 1103.99
0.0149737 0 7.37337e-05 1102.06
-0.0149737 -1.35525e-20 7.37863e-05 1103.75
0.0146079 0 0.00349938 1677.33
-0.014608 -2.71051e-20 0.00349939 1677.97
0.0149198 -5.64689e-21 0.00184898 68.0871
-0.0149198 1.12938e-21 0.00184898 89.7018
0.0146663 1.35525e-20 0.00343242 1667.25
-0.0146663 0 0.00343245 1667.89
0.0149195 -3.38813e-21 0.0025206 169.262
-0.0149195 0 0.00252061 207.012
0.0147322 1.35525e-20 0.00355672 1558.6
-0.0147322 -1.35525e-20 0.00355672 1559.25
0.0148881 -1.12938e-21 0.00309606 948.726
-0.0148881 0 0.00309607 969.483
-0.0152103 0 0.000264569 1148.64
0.0152103 0 0.000264568 1146.93
-0.0152372 2.71051e-20 0.0008328 194.198
0.0152372 -2.71051e-20 0.000832795 172.848
-0.0148482 2.03288e-20 0.00360995 1178.44
0.0148482 -6.77626e-21 0.00360996 1177.62
-0.0148928 1.35525e-20 0.00347705 1285.3
0.0148929 1.35525e-20 0.00347703 1284.53
-0.0152552 2.71051e-20 0.0014732 70.8829
0.0152552 -2.71051e-20 0.00147319 57.5962
-0.0152472 -5.42101e-20 0.00216845 88.2513
0.0152472 0 0.00216845 59.328
-0.0154527 -6.77626e-21 2.80358e-12 1265.53
0.0154528 0 2.79985e-12 1263.95
-0.015454 -1.35525e-20 6.43525e-05 1265.65
0.0154541 -6.77626e-21 6.42876e-05 1264.06
0.0150217 2.71051e-20 0.0036898 1050.5
-0.0150218 -2.71051e-20 0.00368982 1051.28
0.0150966 -2.71051e-20 0.00340471 1037.16
-0.0150966 0 0.00340473 1037.94
0.0152385 -5.42101e-20 0.00284793 175.119
-0.0152385 0 0.00284795 187.265
0.0155345 -1.35525e-20 1.12383e-12 1327.59
-0.0155345 0 1.12475e-12 1329.23
0.015136 1.35525e-20 0.00358109 1113.51
-0.0151361 0 0.00358111 1114.26
-0.0155483 2.25875e-21 0.000512804 774.056
0.0155483 2.25875e-21 0.000512807 765.847
0.0156089 -6.77626e-21 5.68089e-05 1355.15
-0.015609 -6.77626e-21 5.68715e-05 1356.78
0.0156116 0 1.05225e-12 1352.15
-0.0156117 6.77626e-21 1.05295e-12 1353.79
0.0151553 0 0.00375104 1261.37
-0.0151554 0 0.00375106 1262.03
0.0156 1.58113e-21 0.00110028 133.206
-0.0156001 -2.25875e-21 0.00110028 146.258
0.0155874 -1.12938e-21 0.0017884 55.6195
-0.0155874 0 0.0017884 76.7421
0.0152737 -1.35525e-20 0.00381165 1266.32
-0.0152737 1.35525e-20 0.00381167 1266.93
0.0153111 1.35525e-20 0.00369351 1276.18
-0.0153111 0 0.00369353 1276.8
0.0155684 -5.64689e-22 0.00250744 94.323
-0.0155684 1.12938e-21 0.00250745 126.156
-0.015842 -2.71051e-20 0.000233949 1471.82
0.015842 0 0.000233939 1470.32
0.0155233 -2.25875e-21 0.00325342 681.704
-0.0155233 4.51751e-22 0.00325344 711.104
-0.0158872 5.42101e-20 0.000762439 225.135
0.0158872 -2.71051e-20 0.000762443 216.867
0.0154852 0 0.00363865 1417.27
-0.0154853 0 0.00363867 1417.82
0.0154926 -6.77626e-21 0.00391521 1585.75
-0.0154927 1.35525e-20 0.00391523 1586.2
-0.0159268 -2.71051e-20 0.00138121 74.9248
0.0159268 2.71051e-20 0.00138121 61.4873
0.0155593 0 0.00385211 1651.83
-0.0155593 0 0.00385213 1652.27
-0.0158994 -2.71051e-20 0.00212232 73.5106
0.0158994 -2.71051e-20 0.00212231 44.8583
0.0155753 0 0.0039559 1810.21
-0.0155753 0 0.00395592 1810.63
0.0158856 -2.71051e-20 0.00284658 93.3152
-0.0158856 -2.71051e-20 0.00284659 150.856
0.0156482 0 0.0040035 1831.9
-0.0156482 6.77626e-21 0.00400354 1832.26
-0.0161504 -4.51751e-21 0.000464673 765.196
0.0161504 -7.34095e-21 0.000464663 765.982
0.0156709 1.35525e-20 0.00394832 1836.18
-0.015671 0 0.00394834 1836.56
0.0157655 1.50584e-21 0.00368363 1349.45
-0.0157655 1.50584e-21 0.00368365 1377.16
0.0162446 4.23516e-22 7.62403e-14 1141.4
-0.016245 0 7.56613e-14 1143.24
-0.0162671 -8.47033e-22 1.42355e-05 1128.07
0.0162671 3.38813e-21 1.44936e-05 1126.12
-0.0162672 0 1.74793e-06 1139.89
0.0162714 0 1.43204e-06 1137.98
0.0159384 -2.71051e-20 0.00346447 352
-0.0159385 0 0.00346449 440.686
-0.0162376 -5.64689e-23 0.00174471 79.8035
0.0162376 -9.03502e-22 0.00174471 57.2287
0.0163345 -2.25875e-21 0.000944398 244.459
-0.0163345 -2.25875e-21 0.000944389 244.347
0.015896 5.42101e-20 0.00392571 2209.81
-0.015896 2.71051e-20 0.00392573 2210.09
-0.0162554 1.6134e-22 0.00244438 110.007
0.0162554 2.42009e-22 0.00244439 65.5278
0.0159401 0 0.00419454 1859.27
-0.0159401 -1.35525e-20 0.00419456 1859.63
0.0162141 1.12938e-21 0.00317059 173.431
-0.0162141 -1.69407e-21 0.0031706 243.341
0.015999 0 0.0041493 1867.37
-0.0159991 0 0.0041493 1867.75
0.0160259 -1.35525e-20 0.00425061 1834.31
-0.016026 1.35525e-20 0.00425065 1834.74
-0.0166367 -9.41148e-23 0.00035282 692.061
0.0166368 1.8823e-22 0.000352947 689.975
0.0160815 1.35525e-20 0.00428686 1922.78
-0.0160816 0 0.00428691 1923.25
0.0161049 -1.35525e-20 0.004232 1920.7
-0.0161051 0 0.00423203 1921.17
0.0162263 -1.05879e-22 0.00384235 1175.26
-0.0162266 -2.75286e-21 0.00384243 1221.32
0.0162339 0 0.00382625 1143.51
-0.016234 1.16467e-21 0.00382673 1191.3
0.0162338 0 0.00384434 1172.28
-0.0162398 8.15269e-21 0.00384585 1218.63
-0.0167083 0 1.01673e-14 818.771
0.0167084 -1.35525e-20 1.01342e-14 816.948
0.0166691 -2.71051e-20 0.00146459 59.4838
-0.0166691 -5.42101e-20 0.0014646 76.2201
0.0165265 -2.71051e-20 0.00282079 55.8079
-0.0165265 0 0.0028208 115.457
0.0161983 0 0.00436316 1986.86
-0.0161985 -6.77626e-21 0.00436322 1987.4
-0.0166645 5.42101e-20 0.00194622 66.7905
0.0166645 2.71051e-20 0.00194622 39.6927
0.0165187 2.71051e-20 0.00350445 167.906
-0.0165187 0 0.00350445 239.097
0.0169423 -1.35525e-20 1.10804e-15 867.87
-0.0169424 0 1.1016e-15 870.348
0.0163498 -1.35525e-20 0.00446209 1856.52
-0.0163499 -1.35525e-20 0.00446209 1857.13
0.0169271 0 0.000866322 314.162
-0.0169272 1.97641e-21 0.000866349 322.861
-0.0168736 -1.35525e-20 0.00168494 71.6655
0.0168736 -1.35525e-20 0.00168494 50.6408
0.0164548 1.12938e-21 0.00428001 1670.77
-0.0164548 -2.25875e-21 0.00428001 1677.91
0.0168849 0 0.00243442 42.4104
-0.0168849 -1.83524e-21 0.00243442 87.1698
-0.0164961 0 0.00455753 1931.24
0.0164962 -1.35525e-20 0.0045576 1930.52
0.0168359 1.69407e-21 0.00316003 86.8928
-0.0168359 0 0.00316003 153.247
-0.0171339 -1.35525e-20 1.75376e-16 660.416
0.0171341 -6.77626e-21 1.78371e-16 657.319
-0.0170775 5.42101e-20 0.00142436 76.4774
0.0170775 5.42101e-20 0.00142435 63.9032
-0.0171372 0 0.000271957 650.928
0.0171373 -4.06576e-21 0.000272005 647.738
-0.0170666 2.71051e-20 0.0019255 65.6106
0.0170666 -2.71051e-20 0.0019255 37.5682
0.0167863 2.25875e-21 0.00388663 557.467
-0.0167864 -1.12938e-21 0.00388663 640.468
-0.0166205 1.35525e-20 0.00463871 2064.25
0.0166206 0 0.00463876 2063.39
-0.0166523 1.35525e-20 0.00459983 2029.54
0.0166524 0 0.00459991 2028.7
-0.0166794 -1.35525e-20 0.00467709 1806.54
0.0166794 0 0.00467712 1805.79
-0.0168451 -7.05861e-22 0.00433528 1327.21
0.0168452 -4.23516e-22 0.00433529 1272.92
-0.0171764 2.71051e-20 0.00277492 90.2971
0.0171764 2.71051e-20 0.00277493 37.3741
0.0174301 0 3.0333e-16 591.862
-0.0174307 0 3.00573e-16 595.837
-0.0168042 -1.35525e-20 0.0046435 1611.65
0.0168042 -1.35525e-20 0.00464355 1610.86
-0.0167886 6.77626e-21 0.00474834 1536.99
0.0167886 -6.77626e-21 0.00474833 1536.17
0.0174491 6.77626e-21 0.000139018 583.745
-0.0174496 0 0.000138437 587.868
0.0171294 0 0.00350657 83.6656
-0.0171294 -2.71051e-20 0.00350657 164.491
-0.0175669 0 -2.94673e-17 614.098
0.0175669 0 -2.95019e-17 609.654
0.0175583 7.05861e-22 0.000896586 316.304
-0.0175584 -2.82344e-22 0.000896624 332.483
0.0175189 1.41172e-22 0.00167529 60.2937
-0.0175189 -2.82344e-22 0.00167528 80.9314
-0.0176062 -6.77626e-21 4.62814e-05 548.298
0.0176065 -6.77626e-21 4.65287e-05 543.239
-0.0176089 -6.77626e-21 -8.32258e-18 547.917
0.0176092 0 -8.282e-18 542.858
-0.0171399 -2.71051e-20 0.00413685 432.9
0.0171399 0 0.00413685 289.837
-0.0176343 6.77626e-21 -4.6544e-18 536.675
0.0176347 0 -4.56016e-18 531.546
-0.0170445 -2.71051e-20 0.00462908 1582.03
0.0170445 -2.71051e-20 0.00462909 1581.09
0.0175376 0 0.00228764 36.6276
-0.0175376 5.64689e-22 0.00228764 74.253
-0.0170023 1.35525e-20 0.00488772 1354.65
0.0170024 2.71051e-20 0.00488778 1353.49
-0.0176972 0 4.73799e-05 507.472
0.0176979 0 4.76325e-05 501.992
-0.0177006 6.77626e-21 -1.62136e-17 507.534
0.0177013 0 -1.6163e-17 502.056
-0.0174646 9.03502e-22 0.00310782 107.82
0.0174646 1.58113e-21 0.00310783 49.1044
-0.0171112 1.35525e-20 0.00481655 1370.48
0.0171113 -1.35525e-20 0.00481662 1369.31
-0.0171346 0 0.00497401 1443.35
0.0171346 -1.35525e-20 0.00497404 1442.17
0.0174342 1.12938e-21 0.00383428 141.698
-0.0174342 -1.12938e-21 0.00383428 239.201
-0.0172171 2.71051e-20 0.00502788 1444.36
0.0172172 0 0.0050279 1443.15
-0.0172554 0 0.00493142 1438.87
0.0172555 -2.71051e-20 0.00493146 1437.66
-0.0174076 3.76459e-21 0.00453333 940.434
0.0174076 1.69407e-21 0.00453333 877.698
0.0177905 -5.42101e-20 0.00276844 31.0562
-0.0177905 -2.71051e-20 0.00276844 72.5445
-0.0177573 -2.71051e-20 0.00348298 115.399
0.0177573 2.71051e-20 0.00348298 48.7708
0.017378 0 0.0051328 1528.14
-0.017378 0 0.00513282 1529.57
-0.0174497 0 0.0051796 1496.23
0.0174497 0 0.0051796 1494.74
0.0177264 0 0.00417355 132.756
-0.0177264 2.71051e-20 0.00417356 228.79
-0.0175028 0 0.00510092 1459.44
0.0175028 0 0.00510089 1457.94
-0.0181612 5.42101e-20 0.00171797 63.2379
0.0181612 0 0.00171797 43.3037
-0.0175201 6.77626e-21 0.00522551 1517.62
0.0175201 6.77626e-21 0.00522552 1516.04
-0.0182822 -5.42101e-20 0.00051562 310.564
0.0182823 -5.42101e-20 0.000515625 303.036
-0.0181327 -1.05879e-22 0.00240415 63.251
0.0181321 0 0.00240536 31.9925
0.0181317 0 0.00242421 32.0677
-0.0181316 -9.52912e-22 0.00242445 63.6788
0.0176138 3.01167e-21 0.0049468 1279.46
-0.0176138 -1.50584e-21 0.0049468 1295.98
-0.0180947 1.69407e-21 0.00311468 78.4703
0.0180947 -5.64689e-22 0.00311468 34.6226
-0.0180563 0 0.00382342 137.369
0.0180563 -1.12938e-21 0.00382342 70.8585
0.0177083 -1.35525e-20 0.00534825 1655.66
-0.0177083 0 0.00534827 1657.53
0.0177631 0 0.00528871 1610.16
-0.0177632 1.35525e-20 0.00528871 1612.04
0.0179883 2.25875e-21 0.00454808 398.602
-0.0179883 -2.25875e-21 0.00454808 476.199
0.0178024 -2.71051e-20 0.00540965 1373.67
-0.0178024 0 0.00540968 1375.68
-0.0184402 -2.71051e-20 0.00274762 54.5243
0.0184402 0 0.00274762 26.2363
0.0180052 -1.35525e-21 0.00502463 970.901
-0.0180053 -9.03502e-22 0.00502464 1016.19
-0.0183918 0 0.00345433 72.5586
0.0183918 2.71051e-20 0.00345433 32.8679
0.0179451 6.77626e-21 0.00550275 1067.28
-0.0179452 2.71051e-20 0.0055028 1069.74
0.0183611 -2.71051e-20 0.0041536 67.7879
-0.0183611 -2.71051e-20 0.0041536 130.587
-0.0188422 -1.35525e-20 7.03791e-05 288.304
0.0188422 0 7.03242e-05 279.946
-0.0188477 -1.35525e-20 1.08477e-18 288.278
0.0188478 0 1.12113e-18 279.919
0.0188602 -1.12938e-21 0.00112833 160.165
-0.0188602 -4.51751e-21 0.00112833 173.522
0.0180592 -2.03288e-20 0.00557718 1053.83
-0.0180592 0 0.00557719 1056.49
0.0181347 4.51751e-21 0.00538307 1136.93
-0.0181347 0 0.00538308 1139.38
0.018942 0 6.18177e-19 273.982
-0.018942 1.35525e-20 6.20531e-19 282.508
-0.0188166 -2.25875e-21 0.00228404 55.0474
0.0188166 -1.12938e-21 0.00228404 32.0691
0.0183535 0 0.00480354 205.179
-0.0183535 2.71051e-20 0.00480354 290.798
0.0187311 9.88205e-22 0.00307208 27.8749
-0.0187311 -2.82344e-22 0.00307209 58.0842
0.0190249 -1.35525e-20 8.51688e-05 268.499
-0.019025 1.35525e-20 8.52513e-05 277.196
0.0190314 0 5.64137e-19 268.424
-0.0190315 0 5.6594e-19 277.123
0.0182204 1.35525e-20 0.00568235 1237.4
-0.0182205 -2.71051e-20 0.00568237 1240.05
0.0187398 3.17637e-22 0.00374577 42.7447
-0.0187398 5.29396e-22 0.00374577 83.2083
0.0186713 -3.38813e-21 0.00447941 104.636
-0.0186713 -4.51751e-21 0.00447941 162.105
0.0183607 2.71051e-20 0.00577387 1189.87
-0.0183608 -1.35525e-20 0.00577391 1192.66
0.018471 5.42101e-21 0.00561102 1256.05
-0.018471 -1.35525e-20 0.00561103 1258.78
0.0186129 2.71051e-21 0.00519726 677.186
-0.0186129 0 0.00519727 717.471
-0.0191646 -2.71051e-20 0.00284903 47.6799
0.0191646 0 0.00284904 24.2213
0.0184854 -1.35525e-20 0.00585516 1305.88
-0.0184854 0 0.00585517 1308.78
-0.0191555 -2.71051e-20 0.00330159 51.8441
0.0191555 -2.71051e-20 0.00330159 24.6149
-0.0190101 -2.71051e-20 0.00412451 70.101
0.0190101 -2.71051e-20 0.00412451 40.5787
0.0185921 0 0.00576697 1395.64
-0.0185922 -1.35525e-20 0.00576697 1398.57
0.0186006 1.35525e-20 0.0059303 1648.33
-0.0186006 0 0.00593032 1651.29
0.0195234 0 0.000571323 245.262
-0.0195235 -5.42101e-20 0.000571337 254.786
0.0194631 0 0.00176849 40.1853
-0.0194631 0 0.0017685 57.0844
0.0194127 -7.05861e-22 0.00241319 28.8458
-0.0194127 -4.23516e-22 0.0024132 50.0553
0.0189749 -2.71051e-20 0.00481042 98.9667
-0.0189749 -2.71051e-20 0.00481043 149.323
-0.0193686 -1.35525e-20 0.00306998 48.2015
0.0193686 1.35525e-20 0.00306998 23.3575
0.0188275 4.51751e-21 0.00563325 1180.16
-0.0188275 0 0.00563325 1205.07
0.0187165 1.35525e-20 0.00600598 1554.12
-0.0187166 6.77626e-21 0.006006 1557.36
0.018758 -2.71051e-20 0.00590202 1576.58
-0.0187581 -1.35525e-20 0.00590202 1579.76
-0.0193727 7.05861e-22 0.00376105 55.9335
0.0193727 -9.88205e-22 0.00376105 29.3858
0.0190128 2.71051e-20 0.00540895 322.691
-0.0190128 2.71051e-20 0.00540896 402.695
0.0195979 0 0.00284199 22.3658
-0.0195979 0 0.00284199 45.5978
-0.0193152 2.25875e-21 0.00445137 86.6564
0.0193152 4.51751e-21 0.00445137 55.0678
0.0189326 0 0.00587663 1765.98
-0.0189326 0 0.00587663 1769.23
0.0188663 0 0.00610388 1526.12
-0.0188663 6.77626e-21 0.00610386 1529.58
0.0195613 -2.71051e-20 0.00328798 21.7793
-0.0195614 2.71051e-20 0.00328799 47.1821
0.0189889 0 0.00604039 1536.32
-0.018989 -1.35525e-20 0.00604037 1539.81
-0.0192967 4.51751e-21 0.00511377 201.252
0.0192967 4.51751e-21 0.00511377 158.503
0.0190006 0 0.00619147 1613.63
-0.0190007 0 0.00619146 1617.1
-0.0200621 0 6.76646e-05 251.884
0.0200622 0 6.75697e-05 242.108
-0.020064 0 4.17803e-20 251.907
0.0200641 0 4.14469e-20 242.132
0.0196641 -2.71051e-20 0.0040803 27.8865
-0.0196641 2.71051e-20 0.0040803 51.7106
0.0190835 0 0.00626078 1592.2
-0.0190836 0 0.00626078 1595.8
0.0191312 0 0.00616557 1587.01
-0.0191313 1.35525e-20 0.00616556 1590.59
0.0201001 0 0.00115693 142.914
-0.0201001 0 0.00115692 156.295
0.020134 0 -1.74266e-22 241.948
-0.020134 0 -2.54554e-22 251.771
0.0192828 -3.76459e-22 0.00579514 963.343
-0.0192828 -2.25875e-21 0.00579514 981.464
0.0196202 0 0.00477317 52.7026
-0.0196202 0 0.00477317 75.4742
0.020199 0 6.46581e-05 240.706
-0.0201991 0 6.4737e-05 250.579
0.0202019 0 -1.24442e-21 240.701
-0.020202 0 -1.29903e-21 250.574
-0.0200841 -1.12938e-21 0.00236289 51.9074
0.0200841 0 0.00236289 30.5152
0.0200029 -1.41172e-22 0.00305699 21.4126
-0.0200052 0 0.00305579 46.8748
0.0192378 0 0.00638365 1576.84
-0.0192378 6.77626e-21 0.00638366 1580.41
-0.0195959 0 0.00544033 152.971
0.0195959 2.71051e-20 0.00544033 141.122
0.019304 6.77626e-21 0.00643682 1518.49
-0.019304 6.77626e-21 0.00643682 1522.18
0.0200275 2.25875e-21 0.00361572 23.2734
-0.0200275 -1.12938e-21 0.00361572 48.7986
-0.0193634 6.77626e-21 0.00636554 1489.12
0.0193634 0 0.00636554 1485.38
-0.0193735 1.35525e-20 0.00649741 1556.96
0.0193735 -6.77626e-21 0.00649743 1553.34
0.01996 -1.807e-21 0.00438812 32.9551
-0.01996 -4.51751e-22 0.00438812 56.9618
0.0194904 0 0.00622238 1306.15
-0.0194904 -3.01167e-21 0.00622238 1309.56
-0.019924 -1.12938e-21 0.00509886 90.9607
0.019924 3.38813e-21 0.00509886 74.4036
-0.0195415 0 0.00664815 1632.9
0.0195416 0 0.00664816 1629.49
0.0202851 0 0.004065 22.1201
-0.0202851 0 0.004065 47.9216
-0.0198605 0 0.00581201 393.693
0.0198605 0 0.005812 400.317
-0.0196164 2.71051e-20 0.00659814 1604.99
0.0196164 0 0.00659815 1601.53
0.0207232 -1.0842e-19 0.00058077 237.303
-0.0207232 0 0.000580775 247.447
-0.0196178 -2.71051e-20 0.00671647 1474.47
0.0196178 0 0.00671648 1470.75
0.020698 0 0.00176855 42.1017
-0.020698 5.42101e-20 0.00176856 59.2919
0.020263 2.71051e-20 0.00474092 32.7609
-0.020263 5.42101e-20 0.00474092 55.7889
-0.0196919 -1.35525e-20 0.00678278 1675.8
0.0196919 -2.71051e-20 0.00678278 1672.11
-0.0197373 0 0.00670395 1642.62
0.0197373 2.71051e-20 0.00670395 1638.92
0.0206519 -5.42101e-20 0.0030578 19.7529
-0.0206519 0 0.00305779 47.753
-0.0199196 -1.6134e-22 0.00639127 1026.29
0.0199196 2.42009e-22 0.00639127 1034.42
-0.0202264 -5.42101e-20 0.00542437 78.1497
0.0202264 2.71051e-20 0.00542436 69.5333
0.020622 1.41172e-22 0.00374914 20.7351
-0.0206228 2.82344e-22 0.00375114 49.6145
0.0198641 0 0.00693691 1705.63
-0.0198641 0 0.00693695 1709.24
-0.0205958 0 0.00438945 52.445
0.0205958 0 0.00438945 24.6213
-0.0202261 0 0.00606703 127.326
0.0202261 0 0.00606702 182.995
-0.019943 -6.77626e-21 0.00700755 1715.86
0.019943 0 0.00700753 1712.18
-0.0200066 6.77626e-21 0.00693928 1678.22
0.0200066 -6.77626e-21 0.00693924 1674.47
0.0205707 2.25875e-21 0.00506212 40.879
-0.0205707 2.25875e-21 0.00506213 61.6087
-0.0200223 1.35525e-20 0.00707846 1742.52
0.0200223 6.77626e-21 0.00707846 1738.95
-0.0201294 6.02335e-21 0.0068093 1485.26
0.0201294 -7.52918e-21 0.00680928 1481.34
-0.0212882 -6.77626e-21 4.76376e-05 246.628
0.0212882 -6.77626e-21 4.75779e-05 236.651
-0.0212888 -6.77626e-21 7.04351e-22 246.63
0.0212889 -6.77626e-21 7.21822e-22 236.653
-0.0209335 -2.71051e-20 0.00403737 52.1001
0.0209335 -2.71051e-20 0.00403737 19.6957
-0.0205488 -2.25875e-21 0.00572803 85.6723
0.0205489 0 0.00572803 93.4515
0.0213388 0 -2.89833e-23 236.607
-0.0213388 6.77626e-21 -2.82364e-23 246.576
0.0213183 1.12938e-21 0.00116254 140.487
-0.0213183 -1.12938e-21 0.00116254 156.022
0.0213863 -6.77626e-21 4.6423e-05 236.502
-0.0213864 -6.77626e-21 4.64792e-05 246.472
0.0213874 0 -2.69e-23 236.501
-0.0213874 0 -2.61819e-23 246.471
0.0208978 -2.71051e-20 0.00471075 24.0473
-0.0208978 -5.42101e-20 0.00471075 53.9902
0.0212954 1.69407e-21 0.00239197 31.1988
-0.0212955 1.12938e-21 0.00239197 60.008
-0.0201947 0 0.00723276 1791.36
0.0201949 -1.35525e-20 0.00723272 1788.05
0.0204968 0 0.00642258 455.321
-0.0204968 -2.25875e-21 0.00642259 427.845
-0.0202705 0 0.0071837 1761.25
0.0202706 -2.71051e-20 0.00718367 1757.89
-0.0202683 -2.71051e-20 0.00729859 1611.93
0.0202684 0 0.00729853 1608.35
-0.0208996 -2.71051e-20 0.00536219 58.8734
0.0208996 2.71051e-20 0.00536218 37.9627
-0.0203418 -2.71051e-20 0.00736427 1815.45
0.0203419 0 0.00736419 1812.07
-0.0213396 -1.69407e-22 0.00363555 56.0081
0.0213396 5.64689e-22 0.00363554 19.3578
-0.0203851 -1.35525e-20 0.00728768 1781.67
0.0203852 0 0.00728762 1778.27
0.0212333 0 0.00436374 20.8027
-0.0212333 -3.76459e-22 0.00436374 55.1313
-0.0208556 -2.71051e-20 0.00604666 76.8381
0.0208556 2.71051e-20 0.00604666 80.1762
0.0205628 7.26028e-22 0.0069869 1127.87
-0.0205628 4.03349e-22 0.00698694 1113.86
0.0205131 0 0.00751736 1849.19
-0.0205131 0 0.0075175 1852.57
0.0212965 -1.12938e-21 0.00494792 27.3197
-0.0212965 -5.64689e-22 0.00494793 57.5242
-0.0208609 2.71051e-20 0.00667565 113.283
0.0208609 -2.71051e-20 0.00667563 198.851
-0.0205926 -6.77626e-21 0.00758861 1856.33
0.0219386 5.42101e-20 0.000582606 235.837
-0.0219387 1.0842e-19 0.000582603 245.639
0.0205927 0 0.00758853 1852.9
-0.0211971 -2.25875e-21 0.00569346 63.3763
0.0211971 -2.25875e-21 0.00569346 46.6291
-0.0206536 6.77626e-21 0.00752337 1816.25
0.0206537 6.77626e-21 0.00752324 1812.71
0.0219221 0 0.0017777 42.6551
-0.0219221 0 0.0017777 67.9045
-0.0206735 1.35525e-20 0.00766101 1894.76
0.0206737 6.77626e-21 0.00766099 1891.4
-0.0207725 1.50584e-21 0.00739839 1606.25
0.0207725 1.50584e-21 0.00739832 1603.05
0.0211741 1.12938e-21 0.00634929 103.222
-0.0211741 0 0.00634931 83.8493
0.0219191 -5.42101e-20 0.00301936 19.6417
-0.0219191 5.42101e-20 0.00301937 64.6428
0.0215298 2.71051e-20 0.00535617 26.5205
-0.0215298 -2.71051e-20 0.00535617 57.3953
-0.020847 -1.35525e-20 0.00781618 1962.92
0.0208472 0 0.0078161 1959.66
0.0211304 6.77626e-21 0.00702572 496.896
-0.0211304 0 0.00702576 462.515
0.0218756 0 0.00434045 17.489
-0.0218756 0 0.00434045 62.0497
-0.020919 0 0.0077704 1933.26
0.0209191 -1.35525e-20 0.00777033 1929.94
0.0215089 2.71051e-20 0.00600419 42.5501
-0.0215089 0 0.0060042 60.6198
-0.0209199 -2.71051e-20 0.00788138 1780.67
0.0209201 -2.71051e-20 0.00788126 1777.09
0.0218609 -3.76459e-22 0.00500984 22.5617
-0.0218609 0 0.00500984 58.7154
-0.020991 0 0.00794492 1994.37
0.0209911 0 0.00794476 1990.99
-0.0210297 1.35525e-20 0.00787228 1960.28
0.0210298 0 0.00787216 1956.86
-0.0214833 -2.71051e-20 0.00666115 83.3202
0.0214834 2.71051e-20 0.00666112 87.3492
0.0211969 0 0.00757908 1245.78
-0.0211969 -8.06698e-23 0.00757916 1235.34
-0.0225192 0 3.03538e-05 244.912
0.0225192 -3.38813e-21 3.03161e-05 235.818
-0.0225194 0 -1.06276e-24 244.912
0.0225195 0 -1.08338e-24 235.818
0.0225512 -6.77626e-21 2.57474e-25 235.809
-0.0225512 0 2.59318e-25 244.87
0.0218404 0 0.00566342 29.7698
-0.0218404 1.12938e-21 0.00566343 58.6557
0.0225415 1.12938e-21 0.00116563 140.532
-0.0225415 0 0.00116563 166.142
0.0225819 0 2.96477e-05 235.779
-0.0225819 0 2.96843e-05 244.82
0.0225822 0 2.37912e-25 235.779
-0.0225822 3.38813e-21 2.39447e-25 244.82
0.0211521 0 0.00808877 2039.91
-0.021152 6.77626e-21 0.00808902 2043.64
0.0225347 1.12938e-21 0.00238614 31.7594
-0.0225347 -1.69407e-21 0.00238614 81.5523
-0.0214889 0 0.00728092 130.296