# p  POINT_DATA 26867
# x  y  z  p
0.0115468 0 6.39774e-08 -0.015105
-0.0115468 0 6.39774e-08 0.0943234
0.0115468 6.77626e-21 0.00015991 -0.0151049
-0.0115468 0 0.000159974 0.0943246
0.0115468 1.35525e-20 0.000505084 -0.0151049
-0.0115468 1.35525e-20 0.000505284 0.0943253
0.0115468 0 0.000661266 -0.015105
-0.0115468 1.35525e-20 0.000661528 0.0943246
0.0115468 6.77626e-21 0.000824591 -0.0151049
-0.0115468 1.35525e-20 0.000824855 0.0943306
0.0115468 0 0.00119315 -0.0151049
-0.0115467 -6.77626e-21 0.00119341 0.0943314
0.0116176 0 9.47928e-05 -0.0151049
-0.0116176 -1.35525e-20 9.48608e-05 0.0943263
-0.0116191 0 6.70009e-08 0.0943263
0.0116191 -1.35525e-20 6.69999e-08 -0.0151049
0.0115467 0 0.00135627 -0.015105
-0.0115467 0 0.00135654 0.0943264
0.0116144 0 0.0005677 -0.0151048
-0.0116144 0 0.000567955 0.0943271
0.0116106 0 0.000748261 -0.0151048
-0.0116106 0 0.00074858 0.0943303
0.0115467 6.77626e-21 0.00152892 -0.0151049
-0.0115467 0 0.00152913 0.0943317
0.0116105 -1.35525e-20 0.00124687 -0.0151048
-0.0116105 0 0.00124719 0.0943314
0.0116054 0 0.00142604 -0.0151048
-0.0116054 0 0.00142632 0.0943316
0.0115467 0 0.00190897 -0.0151049
-0.0115467 -6.77626e-21 0.00190903 0.0943307
0.0117276 1.35525e-20 6.63331e-08 -0.0151048
-0.0117276 0 6.63357e-08 0.0943271
0.0117103 2.71051e-20 0.000650308 -0.0151048
-0.0117103 0 0.000650723 0.0943288
0.0115467 0 0.002087 -0.0151051
-0.0115467 0 0.002087 0.0943241
0.011609 0 0.00193558 -0.0151049
-0.011609 0 0.00193568 0.0943303
0.0117025 1.35525e-20 0.00130847 -0.0151049
-0.0117026 6.77626e-21 0.00130891 0.0943296
0.0116004 0 0.00211165 -0.0151051
-0.0116004 -1.35525e-20 0.00211165 0.0943249
0.0116425 1.35525e-20 0.00204724 -0.015105
-0.0116425 -1.35525e-20 0.0020473 0.0943262
-0.0116585 -1.35525e-20 0.00213828 0.0943274
0.0116585 1.35525e-20 0.00213829 -0.0151049
0.0117067 0 0.00192887 -0.0151049
-0.0117067 0 0.00192906 0.0943294
0.0118537 0 0.000958822 -0.0151047
-0.0118537 4.51751e-21 0.000959338 0.0943293
0.0119178 -2.25875e-21 0.000318505 -0.0151048
-0.0119179 6.77626e-21 0.000318753 0.0943318
0.011932 -1.35525e-20 7.04545e-08 -0.0151047
-0.011932 1.35525e-20 7.04584e-08 0.094331
0.0118325 -2.71051e-21 0.00163048 -0.0151048
-0.0118325 8.13152e-21 0.00163082 0.0943312
0.0118724 -1.35525e-20 0.00142154 -0.0151048
-0.0118724 0 0.00142207 0.0943292
-0.0117616 1.35525e-20 0.0021856 0.0943313
0.0117616 -1.35525e-20 0.0021856 -0.0151048
0.0118132 -8.13152e-20 0.00220929 -0.0151048
-0.0118132 -2.71051e-20 0.00220929 0.0943304
0.0118989 -3.76459e-22 0.00195759 -0.0151046
-0.0118989 1.12938e-21 0.00195776 0.094335
0.0119718 0 0.00153816 -0.015105
-0.0119719 6.77626e-21 0.00153863 0.0943209
0.0120983 0 7.96199e-08 -0.0151046
-0.0120983 1.35525e-20 7.96227e-08 0.0943339
0.0120694 -6.77626e-21 0.000852289 -0.0151047
-0.0120695 6.77626e-21 0.000852887 0.094328
0.0122081 0 0.000167029 -0.0151048
-0.0122082 -2.71051e-20 0.000167211 0.0943361
0.012221 0 7.14643e-08 -0.0151048
-0.012221 -1.35525e-20 7.14638e-08 0.094336
0.0121684 -1.35525e-21 0.0012252 -0.0151045
-0.0121684 4.51751e-22 0.00122579 0.0943364
-0.0120251 6.77626e-21 0.00230653 0.0943357
0.0120251 -2.71051e-20 0.00230654 -0.0151044
0.0122349 -6.45358e-22 0.000642094 -0.0151044
-0.0122349 -5.16287e-21 0.00064261 0.0943404
0.0120593 5.0822e-21 0.00232225 -0.0151044
-0.0120595 0 0.00232234 0.094336
0.0122855 2.71051e-20 6.71745e-08 -0.0151045
-0.0122856 0 6.71712e-08 0.0943375
0.0122109 3.67048e-21 0.00173612 -0.0151044
-0.012211 3.67048e-21 0.00173646 0.0943398
0.0121468 1.35525e-20 0.00214597 -0.0151043
-0.0121468 0 0.00214607 0.0943375
0.0122263 6.77626e-21 0.00229069 -0.0151043
-0.0122264 -6.77626e-21 0.00229083 0.0943378
0.0124605 1.35525e-20 5.58025e-08 -0.0151044
-0.0124606 -2.71051e-20 5.57974e-08 0.094342
0.0125121 2.1684e-20 0.000225072 -0.0151043
-0.0125121 1.0842e-20 0.000225226 0.0943434
0.012289 0 0.00242767 -0.0151044
-0.012289 -1.35525e-20 0.00242767 0.0943373
0.0125901 0 0.000921608 -0.015104
-0.0125902 2.71051e-20 0.000921969 0.0943429
-0.0124011 -6.77626e-21 0.00241706 0.0943397
0.0124011 1.35525e-20 0.00241705 -0.0151043
-0.0123956 0 0.00247653 0.0943398
0.0123957 0 0.00247657 -0.0151043
0.0124525 1.69407e-21 0.00218684 -0.0151043
-0.0124526 1.69407e-21 0.00218694 0.0943398
0.0125382 1.35525e-20 0.00209398 -0.0151044
-0.0125382 -1.35525e-20 0.00209412 0.0943361
0.0126447 2.71051e-21 0.00162104 -0.015104
-0.0126448 1.89735e-20 0.00162131 0.0943459
-0.012772 1.35525e-20 0.000141313 0.09435
0.0127721 0 0.000141176 -0.015104
-0.0127747 0 1.51157e-08 0.0943499
0.0127748 2.71051e-20 1.51099e-08 -0.015104
0.0126132 2.71051e-21 0.00241893 -0.0151041
-0.0126132 1.35525e-20 0.00241896 0.0943455
0.0125864 1.35525e-20 0.00256393 -0.015104
-0.0125864 -1.35525e-20 0.00256393 0.0943468
-0.0129279 -1.35525e-20 4.53136e-09 0.0943535
0.0129279 1.35525e-20 4.53058e-09 -0.0151037
0.0129181 -6.77626e-21 0.000605291 -0.0151037
-0.0129182 -9.03502e-21 0.000605505 0.0943531
0.0129069 0 0.00122264 -0.0151037
-0.012907 -6.77626e-21 0.00122289 0.0943532
-0.0127465 0 0.00263727 0.0943526
0.0127465 5.42101e-20 0.0026373 -0.0151039
0.0128746 0 0.00194104 -0.0151038
-0.0128746 4.51751e-21 0.00194116 0.0943504
0.0130688 1.35525e-20 3.79635e-09 -0.0151035
-0.0130689 -1.35525e-20 3.79672e-09 0.0943573
0.0130684 0 0.000129705 -0.0151035
-0.0130685 -1.35525e-20 0.000129767 0.0943574
0.0129106 -4.51751e-21 0.00229685 -0.0151037
-0.0129106 0 0.0022969 0.0943535
0.0131166 8.13152e-21 0.00164045 -0.0151035
-0.0131166 -1.6263e-20 0.0016406 0.0943603
0.013248 0 0.000302942 -0.0151033
-0.013248 0 0.000303006 0.0943621
-0.0129825 6.77626e-21 0.00274594 0.0943613
0.0129826 1.35525e-20 0.00274602 -0.0151036
0.0132464 0 0.000911421 -0.0151033
-0.0132464 0 0.000911568 0.0943618
-0.0131305 -9.03502e-21 0.00262462 0.0943644
0.0131306 -4.51751e-21 0.0026246 -0.0151035
0.0132416 2.71051e-20 0.00211418 -0.0151035
-0.0132416 0 0.00211424 0.0943577
0.0131188 1.35525e-20 0.00280831 -0.0151035
-0.0131188 0 0.00280832 0.0943645
-0.013437 0 2.0837e-09 0.0943666
0.0134371 1.35525e-20 2.08334e-09 -0.0151032
-0.0134397 0 0.000120678 0.0943667
0.0134397 0 0.00012062 -0.0151032
0.0135679 0 1.40568e-09 -0.015103
-0.0135679 -1.35525e-20 1.40569e-09 0.0943693
0.0135763 9.03502e-21 0.000596651 -0.015103
-0.0135763 0 0.000596723 0.0943699
0.0135724 4.51751e-21 0.00122409 -0.015103
-0.0135724 2.25875e-21 0.00122418 0.0943709
-0.0133502 0 0.0029148 0.0943684
0.0133503 2.71051e-20 0.00291486 -0.0151034
0.013478 6.77626e-21 0.00238371 -0.0151032
-0.013478 0 0.00238375 0.0943692
0.0135677 -2.25875e-21 0.0018552 -0.0151031
-0.0135677 -4.51751e-21 0.00185526 0.0943703
0.0136939 0 1.22236e-09 -0.0151029
-0.013694 -1.35525e-20 1.2223e-09 0.0943724
0.0136952 1.35525e-20 0.000110031 -0.0151029
-0.0136952 -1.35525e-20 0.000110068 0.0943725
-0.0135432 -2.03288e-20 0.00300515 0.0943784
0.0135435 2.03288e-20 0.00300527 -0.0151032
-0.0139035 0 0.000294203 0.0943775
0.0139035 0 0.00029418 -0.0151028
0.0135883 1.69407e-20 0.00302624 -0.0151031
-0.0135884 3.38813e-21 0.00302627 0.0943796
0.0139156 0 0.000900725 -0.0151027
-0.0139156 -5.42101e-20 0.000900773 0.0943786
-0.01368 2.25875e-21 0.00276396 0.0943795
0.0136801 4.51751e-21 0.00276395 -0.015103
0.0139126 0 0.00154323 -0.0151027
-0.0139126 0 0.00154327 0.0943796
0.0138988 0 0.00219575 -0.0151028
-0.0138988 0 0.00219579 0.0943805
-0.0141099 1.35525e-20 3.98814e-10 0.094383
0.01411 2.71051e-20 3.98707e-10 -0.0151026
-0.0141138 1.35525e-20 9.87891e-05 0.0943831
0.0141139 0 9.87469e-05 -0.0151026
-0.0138007 0 0.00312567 0.0943792
0.0138008 1.35525e-20 0.00312569 -0.0151029
0.0142228 -1.35525e-20 2.30663e-10 -0.0151026
-0.0142228 0 2.30703e-10 0.094386
0.0142415 0 0.000580985 -0.0151024
-0.0142415 -2.25875e-21 0.000581003 0.094387
0.0142522 -2.25875e-21 0.00120638 -0.0151023
-0.0142522 1.12938e-21 0.0012064 0.094387
0.0143301 0 2.07129e-10 -0.0151026
-0.0143301 0 2.07152e-10 0.0943893
0.0143313 0 8.886e-05 -0.0151026
-0.0143313 -1.35525e-20 8.88982e-05 0.0943893
-0.0139712 6.77626e-21 0.00320466 0.0943896
0.0139713 -6.77626e-21 0.00320471 -0.0151024
0.0142441 -1.12938e-21 0.00187483 -0.0151024
-0.0142441 -7.90564e-21 0.00187485 0.0943862
-0.0140734 -5.42101e-21 0.00302456 0.0943911
0.0140735 -2.71051e-21 0.00302455 -0.0151023
0.0141851 -4.51751e-21 0.0026086 -0.0151025
-0.0141851 -9.03502e-22 0.0026086 0.0943864
0.0140971 6.77626e-21 0.00326317 -0.0151023
-0.0140971 6.77626e-21 0.00326321 0.0943907
0.0142075 1.35525e-20 0.0031652 -0.0151022
-0.0142075 1.35525e-20 0.00316527 0.0943916
-0.0145609 0 0.00028173 0.0943954
0.0145609 -2.71051e-20 0.000281722 -0.0151024
0.0145815 0 0.000874339 -0.015102
-0.0145815 5.42101e-20 0.000874352 0.0943966
0.0142358 0 0.00332756 -0.0151024
-0.0142358 1.35525e-20 0.00332756 0.0943861
-0.0145905 0 0.00151944 0.0943931
0.0145905 5.42101e-20 0.00151943 -0.015102
-0.0145715 0 0.00221287 0.0943909
0.0145715 0 0.00221286 -0.0151022
-0.0143572 0 0.00338359 0.0943863
0.0143573 1.35525e-20 0.00338361 -0.0151023
0.0144402 -7.52918e-21 0.00302844 -0.0151022
-0.0144402 -3.01167e-21 0.00302844 0.0943896
-0.0143824 0 0.00330546 0.0943875
0.0143824 1.35525e-20 0.00330544 -0.0151023
-0.0147853 1.35525e-20 4.21902e-11 0.0944003
0.0147853 0 4.21638e-11 -0.0151022
-0.0147878 1.35525e-20 7.9557e-05 0.0944003
0.0147879 0 7.95089e-05 -0.0151022
-0.0148815 1.35525e-20 2.04877e-11 0.0944012
0.0148815 1.35525e-20 2.04793e-11 -0.015102
0.0146215 5.42101e-20 0.00280141 -0.0151022
-0.0146215 -2.71051e-20 0.00280142 0.094387
0.0149014 -1.12938e-21 0.000554696 -0.0151018
-0.0149014 2.25875e-21 0.000554698 0.0944034
-0.0145855 0 0.00326148 0.0943883
0.0145855 -2.71051e-20 0.00326148 -0.0151022
0.014922 0 0.00116913 -0.0151016
-0.014922 4.51751e-21 0.00116914 0.0944032
0.0149733 0 1.85822e-11 -0.015102
-0.0149733 0 1.85877e-11 0.0944042
0.0149737 0 7.37337e-05 -0.015102
-0.0149737 -1.35525e-20 7.37863e-05 0.0944042
0.0146079 0 0.00349938 -0.0151022
-0.014608 -2.71051e-20 0.00349939 0.0943885
0.0149198 -5.64689e-21 0.00184898 -0.0151017
-0.0149198 1.12938e-21 0.00184898 0.0944001
0.0146663 1.35525e-20 0.00343242 -0.0151022
-0.0146663 0 0.00343245 0.09439
0.0149195 -3.38813e-21 0.0025206 -0.0151018
-0.0149195 0 0.00252061 0.0943983
0.0147322 1.35525e-20 0.00355672 -0.0151021
-0.0147322 -1.35525e-20 0.00355672 0.0943917
0.0148881 -1.12938e-21 0.00309606 -0.0151019
-0.0148881 0 0.00309607 0.0943964
-0.0152103 0 0.000264569 0.0944093
0.0152103 0 0.000264568 -0.0151017
-0.0152372 2.71051e-20 0.0008328 0.094412
0.0152372 -2.71051e-20 0.000832795 -0.015101
-0.0148482 2.03288e-20 0.00360995 0.0943968
0.0148482 -6.77626e-21 0.00360996 -0.0151019
-0.0148928 1.35525e-20 0.00347705 0.0943972
0.0148929 1.35525e-20 0.00347703 -0.0151019
-0.0152552 2.71051e-20 0.0014732 0.0944103
0.0152552 -2.71051e-20 0.00147319 -0.0151012
-0.0152472 -5.42101e-20 0.00216845 0.0944056
0.0152472 0 0.00216845 -0.0151014
-0.0154527 -6.77626e-21 2.80358e-12 0.0944169
0.0154528 0 2.79985e-12 -0.0151017
-0.015454 -1.35525e-20 6.43525e-05 0.0944169
0.0154541 -6.77626e-21 6.42876e-05 -0.0151017
0.0150217 2.71051e-20 0.0036898 -0.0151016
-0.0150218 -2.71051e-20 0.00368982 0.0944014
0.0150966 -2.71051e-20 0.00340471 -0.0151017
-0.0150966 0 0.00340473 0.0944015
0.0152385 -5.42101e-20 0.00284793 -0.0151014
-0.0152385 0 0.00284795 0.0944092
0.0155345 -1.35525e-20 1.12383e-12 -0.0151015
-0.0155345 0 1.12475e-12 0.0944175
0.015136 1.35525e-20 0.00358109 -0.0151015
-0.0151361 0 0.00358111 0.0944036
-0.0155483 2.25875e-21 0.000512804 0.0944185
0.0155483 2.25875e-21 0.000512807 -0.0151012
0.0156089 -6.77626e-21 5.68089e-05 -0.0151016
-0.015609 -6.77626e-21 5.68715e-05 0.0944228
0.0156116 0 1.05225e-12 -0.0151016
-0.0156117 6.77626e-21 1.05295e-12 0.0944228
0.0151553 0 0.00375104 -0.0151015
-0.0151554 0 0.00375106 0.0944024
0.0156 1.58113e-21 0.00110028 -0.0151008
-0.0156001 -2.25875e-21 0.00110028 0.094419
0.0155874 -1.12938e-21 0.0017884 -0.015101
-0.0155874 0 0.0017884 0.0944101
0.0152737 -1.35525e-20 0.00381165 -0.0151011
-0.0152737 1.35525e-20 0.00381167 0.0944093
0.0153111 1.35525e-20 0.00369351 -0.015101
-0.0153111 0 0.00369353 0.0944096
0.0155684 -5.64689e-22 0.00250744 -0.0151011
-0.0155684 1.12938e-21 0.00250745 0.0944073
-0.015842 -2.71051e-20 0.000233949 0.0944303
0.015842 0 0.000233939 -0.0151015
0.0155233 -2.25875e-21 0.00325342 -0.0151011
-0.0155233 4.51751e-22 0.00325344 0.0944088
-0.0158872 5.42101e-20 0.000762439 0.0944231
0.0158872 -2.71051e-20 0.000762443 -0.0151007
0.0154852 0 0.00363865 -0.0151007
-0.0154853 0 0.00363867 0.0944137
0.0154926 -6.77626e-21 0.00391521 -0.015101
-0.0154927 1.35525e-20 0.00391523 0.0944092
-0.0159268 -2.71051e-20 0.00138121 0.094426
0.0159268 2.71051e-20 0.00138121 -0.0151005
0.0155593 0 0.00385211 -0.0151009
-0.0155593 0 0.00385213 0.0944094
-0.0158994 -2.71051e-20 0.00212232 0.0943997
0.0158994 -2.71051e-20 0.00212231 -0.0151009
0.0155753 0 0.0039559 -0.0151011
-0.0155753 0 0.00395592 0.0944052
0.0158856 -2.71051e-20 0.00284658 -0.0151009
-0.0158856 -2.71051e-20 0.00284659 0.0944131
0.0156482 0 0.0040035 -0.0151014
-0.0156482 6.77626e-21 0.00400354 0.094401
-0.0161504 -4.51751e-21 0.000464673 0.0944362
0.0161504 -7.34095e-21 0.000464663 -0.0151004
0.0156709 1.35525e-20 0.00394832 -0.0151013
-0.015671 0 0.00394834 0.0944027
0.0157655 1.50584e-21 0.00368363 -0.015101
-0.0157655 1.50584e-21 0.00368365 0.0944079
0.0162446 4.23516e-22 7.62403e-14 -0.0151005
-0.016245 0 7.56613e-14 0.094436
-0.0162671 -8.47033e-22 1.42355e-05 0.0944366
0.0162671 3.38813e-21 1.44936e-05 -0.0151005
-0.0162672 0 1.74793e-06 0.0944365
0.0162714 0 1.43204e-06 -0.0151005
0.0159384 -2.71051e-20 0.00346447 -0.0151011
-0.0159385 0 0.00346449 0.0944071
-0.0162376 -5.64689e-23 0.00174471 0.094421
0.0162376 -9.03502e-22 0.00174471 -0.0151005
0.0163345 -2.25875e-21 0.000944398 -0.0151
-0.0163345 -2.25875e-21 0.000944389 0.094438
0.015896 5.42101e-20 0.00392571 -0.0151012
-0.015896 2.71051e-20 0.00392573 0.0944027
-0.0162554 1.6134e-22 0.00244438 0.0944211
0.0162554 2.42009e-22 0.00244439 -0.0151003
0.0159401 0 0.00419454 -0.0151014
-0.0159401 -1.35525e-20 0.00419456 0.0944002
0.0162141 1.12938e-21 0.00317059 -0.0151005
-0.0162141 -1.69407e-21 0.0031706 0.0944202
0.015999 0 0.0041493 -0.0151013
-0.0159991 0 0.0041493 0.0944021
0.0160259 -1.35525e-20 0.00425061 -0.015101
-0.016026 1.35525e-20 0.00425065 0.0944069
-0.0166367 -9.41148e-23 0.00035282 0.0944676
0.0166368 1.8823e-22 0.000352947 -0.0150978
0.0160815 1.35525e-20 0.00428686 -0.0151009
-0.0160816 0 0.00428691 0.0944082
0.0161049 -1.35525e-20 0.004232 -0.0151009
-0.0161051 0 0.00423203 0.0944085
0.0162263 -1.05879e-22 0.00384235 -0.0151008
-0.0162266 -2.75286e-21 0.00384243 0.094413
0.0162339 0 0.00382625 -0.0151007
-0.016234 1.16467e-21 0.00382673 0.0944133
0.0162338 0 0.00384434 -0.0151008
-0.0162398 8.15269e-21 0.00384585 0.0944131
-0.0167083 0 1.01673e-14 0.094464
0.0167084 -1.35525e-20 1.01342e-14 -0.015098
0.0166691 -2.71051e-20 0.00146459 -0.0151008
-0.0166691 -5.42101e-20 0.0014646 0.0944202
0.0165265 -2.71051e-20 0.00282079 -0.0151
-0.0165265 0 0.0028208 0.0944269
0.0161983 0 0.00436316 -0.015101
-0.0161985 -6.77626e-21 0.00436322 0.0944065
-0.0166645 5.42101e-20 0.00194622 0.0944372
0.0166645 2.71051e-20 0.00194622 -0.0150998
0.0165187 2.71051e-20 0.00350445 -0.0151001
-0.0165187 0 0.00350445 0.0944341
0.0169423 -1.35525e-20 1.10804e-15 -0.0150991
-0.0169424 0 1.1016e-15 0.094441
0.0163498 -1.35525e-20 0.00446209 -0.0151014
-0.0163499 -1.35525e-20 0.00446209 0.0944009
0.0169271 0 0.000866322 -0.015099
-0.0169272 1.97641e-21 0.000866349 0.0944555
-0.0168736 -1.35525e-20 0.00168494 0.094444
0.0168736 -1.35525e-20 0.00168494 -0.0150997
0.0164548 1.12938e-21 0.00428001 -0.0151015
-0.0164548 -2.25875e-21 0.00428001 0.0943999
0.0168849 0 0.00243442 -0.0150994
-0.0168849 -1.83524e-21 0.00243442 0.0944422
-0.0164961 0 0.00455753 0.0944165
0.0164962 -1.35525e-20 0.0045576 -0.0151006
0.0168359 1.69407e-21 0.00316003 -0.0150997
-0.0168359 0 0.00316003 0.0944379
-0.0171339 -1.35525e-20 1.75376e-16 0.0944366
0.0171341 -6.77626e-21 1.78371e-16 -0.0150987
-0.0170775 5.42101e-20 0.00142436 0.0944582
0.0170775 5.42101e-20 0.00142435 -0.0150995
-0.0171372 0 0.000271957 0.0944337
0.0171373 -4.06576e-21 0.000272005 -0.0150989
-0.0170666 2.71051e-20 0.0019255 0.0944527
0.0170666 -2.71051e-20 0.0019255 -0.0150991
0.0167863 2.25875e-21 0.00388663 -0.0151001
-0.0167864 -1.12938e-21 0.00388663 0.0944289
-0.0166205 1.35525e-20 0.00463871 0.0944234
0.0166206 0 0.00463876 -0.0151002
-0.0166523 1.35525e-20 0.00459983 0.0944245
0.0166524 0 0.00459991 -0.0151002
-0.0166794 -1.35525e-20 0.00467709 0.0944242
0.0166794 0 0.00467712 -0.0151002
-0.0168451 -7.05861e-22 0.00433528 0.0944257
0.0168452 -4.23516e-22 0.00433529 -0.0151001
-0.0171764 2.71051e-20 0.00277492 0.0944443
0.0171764 2.71051e-20 0.00277493 -0.0150991
0.0174301 0 3.0333e-16 -0.0150988
-0.0174307 0 3.00573e-16 0.0944389
-0.0168042 -1.35525e-20 0.0046435 0.0944302
0.0168042 -1.35525e-20 0.00464355 -0.0150999
-0.0167886 6.77626e-21 0.00474834 0.0944294
0.0167886 -6.77626e-21 0.00474833 -0.0151
0.0174491 6.77626e-21 0.000139018 -0.0150988
-0.0174496 0 0.000138437 0.0944391
0.0171294 0 0.00350657 -0.0150995
-0.0171294 -2.71051e-20 0.00350657 0.0944472
-0.0175669 0 -2.94673e-17 0.0944414
0.0175669 0 -2.95019e-17 -0.015099
0.0175583 7.05861e-22 0.000896586 -0.0150988
-0.0175584 -2.82344e-22 0.000896624 0.0944552
0.0175189 1.41172e-22 0.00167529 -0.0150989
-0.0175189 -2.82344e-22 0.00167528 0.0944592
-0.0176062 -6.77626e-21 4.62814e-05 0.0944416
0.0176065 -6.77626e-21 4.65287e-05 -0.0150989
-0.0176089 -6.77626e-21 -8.32258e-18 0.0944416
0.0176092 0 -8.282e-18 -0.0150989
-0.0171399 -2.71051e-20 0.00413685 0.0944246
0.0171399 0 0.00413685 -0.0151001
-0.0176343 6.77626e-21 -4.6544e-18 0.094444
0.0176347 0 -4.56016e-18 -0.0150989
-0.0170445 -2.71051e-20 0.00462908 0.0944384
0.0170445 -2.71051e-20 0.00462909 -0.0150995
0.0175376 0 0.00228764 -0.0150989
-0.0175376 5.64689e-22 0.00228764 0.0944468
-0.0170023 1.35525e-20 0.00488772 0.094437
0.0170024 2.71051e-20 0.00488778 -0.0150998
-0.0176972 0 4.73799e-05 0.0944494
0.0176979 0 4.76325e-05 -0.0150987
-0.0177006 6.77626e-21 -1.62136e-17 0.0944494
0.0177013 0 -1.6163e-17 -0.0150987
-0.0174646 9.03502e-22 0.00310782 0.0944401
0.0174646 1.58113e-21 0.00310783 -0.0150992
-0.0171112 1.35525e-20 0.00481655 0.0944412
0.0171113 -1.35525e-20 0.00481662 -0.0150997
-0.0171346 0 0.00497401 0.094444
0.0171346 -1.35525e-20 0.00497404 -0.0150999
0.0174342 1.12938e-21 0.00383428 -0.0150995
-0.0174342 -1.12938e-21 0.00383428 0.0944384
-0.0172171 2.71051e-20 0.00502788 0.0944712
0.0172172 0 0.0050279 -0.0150992
-0.0172554 0 0.00493142 0.0944677
0.0172555 -2.71051e-20 0.00493146 -0.0150992
-0.0174076 3.76459e-21 0.00453333 0.0944436
0.0174076 1.69407e-21 0.00453333 -0.0150996
0.0177905 -5.42101e-20 0.00276844 -0.0150989
-0.0177905 -2.71051e-20 0.00276844 0.0944321
-0.0177573 -2.71051e-20 0.00348298 0.0944353
0.0177573 2.71051e-20 0.00348298 -0.0150992
0.017378 0 0.0051328 -0.0150998
-0.017378 0 0.00513282 0.0944584
-0.0174497 0 0.0051796 0.0944524
0.0174497 0 0.0051796 -0.0151001
0.0177264 0 0.00417355 -0.0150993
-0.0177264 2.71051e-20 0.00417356 0.0944465
-0.0175028 0 0.00510092 0.0944483
0.0175028 0 0.00510089 -0.0151002
-0.0181612 5.42101e-20 0.00171797 0.0944557
0.0181612 0 0.00171797 -0.0150987
-0.0175201 6.77626e-21 0.00522551 0.0944625
0.0175201 6.77626e-21 0.00522552 -0.0150997
-0.0182822 -5.42101e-20 0.00051562 0.0944787
0.0182823 -5.42101e-20 0.000515625 -0.0150979
-0.0181327 -1.05879e-22 0.00240415 0.0944398
0.0181321 0 0.00240536 -0.0150985
0.0181317 0 0.00242421 -0.0150985
-0.0181316 -9.52912e-22 0.00242445 0.0944396
0.0176138 3.01167e-21 0.0049468 -0.0151005
-0.0176138 -1.50584e-21 0.0049468 0.0944356
-0.0180947 1.69407e-21 0.00311468 0.0944302
0.0180947 -5.64689e-22 0.00311468 -0.0150987
-0.0180563 0 0.00382342 0.094434
0.0180563 -1.12938e-21 0.00382342 -0.0150991
0.0177083 -1.35525e-20 0.00534825 -0.0150995
-0.0177083 0 0.00534827 0.0944681
0.0177631 0 0.00528871 -0.0150995
-0.0177632 1.35525e-20 0.00528871 0.0944685
0.0179883 2.25875e-21 0.00454808 -0.0150993
-0.0179883 -2.25875e-21 0.00454808 0.0944492
0.0178024 -2.71051e-20 0.00540965 -0.0150996
-0.0178024 0 0.00540968 0.0944716
-0.0184402 -2.71051e-20 0.00274762 0.0944381
0.0184402 0 0.00274762 -0.015098
0.0180052 -1.35525e-21 0.00502463 -0.0150994
-0.0180053 -9.03502e-22 0.00502464 0.0944625
-0.0183918 0 0.00345433 0.0944165
0.0183918 2.71051e-20 0.00345433 -0.0150987
0.0179451 6.77626e-21 0.00550275 -0.0150992
-0.0179452 2.71051e-20 0.0055028 0.0944766
0.0183611 -2.71051e-20 0.0041536 -0.0150991
-0.0183611 -2.71051e-20 0.0041536 0.0944373
-0.0188422 -1.35525e-20 7.03791e-05 0.0944717
0.0188422 0 7.03242e-05 -0.0150975
-0.0188477 -1.35525e-20 1.08477e-18 0.0944716
0.0188478 0 1.12113e-18 -0.0150975
0.0188602 -1.12938e-21 0.00112833 -0.0150977
-0.0188602 -4.51751e-21 0.00112833 0.0944595
0.0180592 -2.03288e-20 0.00557718 -0.015099
-0.0180592 0 0.00557719 0.0944879
0.0181347 4.51751e-21 0.00538307 -0.0150991
-0.0181347 0 0.00538308 0.0944828
0.018942 0 6.18177e-19 -0.0150975
-0.018942 1.35525e-20 6.20531e-19 0.0944678
-0.0188166 -2.25875e-21 0.00228404 0.0944431
0.0188166 -1.12938e-21 0.00228404 -0.0150982
0.0183535 0 0.00480354 -0.0150989
-0.0183535 2.71051e-20 0.00480354 0.0944632
0.0187311 9.88205e-22 0.00307208 -0.0150983
-0.0187311 -2.82344e-22 0.00307209 0.0944304
0.0190249 -1.35525e-20 8.51688e-05 -0.0150975
-0.019025 1.35525e-20 8.52513e-05 0.0944654
0.0190314 0 5.64137e-19 -0.0150975
-0.0190315 0 5.6594e-19 0.0944654
0.0182204 1.35525e-20 0.00568235 -0.0150991
-0.0182205 -2.71051e-20 0.00568237 0.0945081
0.0187398 3.17637e-22 0.00374577 -0.0150984
-0.0187398 5.29396e-22 0.00374577 0.0944292
0.0186713 -3.38813e-21 0.00447941 -0.0150987
-0.0186713 -4.51751e-21 0.00447941 0.094452
0.0183607 2.71051e-20 0.00577387 -0.0150979
-0.0183608 -1.35525e-20 0.00577391 0.0945593
0.018471 5.42101e-21 0.00561102 -0.0150979
-0.018471 -1.35525e-20 0.00561103 0.0945566
0.0186129 2.71051e-21 0.00519726 -0.0150987
-0.0186129 0 0.00519727 0.0945034
-0.0191646 -2.71051e-20 0.00284903 0.0944322
0.0191646 0 0.00284904 -0.0150988
0.0184854 -1.35525e-20 0.00585516 -0.0150978
-0.0184854 0 0.00585517 0.0945711
-0.0191555 -2.71051e-20 0.00330159 0.0944233
0.0191555 -2.71051e-20 0.00330159 -0.015098
-0.0190101 -2.71051e-20 0.00412451 0.0944314
0.0190101 -2.71051e-20 0.00412451 -0.0150981
0.0185921 0 0.00576697 -0.0150978
-0.0185922 -1.35525e-20 0.00576697 0.0945687
0.0186006 1.35525e-20 0.0059303 -0.0150986
-0.0186006 0 0.00593032 0.0945527
0.0195234 0 0.000571323 -0.0150972
-0.0195235 -5.42101e-20 0.000571337 0.0944567
0.0194631 0 0.00176849 -0.0150971
-0.0194631 0 0.0017685 0.0944474
0.0194127 -7.05861e-22 0.00241319 -0.0150973
-0.0194127 -4.23516e-22 0.0024132 0.094438
0.0189749 -2.71051e-20 0.00481042 -0.0150988
-0.0189749 -2.71051e-20 0.00481043 0.0944748
-0.0193686 -1.35525e-20 0.00306998 0.0944252
0.0193686 1.35525e-20 0.00306998 -0.0150973
0.0188275 4.51751e-21 0.00563325 -0.0150984
-0.0188275 0 0.00563325 0.094552
0.0187165 1.35525e-20 0.00600598 -0.0150987
-0.0187166 6.77626e-21 0.006006 0.0945475
0.018758 -2.71051e-20 0.00590202 -0.0150985
-0.0187581 -1.35525e-20 0.00590202 0.0945516
-0.0193727 7.05861e-22 0.00376105 0.094425
0.0193727 -9.88205e-22 0.00376105 -0.0150972
0.0190128 2.71051e-20 0.00540895 -0.015099
-0.0190128 2.71051e-20 0.00540896 0.094531
0.0195979 0 0.00284199 -0.0150965
-0.0195979 0 0.00284199 0.094425
-0.0193152 2.25875e-21 0.00445137 0.0944526
0.0193152 4.51751e-21 0.00445137 -0.0150979
0.0189326 0 0.00587663 -0.0150985
-0.0189326 0 0.00587663 0.0945537
0.0188663 0 0.00610388 -0.0150988
-0.0188663 6.77626e-21 0.00610386 0.0945654
0.0195613 -2.71051e-20 0.00328798 -0.0150963
-0.0195614 2.71051e-20 0.00328799 0.0944123
0.0189889 0 0.00604039 -0.0150986
-0.018989 -1.35525e-20 0.00604037 0.0945791
-0.0192967 4.51751e-21 0.00511377 0.0945143
0.0192967 4.51751e-21 0.00511377 -0.0150983
0.0190006 0 0.00619147 -0.0150987
-0.0190007 0 0.00619146 0.0946127
-0.0200621 0 6.76646e-05 0.0944624
0.0200622 0 6.75697e-05 -0.0150967
-0.020064 0 4.17803e-20 0.0944625
0.0200641 0 4.14469e-20 -0.0150967
0.0196641 -2.71051e-20 0.0040803 -0.015097
-0.0196641 2.71051e-20 0.0040803 0.0944221
0.0190835 0 0.00626078 -0.0150975
-0.0190836 0 0.00626078 0.0946737
0.0191312 0 0.00616557 -0.0150976
-0.0191313 1.35525e-20 0.00616556 0.0946629
0.0201001 0 0.00115693 -0.0150966
-0.0201001 0 0.00115692 0.0944578
0.020134 0 -1.74266e-22 -0.0150966
-0.020134 0 -2.54554e-22 0.0944631
0.0192828 -3.76459e-22 0.00579514 -0.0150985
-0.0192828 -2.25875e-21 0.00579514 0.0945946
0.0196202 0 0.00477317 -0.0150976
-0.0196202 0 0.00477317 0.0944811
0.020199 0 6.46581e-05 -0.0150965
-0.0201991 0 6.4737e-05 0.0944634
0.0202019 0 -1.24442e-21 -0.0150965
-0.020202 0 -1.29903e-21 0.0944634
-0.0200841 -1.12938e-21 0.00236289 0.0944406
0.0200841 0 0.00236289 -0.0150963
0.0200029 -1.41172e-22 0.00305699 -0.015096
-0.0200052 0 0.00305579 0.0944256
0.0192378 0 0.00638365 -0.0150989
-0.0192378 6.77626e-21 0.00638366 0.094659
-0.0195959 0 0.00544033 0.0945672
0.0195959 2.71051e-20 0.00544033 -0.0150979
0.019304 6.77626e-21 0.00643682 -0.0150995
-0.019304 6.77626e-21 0.00643682 0.0946609
0.0200275 2.25875e-21 0.00361572 -0.0150964
-0.0200275 -1.12938e-21 0.00361572 0.094427
-0.0193634 6.77626e-21 0.00636554 0.0946557
0.0193634 0 0.00636554 -0.0150996
-0.0193735 1.35525e-20 0.00649741 0.0946823
0.0193735 -6.77626e-21 0.00649743 -0.015099
0.01996 -1.807e-21 0.00438812 -0.015097
-0.01996 -4.51751e-22 0.00438812 0.0944562
0.0194904 0 0.00622238 -0.0151001
-0.0194904 -3.01167e-21 0.00622238 0.0946404
-0.019924 -1.12938e-21 0.00509886 0.0945342
0.019924 3.38813e-21 0.00509886 -0.0150975
-0.0195415 0 0.00664815 0.0946944
0.0195416 0 0.00664816 -0.0150993
0.0202851 0 0.004065 -0.0150964
-0.0202851 0 0.004065 0.0944366
-0.0198605 0 0.00581201 0.0946342
0.0198605 0 0.005812 -0.0150981
-0.0196164 2.71051e-20 0.00659814 0.0946989
0.0196164 0 0.00659815 -0.0150991
0.0207232 -1.0842e-19 0.00058077 -0.0150961
-0.0207232 0 0.000580775 0.0944683
-0.0196178 -2.71051e-20 0.00671647 0.0947255
0.0196178 0 0.00671648 -0.0150988
0.020698 0 0.00176855 -0.0150959
-0.020698 5.42101e-20 0.00176856 0.0944587
0.020263 2.71051e-20 0.00474092 -0.0150969
-0.020263 5.42101e-20 0.00474092 0.0944948
-0.0196919 -1.35525e-20 0.00678278 0.0947491
0.0196919 -2.71051e-20 0.00678278 -0.0150985
-0.0197373 0 0.00670395 0.0947446
0.0197373 2.71051e-20 0.00670395 -0.0150986
0.0206519 -5.42101e-20 0.0030578 -0.015096
-0.0206519 0 0.00305779 0.0944315
-0.0199196 -1.6134e-22 0.00639127 0.0947144
0.0199196 2.42009e-22 0.00639127 -0.0150987
-0.0202264 -5.42101e-20 0.00542437 0.0945908
0.0202264 2.71051e-20 0.00542436 -0.0150977
0.020622 1.41172e-22 0.00374914 -0.0150962
-0.0206228 2.82344e-22 0.00375114 0.0944421
0.0198641 0 0.00693691 -0.0150994
-0.0198641 0 0.00693695 0.0947563
-0.0205958 0 0.00438945 0.0944779
0.0205958 0 0.00438945 -0.0150965
-0.0202261 0 0.00606703 0.0947083
0.0202261 0 0.00606702 -0.0150978
-0.019943 -6.77626e-21 0.00700755 0.0947653
0.019943 0 0.00700753 -0.0150998
-0.0200066 6.77626e-21 0.00693928 0.0947641
0.0200066 -6.77626e-21 0.00693924 -0.0151
0.0205707 2.25875e-21 0.00506212 -0.015097
-0.0205707 2.25875e-21 0.00506213 0.094554
-0.0200223 1.35525e-20 0.00707846 0.0947787
0.0200223 6.77626e-21 0.00707846 -0.0150993
-0.0201294 6.02335e-21 0.0068093 0.0947605
0.0201294 -7.52918e-21 0.00680928 -0.0151002
-0.0212882 -6.77626e-21 4.76376e-05 0.0944749
0.0212882 -6.77626e-21 4.75779e-05 -0.0150956
-0.0212888 -6.77626e-21 7.04351e-22 0.094475
0.0212889 -6.77626e-21 7.21822e-22 -0.0150956
-0.0209335 -2.71051e-20 0.00403737 0.0944508
0.0209335 -2.71051e-20 0.00403737 -0.0150961
-0.0205488 -2.25875e-21 0.00572803 0.094654
0.0205489 0 0.00572803 -0.0150975
0.0213388 0 -2.89833e-23 -0.0150955
-0.0213388 6.77626e-21 -2.82364e-23 0.0944757
0.0213183 1.12938e-21 0.00116254 -0.0150955
-0.0213183 -1.12938e-21 0.00116254 0.0944788
0.0213863 -6.77626e-21 4.6423e-05 -0.0150955
-0.0213864 -6.77626e-21 4.64792e-05 0.0944762
0.0213874 0 -2.69e-23 -0.0150955
-0.0213874 0 -2.61819e-23 0.0944762
0.0208978 -2.71051e-20 0.00471075 -0.0150966
-0.0208978 -5.42101e-20 0.00471075 0.0945285
0.0212954 1.69407e-21 0.00239197 -0.0150954
-0.0212955 1.12938e-21 0.00239197 0.0944703
-0.0201947 0 0.00723276 0.0947904
0.0201949 -1.35525e-20 0.00723272 -0.0150991
0.0204968 0 0.00642258 -0.015098
-0.0204968 -2.25875e-21 0.00642259 0.0947535
-0.0202705 0 0.0071837 0.0947939
0.0202706 -2.71051e-20 0.00718367 -0.015099
-0.0202683 -2.71051e-20 0.00729859 0.0948111
0.0202684 0 0.00729853 -0.0150987
-0.0208996 -2.71051e-20 0.00536219 0.0946027
0.0208996 2.71051e-20 0.00536218 -0.015097
-0.0203418 -2.71051e-20 0.00736427 0.0948227
0.0203419 0 0.00736419 -0.0150983
-0.0213396 -1.69407e-22 0.00363555 0.094466
0.0213396 5.64689e-22 0.00363554 -0.0150956
-0.0203851 -1.35525e-20 0.00728768 0.094821
0.0203852 0 0.00728762 -0.0150983
0.0212333 0 0.00436374 -0.015096
-0.0212333 -3.76459e-22 0.00436374 0.0944905
-0.0208556 -2.71051e-20 0.00604666 0.0947108
0.0208556 2.71051e-20 0.00604666 -0.0150976
0.0205628 7.26028e-22 0.0069869 -0.0150986
-0.0205628 4.03349e-22 0.00698694 0.094806
0.0205131 0 0.00751736 -0.0150993
-0.0205131 0 0.0075175 0.0948093
0.0212965 -1.12938e-21 0.00494792 -0.0150962
-0.0212965 -5.64689e-22 0.00494793 0.0945689
-0.0208609 2.71051e-20 0.00667565 0.0948105
0.0208609 -2.71051e-20 0.00667563 -0.0150977
-0.0205926 -6.77626e-21 0.00758861 0.0948097
0.0219386 5.42101e-20 0.000582606 -0.015095
-0.0219387 1.0842e-19 0.000582603 0.0944824
0.0205927 0 0.00758853 -0.0150999
-0.0211971 -2.25875e-21 0.00569346 0.0946614
0.0211971 -2.25875e-21 0.00569346 -0.0150967
-0.0206536 6.77626e-21 0.00752337 0.0948104
0.0206537 6.77626e-21 0.00752324 -0.0151
0.0219221 0 0.0017777 -0.0150948
-0.0219221 0 0.0017777 0.0945061
-0.0206735 1.35525e-20 0.00766101 0.0948123
0.0206737 6.77626e-21 0.00766099 -0.0150993