# pMean  POINT_DATA 16415
# x  y  z  pMean
0 0.0199996 6.27196e-08 -0.0161376
0 -0.0199996 6.27196e-08 0.0913845
6.77626e-21 0.0199996 0.000164428 -0.0161376
-6.77626e-21 -0.0199996 0.000164406 0.0913835
0 0.0199996 0.000494301 -0.0161376
0 -0.0199996 0.00049425 0.0913837
6.77626e-21 0.0199996 0.00066126 -0.0161376
0 -0.0199996 0.000661186 0.0913852
0 0.0199996 0.000837191 -0.0161376
-3.38813e-21 -0.0199996 0.000837103 0.0913807
-6.77626e-21 0.0199996 0.00118069 -0.0161376
-6.77626e-21 -0.0199996 0.00118063 0.0913811
0 0.0199996 0.00135639 -0.0161376
0 -0.0199996 0.0013563 0.0913866
-3.38813e-21 0.0199996 0.0015402 -0.0161376
0 -0.0199996 0.00154013 0.0913821
6.77626e-21 0.0200767 6.65771e-05 -0.0161376
-6.77626e-21 -0.0200767 6.65774e-05 0.0913798
0 -0.0200781 6.52655e-08 0.0913798
6.77626e-21 0.0200781 6.52653e-08 -0.0161376
6.77626e-21 -0.0200799 0.000590145 0.09138
-6.77626e-21 0.0200799 0.000590186 -0.0161376
6.77626e-21 -0.0200759 0.000728686 0.0913788
6.77626e-21 0.0200759 0.000728732 -0.0161376
-6.77626e-21 0.0199996 0.00190617 -0.0161376
0 -0.0199996 0.00190616 0.0913838
-6.77626e-21 0.0199996 0.002087 -0.0161376
6.77626e-21 -0.0199996 0.002087 0.0913885
-6.77626e-21 -0.0200757 0.00127182 0.0913795
-6.77626e-21 0.0200757 0.00127186 -0.0161376
0 -0.0200724 0.00141161 0.09138
0 0.0200724 0.00141166 -0.0161376
6.77626e-21 0.0201349 6.62416e-08 -0.0161377
-6.77626e-21 -0.0201349 6.62417e-08 0.0913768
0 -0.0201347 0.00065501 0.0913778
-2.03288e-20 0.0201347 0.000655012 -0.0161377
0 -0.0200697 0.0019779 0.0913827
-6.77626e-21 0.0200697 0.0019779 -0.0161376
6.77626e-21 -0.0201289 0.00132677 0.0913789
0 0.0201289 0.00132677 -0.0161376
1.35525e-20 -0.0200872 0.00211021 0.0913859
0 0.0200872 0.00211021 -0.0161376
0 0.0201043 0.00206081 -0.0161376
0 -0.0201043 0.00206081 0.0913843
0 0.0201291 0.00199353 -0.0161376
-6.77626e-21 -0.0201292 0.00199355 0.0913819
0 0.0201574 0.00212882 -0.0161376
-6.77626e-21 -0.0201575 0.00212883 0.091379
6.77626e-21 0.020211 0.00203549 -0.0161377
-6.77626e-21 -0.020211 0.0020355 0.0913761
2.03288e-20 -0.0203752 7.14254e-08 0.0913652
0 0.0203752 7.14225e-08 -0.0161377
1.12938e-21 0.0203552 0.000964466 -0.0161377
-6.77626e-22 -0.0203552 0.000964545 0.091371
-1.12938e-21 0.0203848 0.000318457 -0.0161377
-1.807e-21 -0.0203849 0.00031848 0.0913643
7.52918e-22 0.0203485 0.00158856 -0.0161377
-7.52918e-22 -0.0203485 0.00158862 0.0913718
0 0.0204541 7.18967e-08 -0.0161377
-1.69407e-21 -0.0204543 7.19036e-08 0.0913617
1.01644e-20 0.0203479 0.0020921 -0.0161377
-1.01644e-20 -0.0203479 0.00209209 0.091368
1.35525e-20 0.0203454 0.00217864 -0.0161377
-3.38813e-20 -0.0203455 0.00217865 0.0913679
0 0.0204014 0.00198907 -0.0161377
0 -0.0204014 0.00198909 0.0913646
2.71051e-20 -0.0204481 0.00220585 0.0913609
-2.71051e-20 0.0204481 0.00220585 -0.0161377
-6.77626e-21 0.0206171 7.35991e-08 -0.0161377
0 -0.0206171 7.36088e-08 0.0913547
-6.77626e-21 0.0206345 0.00124176 -0.0161378
4.51751e-21 -0.0206345 0.00124188 0.0913537
-6.77626e-21 -0.0206728 7.48735e-08 0.0913522
0 0.0206729 7.48661e-08 -0.0161377
1.35525e-20 -0.0206741 6.9881e-05 0.0913521
6.77626e-21 0.0206742 7.00029e-05 -0.0161377
-1.12938e-21 0.0206668 0.000657308 -0.0161378
-1.12938e-21 -0.0206668 0.000657428 0.0913505
2.03288e-21 -0.0206275 0.00169452 0.0913523
6.77626e-22 0.0206275 0.00169445 -0.0161378
0 -0.0205976 0.00224546 0.0913437
1.35525e-20 0.0205976 0.00224546 -0.0161378
6.77626e-21 -0.0208219 8.13377e-08 0.0913435
-6.77626e-21 0.0208221 8.134e-08 -0.0161378
0 -0.0208462 0.000330913 0.091343
0 0.0208462 0.000330886 -0.0161378
0 0.0208502 0.000953774 -0.0161378
1.35525e-20 -0.0208502 0.00095382 0.0913432
0 0.0208443 0.00153524 -0.0161378
-1.35525e-20 -0.0208443 0.00153527 0.0913429
5.64689e-22 -0.0208065 0.00198302 0.0913308
-8.47033e-22 0.0208065 0.00198301 -0.0161378
0 0.0209013 0.00232596 -0.0161378
1.35525e-20 -0.0209014 0.00232597 0.0913389
0 0.0210643 9.15077e-05 -0.0161379
-1.35525e-20 -0.0210643 9.14935e-05 0.09133
0 0.021067 7.81657e-08 -0.0161379
1.35525e-20 -0.021067 7.81689e-08 0.0913297
0 0.0209628 0.00234226 -0.0161378
-6.77626e-21 -0.0209629 0.00234226 0.0913404
0 -0.0210006 0.00235227 0.0913398
-6.77626e-21 0.0210007 0.00235228 -0.0161378
0 -0.0211368 7.77048e-08 0.0913267
0 0.0211368 7.77005e-08 -0.0161379
0 -0.021129 0.00122301 0.0913266
1.807e-20 0.021129 0.00122301 -0.0161379
-5.80823e-21 -0.0211316 0.00168768 0.0913294
5.80823e-21 0.0211316 0.00168768 -0.0161379
3.38813e-21 -0.0210927 0.00225836 0.0913369
0 0.0210929 0.00225827 -0.0161378
0 -0.0212074 0.000639288 0.091324
2.25875e-21 0.0212074 0.000639306 -0.0161379
0 -0.0212432 6.9494e-08 0.0913218
0 0.0212432 6.94876e-08 -0.0161379
6.77626e-21 -0.0212484 0.000106495 0.0913218
-6.77626e-21 0.0212484 0.000106533 -0.0161379
-3.38813e-21 -0.0211906 0.00240261 0.0913284
-3.38813e-21 0.0211908 0.00240268 -0.0161379
1.12938e-21 0.0213439 0.00202515 -0.0161379
-1.12938e-21 -0.0213439 0.00202511 0.0913276
6.77626e-21 -0.021371 0.00245038 0.0913215
0 0.021371 0.00245038 -0.0161379
-6.77626e-21 -0.0213837 0.00242604 0.09132
0 0.0213837 0.00242606 -0.0161379
9.03502e-21 -0.0214676 0.00151463 0.0913114
-2.25875e-21 0.0214676 0.00151468 -0.0161379
6.77626e-21 -0.0215176 0.000962595 0.0913085
2.25875e-21 0.0215177 0.000962668 -0.016138
1.35525e-20 -0.0215442 0.000394974 0.0913087
2.71051e-21 0.0215442 0.000395021 -0.016138
6.77626e-21 0.0214146 0.00239572 -0.0161379
0 -0.0214146 0.00239566 0.0913162
0 0.0214165 0.00246241 -0.0161379
0 -0.0214166 0.00246244 0.0913157
1.35525e-20 0.0216582 0.000128728 -0.016138
-1.35525e-20 -0.0216582 0.000128716 0.0913031
1.35525e-20 0.021662 1.14539e-08 -0.016138
1.35525e-20 -0.021662 1.14538e-08 0.0913027
0 -0.0217415 0.00061236 0.0912997
0 0.0217415 0.000612448 -0.016138
0 -0.021737 0.00121888 0.0912984
0 0.021737 0.00121897 -0.016138
-3.38813e-20 0.0216411 0.00252171 -0.0161381
2.03288e-20 -0.0216411 0.00252171 0.0912838
-1.35525e-20 0.02179 2.37922e-09 -0.016138
0 -0.02179 2.37986e-09 0.0912968
-2.71051e-20 -0.02171 0.00187069 0.0913008
0 0.02171 0.00187073 -0.016138
-1.12938e-21 0.0216778 0.00229011 -0.0161381
3.76459e-22 -0.0216778 0.00229006 0.0912839
1.35525e-20 -0.0219185 2.30167e-09 0.0912906
0 0.0219185 2.30112e-09 -0.0161381
1.35525e-20 -0.0219202 0.000137039 0.0912906
0 0.0219202 0.000137059 -0.0161381
1.35525e-20 -0.0218193 0.00256902 0.0912872
0 0.0218193 0.00256904 -0.0161381
-5.42101e-21 -0.0219845 0.000395978 0.0912879
0 0.0219845 0.000396036 -0.0161381
0 0.0219638 0.00229023 -0.0161381
-1.12938e-21 -0.0219638 0.00229019 0.0912787
0 -0.022074 0.000916584 0.0912831
6.77626e-21 0.022074 0.000916678 -0.0161381
0 0.0219561 0.00252866 -0.0161381
0 -0.0219561 0.00252862 0.0912809
2.25875e-21 -0.0220578 0.00154554 0.0912848
-2.25875e-21 0.0220578 0.00154561 -0.0161381
-6.77626e-21 0.0219646 0.00260748 -0.0161381
6.77626e-21 -0.0219646 0.00260749 0.0912811
-9.03502e-21 -0.0220661 0.00204937 0.0912749
-9.03502e-21 0.0220661 0.00204941 -0.0161381
0 0.0222375 0.000149296 -0.0161381
0 -0.0222375 0.000149275 0.0912752
0 0.0222467 3.22447e-09 -0.0161381
1.35525e-20 -0.0222467 3.22463e-09 0.0912748
0 -0.0221409 0.00250159 0.0912794
-5.42101e-21 0.0221409 0.00250164 -0.0161381
1.35525e-20 -0.0221239 0.0026495 0.0912791
-1.35525e-20 0.022124 0.00264953 -0.0161381
-7.7443e-21 -0.0223263 0.000544462 0.0912722
-7.7443e-21 0.0223263 0.000544533 -0.0161382
-2.71051e-20 -0.0223861 3.1175e-09 0.0912681
1.35525e-20 0.0223861 3.11743e-09 -0.0161382
-2.71051e-20 -0.0223888 0.00123042 0.0912665
-2.71051e-20 0.0223888 0.00123052 -0.0161382
0 -0.022362 0.00189325 0.0912688
-2.71051e-20 0.0223621 0.00189332 -0.0161382
0 -0.022297 0.00269531 0.0912756
0 0.0222971 0.00269532 -0.0161382
0 0.0223597 0.00232905 -0.0161381
-1.41172e-22 -0.0223597 0.00232902 0.0912695
0 -0.0225373 3.03017e-09 0.0912614
-1.35525e-20 0.0225373 3.03008e-09 -0.0161382
0 -0.0225385 0.000146314 0.0912614
-1.35525e-20 0.0225385 0.00014633 -0.0161382
-2.25875e-21 -0.0227012 0.000916189 0.0912521
-2.25875e-21 0.0227012 0.000916249 -0.0161382
0 -0.0226844 0.00155924 0.0912498
6.77626e-21 0.0226844 0.0015593 -0.0161382
-9.03502e-21 -0.0227492 0.000352729 0.0912517
9.03502e-21 0.0227492 0.000352757 -0.0161382
-1.52466e-20 0.0226133 0.00278009 -0.0161382
1.56701e-20 -0.0226135 0.00278015 0.0912546
1.69407e-21 -0.0226203 0.00278197 0.0912541
-1.99053e-20 0.0226205 0.00278201 -0.0161382
-1.12938e-20 -0.0227193 0.00214001 0.0912511
6.77626e-21 0.0227194 0.00214006 -0.0161382
0 -0.0226787 0.00257543 0.0912536
0 0.0226787 0.00257546 -0.0161382
2.71051e-20 -0.0228459 3.0686e-09 0.0912466
-1.35525e-20 0.0228459 3.06837e-09 -0.0161383
-2.71051e-20 -0.0230054 2.97292e-09 0.0912382
2.71051e-20 0.0230055 2.97266e-09 -0.0161383
0 -0.0230123 0.000602124 0.0912377
0 0.0230123 0.000602154 -0.0161383
0 -0.023008 0.00123188 0.091238
0 0.023008 0.00123192 -0.0161383
2.71051e-20 -0.0229678 0.00191423 0.0912405
2.71051e-20 0.0229679 0.00191427 -0.0161383
2.71051e-20 -0.0229065 0.00285905 0.0912416
0 0.0229066 0.00285905 -0.0161383
2.71051e-20 -0.0230244 0.00241843 0.0912358
0 0.0230245 0.00241845 -0.0161383
0 -0.0231706 2.61992e-09 0.0912297
0 0.0231707 2.61967e-09 -0.0161384
-1.58113e-20 -0.0232775 0.000961994 0.091226
-6.77626e-21 0.0232775 0.000961998 -0.0161383
-1.35525e-20 -0.0231293 0.00291865 0.091229
0 0.0231295 0.00291871 -0.0161384
0 -0.0233249 0.000300658 0.091222
-4.51751e-21 0.023325 0.000300662 -0.0161384
4.51751e-21 -0.02332 0.00155442 0.0912269
-2.25875e-21 0.0233201 0.00155442 -0.0161383
-4.51751e-21 -0.0233274 0.00215907 0.0912298
-2.25875e-21 0.0233275 0.00215911 -0.0161383
-2.25875e-22 -0.023274 0.00268504 0.0912221
6.77626e-22 0.023274 0.00268509 -0.0161384
0 -0.023471 1.49911e-09 0.0912147
-1.35525e-20 0.023471 1.49901e-09 -0.0161384
-6.77626e-21 0.0233567 0.00297983 -0.0161384
6.77626e-21 -0.0233572 0.00297997 0.0912224
0 -0.0236362 1.14284e-09 0.0912065
2.71051e-20 0.0236362 1.14275e-09 -0.0161384
0 -0.0236942 0.000643715 0.0912044
4.51751e-21 0.0236943 0.000643673 -0.0161384
0 -0.0235249 0.00302491 0.0912188
-1.35525e-20 0.0235249 0.0030249 -0.0161384
0 0.0236288 0.00246502 -0.0161384
0 -0.0236288 0.002465 0.0912089
-4.51751e-21 -0.0237458 0.00121881 0.0912014
9.03502e-21 0.0237458 0.00121876 -0.0161384
-1.54886e-20 0.0237119 0.001791 -0.0161384
1.16165e-20 -0.0237119 0.00179099 0.091202
-1.35525e-20 -0.0238006 1.02424e-09 0.0911979
-1.35525e-20 0.0238007 1.02415e-09 -0.0161385
-1.35525e-20 -0.0236226 0.00305129 0.0912167
0 0.0236229 0.00305137 -0.0161384
-1.89735e-20 -0.0238637 0.000205253 0.091195
-8.13152e-21 0.0238637 0.000205233 -0.0161385
4.51751e-21 0.0238647 0.0021658 -0.0161385
-9.03502e-21 -0.0238647 0.00216579 0.091196
0 -0.0239679 0.000898007 0.0911894
0 0.0239679 0.000897928 -0.0161384
2.11758e-22 -0.0238497 0.00276261 0.0912082
0 0.0238551 0.00276337 -0.0161384
2.71051e-20 -0.0239683 0.00153372 0.091191
0 0.0239683 0.00153368 -0.0161384
-5.92923e-21 -0.0238695 0.00276832 0.0912075
8.36445e-21 0.0238703 0.00276773 -0.0161384
1.37643e-21 0.0238743 0.0027737 -0.0161384
4.44692e-21 -0.0238747 0.00277615 0.0912073
-2.71051e-20 0.024114 6.40622e-10 -0.0161385
1.35525e-20 -0.024114 6.40669e-10 0.0911816
0 -0.0241188 0.00014417 0.0911814
0 0.0241188 0.000144162 -0.0161385
0 0.023916 0.00312978 -0.0161385
0 -0.0239162 0.00312984 0.0911983
-6.77626e-21 -0.0239639 0.00314272 0.0911946
-2.71051e-20 0.0239641 0.00314276 -0.0161385
0 -0.0242749 5.21783e-10 0.0911735
0 0.0242749 5.21731e-10 -0.0161386
6.77626e-21 -0.0242836 0.000581065 0.0911718
6.77626e-21 0.0242836 0.000580992 -0.0161385
6.77626e-21 -0.0242888 0.00120263 0.0911726
4.51751e-21 0.0242888 0.00120255 -0.0161385
-1.35525e-20 -0.0242868 0.00186242 0.0911756
2.25875e-21 0.0242868 0.00186238 -0.0161385
-4.23516e-22 -0.0241617 0.00319553 0.0911681
-4.23516e-22 0.0241636 0.00319606 -0.0161386
-1.60936e-20 0.0241859 0.00320201 -0.0161386
2.03288e-20 -0.0241859 0.00320202 0.0911652
-2.96462e-21 0.024188 0.00319341 -0.0161386
2.5411e-21 -0.0241882 0.00319265 0.091165
0 -0.0244313 0.000134568 0.0911644
-1.35525e-20 0.0244313 0.000134562 -0.0161386
-1.35525e-20 -0.0244331 4.67577e-10 0.0911643
-1.35525e-20 0.0244331 4.67521e-10 -0.0161386
6.77626e-21 0.0243347 0.00249909 -0.0161385
-4.51751e-21 -0.0243348 0.00249899 0.0911728
4.51751e-21 -0.0242968 0.00292754 0.0911678
-4.51751e-21 0.0242969 0.00292753 -0.0161386
-6.77626e-21 -0.0243689 0.00315158 0.091166
6.77626e-21 0.0243692 0.00315214 -0.0161386
-2.71051e-20 -0.0246008 0.000284734 0.0911552
-2.71051e-20 0.0246009 0.000284687 -0.0161386
0 -0.0243969 0.00325839 0.0911691
0 0.0243971 0.00325844 -0.0161386
0 -0.0246107 0.000878663 0.0911517
0 0.0246107 0.000878579 -0.0161386
0 0.0246166 0.00151534 -0.0161386
-2.71051e-20 -0.0246166 0.0015154 0.0911576
0 0.0244714 0.00314468 -0.0161386
1.35525e-20 -0.0244716 0.0031441 0.0911645
3.38813e-21 0.0245037 0.00290524 -0.0161386
3.38813e-21 -0.0245038 0.00290534 0.091165
6.77626e-21 0.0244779 0.00323338 -0.0161386
6.77626e-21 -0.0244781 0.00323321 0.0911656
6.77626e-21 0.0244842 0.00328166 -0.0161386
0 -0.0244845 0.00328173 0.0911652
-2.71051e-20 -0.0246092 0.00219461 0.0911637
-2.71051e-20 0.0246092 0.00219461 -0.0161386
1.35525e-20 -0.0247622 2.53333e-10 0.0911479
2.71051e-20 0.0247622 2.53306e-10 -0.0161386
1.35525e-20 -0.0247664 0.000132515 0.0911477
0 0.0247664 0.000132509 -0.0161386
6.77626e-21 0.0246221 0.00297551 -0.0161385
0 -0.0246221 0.00297544 0.0911638
0 -0.0249174 1.98984e-10 0.0911421
1.35525e-20 0.0249175 1.98951e-10 -0.0161386
-2.71051e-20 -0.0247046 0.00334037 0.0911535
-1.35525e-20 0.0247048 0.00334043 -0.0161386
0 -0.0249272 0.000565998 0.0911378
-2.25875e-21 0.0249272 0.00056594 -0.0161386
9.03502e-21 0.0249353 0.00118348 -0.0161386
9.03502e-21 -0.0249353 0.00118355 0.0911391
-1.35525e-20 -0.0247706 0.00325114 0.0911502
-1.35525e-20 0.0247708 0.0032513 -0.0161386
1.12938e-20 -0.0249331 0.00185459 0.091145
0 0.0249331 0.00185457 -0.0161386
-2.25875e-21 0.0249123 0.00254806 -0.0161386
-4.51751e-21 -0.0249123 0.00254799 0.0911407
0 -0.02507 0.000129703 0.0911339
1.35525e-20 0.02507 0.000129703 -0.0161386
2.71051e-20 -0.0250722 1.7145e-10 0.0911338
4.06576e-20 0.0250723 1.7142e-10 -0.0161386
-2.71051e-20 -0.024868 0.00338391 0.0911445
0 0.024868 0.00338392 -0.0161386
-4.51751e-22 -0.0249657 0.00300265 0.0911357
2.25875e-21 0.0249658 0.00300271 -0.0161386
0 -0.0252401 0.000277386 0.0911263
2.71051e-20 0.0252401 0.000277365 -0.0161386
0 0.0252519 0.000862099 -0.0161387
0 -0.0252519 0.00086215 0.0911179
2.71051e-20 0.025258 0.00150133 -0.0161386
0 -0.0252581 0.00150136 0.0911287
1.35525e-20 0.0250939 0.00344404 -0.0161387
-6.77626e-21 -0.025094 0.00344409 0.0911348
0 -0.0252521 0.00218276 0.0911293
0 0.0252521 0.00218278 -0.0161387
0 -0.0253959 6.8222e-11 0.0911203
-1.35525e-20 0.0253959 6.82125e-11 -0.0161387
2.71051e-20 -0.0254017 0.000130131 0.0911201
1.35525e-20 0.0254017 0.000130132 -0.0161387
-2.71051e-20 -0.0252837 0.00277308 0.0911138
-2.71051e-20 0.0252837 0.00277313 -0.0161387
4.51751e-21 -0.0252272 0.00330837 0.0911275
-9.03502e-21 0.0252273 0.0033085 -0.0161387
1.35525e-20 -0.0252594 0.00348814 0.0911259
1.35525e-20 0.0252598 0.00348825 -0.0161387
-2.71051e-20 -0.0255539 4.13586e-11 0.0911172
0 0.0255539 4.13515e-11 -0.0161387
0 -0.0255655 0.000552669 0.0911125
2.25875e-21 0.0255655 0.000552643 -0.0161387
2.25875e-21 0.0255758 0.00116696 -0.0161387
-9.03502e-21 -0.0255758 0.00116699 0.0911122
0 -0.0255762 0.00184005 0.0911109
4.51751e-21 0.0255762 0.00184006 -0.0161387
1.12938e-21 -0.0255826 0.00249894 0.0911058
-1.12938e-21 0.0255826 0.00249898 -0.0161387
0 -0.0257081 0.000131346 0.0911087
-1.35525e-20 0.0257081 0.000131355 -0.0161387
-1.35525e-20 -0.0257119 3.5178e-11 0.0911086
-1.35525e-20 0.0257119 3.51714e-11 -0.0161387
-2.71051e-20 -0.0254803 0.00354696 0.0911125
-2.71051e-20 0.0254805 0.00354701 -0.0161387
1.12938e-21 -0.0255731 0.00306885 0.0911071
-3.38813e-21 0.0255732 0.00306889 -0.0161387
0 -0.0258709 0.000270959 0.0911025
2.71051e-20 0.0258709 0.000270951 -0.0161387
2.71051e-20 0.0258866 0.000847023 -0.0161387
-2.71051e-20 -0.0258866 0.000847041 0.0911036
0 -0.0258956 0.00148572 0.0910983
0 0.0258956 0.00148572 -0.0161387
3.38813e-21 0.025711 0.00360842 -0.0161387
0 -0.0257111 0.00360845 0.0911055
2.71051e-20 -0.0258953 0.00216728 0.0910871
-2.71051e-20 0.0258953 0.0021673 -0.0161388
0 0.0260182 1.43804e-11 -0.0161388
0 -0.0260182 1.43794e-11 0.0910956
3.38813e-21 -0.0257706 0.00362429 0.0911019
-1.01644e-20 0.0257711 0.00362443 -0.0161387
1.35525e-20 0.0260277 0.000129341 -0.0161388
-1.35525e-20 -0.0260277 0.000129326 0.0910951
0 -0.0258189 0.00342152 0.0910974
-4.51751e-21 0.025819 0.00342167 -0.0161387
2.71051e-20 -0.0259036 0.00281595 0.0910935
-2.71051e-20 0.0259037 0.002816 -0.0161388
-1.35525e-20 -0.0261762 8.33893e-12 0.0910908
0 0.0261762 8.34033e-12 -0.0161388
6.77626e-21 -0.0261907 0.000536281 0.0910897
-4.51751e-21 0.0261907 0.000536273 -0.0161388
2.25875e-21 -0.0262092 0.00114375 0.0910881
-1.12938e-21 0.0262092 0.00114374 -0.0161388
0 -0.0260128 0.00368881 0.0910817
0 0.0260131 0.00368888 -0.0161388
0 -0.0262149 0.00181929 0.0910795
0 0.026215 0.00181931 -0.0161388
-1.35525e-20 -0.0263228 0.000121185 0.0910806
1.35525e-20 0.0263228 0.000121207 -0.0161389
-2.71051e-20 -0.0263263 7.17909e-12 0.0910805
-1.35525e-20 0.0263263 7.18003e-12 -0.0161389
-2.25875e-21 -0.0262139 0.00250557 0.0910782
-1.12938e-21 0.0262139 0.0025056 -0.0161388
0 -0.0261379 0.00372349 0.0910632
1.35525e-20 0.026138 0.00372353 -0.0161389
-1.35525e-20 -0.0261645 0.00360603 0.0910638
1.35525e-20 0.0261645 0.00360614 -0.0161389
-7.52918e-22 -0.0262301 0.00320871 0.0910711
-2.63521e-21 0.0262302 0.00320874 -0.0161389
-2.71051e-20 0.0264876 0.000258964 -0.0161389
0 -0.0264876 0.000258966 0.0910728
-5.42101e-20 0.0265116 0.000819292 -0.0161388
0 -0.0265116 0.000819294 0.09108
0 -0.0265313 0.00145489 0.0910702
2.71051e-20 0.0265313 0.00145489 -0.0161388
1.35525e-20 0.026307 0.00376735 -0.0161389
-6.77626e-21 -0.0263071 0.00376735 0.0910595
0 -0.0265288 0.0021494 0.0910629
-2.71051e-20 0.0265288 0.00214943 -0.0161389
0 0.0266623 2.30403e-12 -0.0161389
0 -0.0266624 2.30216e-12 0.0910577
0 0.0266707 0.000106434 -0.0161389
0 -0.0266707 0.000106397 0.091057
-2.71051e-20 -0.0265278 0.00283341 0.0910694
0 0.0265278 0.00283345 -0.0161389
0 -0.0264226 0.00379805 0.0910556
6.77626e-21 0.0264228 0.00379811 -0.0161389
-1.69407e-21 -0.0265365 0.00359663 0.0910534
4.51751e-21 0.0265366 0.00359666 -0.0161388
1.35525e-20 0.0267959 1.18763e-12 -0.0161389
1.35525e-20 -0.0267959 1.18628e-12 0.0910452
3.38813e-21 0.0268045 0.000501528 -0.0161389
-3.38813e-21 -0.0268045 0.000501531 0.0910576
-2.25875e-21 0.0268426 0.00108835 -0.0161389
-1.12938e-21 -0.0268426 0.00108835 0.0910535
-1.35525e-20 -0.0269065 8.39027e-05 0.0910302
-1.35525e-20 0.0269065 8.3938e-05 -0.0161389
0 -0.0269105 1.09903e-12 0.0910307
1.35525e-20 0.0269105 1.10016e-12 -0.0161389
1.12938e-21 -0.0268569 0.00177537 0.0910434
-2.82344e-21 0.0268569 0.00177538 -0.0161389
0 -0.0268455 0.00249655 0.0910488
-2.25875e-21 0.0268455 0.00249657 -0.0161389
0 -0.0268309 0.00322459 0.0910432
-7.67977e-21 0.0268309 0.00322463 -0.0161389
0 0.0267575 0.00386117 -0.0161389
-8.47033e-22 -0.0267577 0.00386154 0.0910454
0 0.0267685 0.00388946 -0.0161389
0 -0.0267686 0.00388947 0.0910449
-1.69407e-21 -0.0267817 0.00389295 0.0910443
0 0.0267818 0.00389298 -0.0161389
1.69407e-21 -0.0267895 0.00389519 0.0910444
0 0.0267897 0.00389526 -0.0161389
0 -0.0267977 0.00388305 0.0910443
0 0.026798 0.00388297 -0.0161389
-6.77626e-21 -0.0268077 0.00390073 0.0910428
-1.69407e-21 0.0268081 0.00390087 -0.0161389
-2.71051e-20 0.0270953 0.000231001 -0.0161389
0 -0.0270953 0.000231002 0.0910134
-2.71051e-20 0.0271307 0.000745292 -0.0161388
2.71051e-20 -0.0271307 0.000745291 0.0910632
0 0.0271875 0.00136731 -0.016139
2.71051e-20 -0.0271875 0.00136731 0.0910016
-5.42101e-20 0.0271699 0.00211433 -0.0161389
0 -0.0271699 0.00211432 0.0910368
-3.87215e-21 -0.0270374 0.00364693 0.0910391
-1.16165e-20 0.0270375 0.00364697 -0.0161389
0 -0.0271534 0.00283785 0.0910264
0 0.0271534 0.00283788 -0.016139
3.01167e-21 0.0273865 0.000433223 -0.0161389
3.01167e-21 -0.0273866 0.000433225 0.0910276
-1.35525e-20 -0.0272025 0.00404243 0.0910176
0 0.0272026 0.00404247 -0.016139
0 0.0275132 1.10792e-13 -0.0161389
0 -0.0275208 1.06274e-13 0.0910198
0 -0.0275278 1.055e-13 0.0910195
0 0.027528 1.05214e-13 -0.0161389
-2.63521e-21 -0.0275176 0.00087612 0.0910183
9.41148e-22 0.0275176 0.000876116 -0.016139
-4.23516e-22 -0.0275404 1.84884e-05 0.0910191
0 0.027541 1.89916e-05 -0.0161389
1.35525e-20 -0.0272668 0.00395785 0.091015
1.35525e-20 0.0272669 0.00395792 -0.016139
7.05861e-23 0.0275074 0.00171411 -0.016139
2.35287e-23 -0.0275075 0.00171411 0.0910153
1.12938e-21 -0.0274756 0.00248008 0.0910203
3.38813e-21 0.0274756 0.00248009 -0.016139
0 -0.0274313 0.00322718 0.091012
2.25875e-21 0.0274313 0.00322722 -0.016139
1.35525e-20 -0.0273528 0.00409794 0.0910128
0 0.0273528 0.00409795 -0.016139
-6.77626e-22 -0.0274774 0.00369777 0.0910053
-9.03502e-22 0.0274774 0.00369779 -0.016139
-2.71051e-20 0.0278217 0.00130228 -0.016139
2.71051e-20 -0.0278217 0.00130226 0.0910105
2.71051e-20 0.0277987 0.0020884 -0.016139
-2.71051e-20 -0.0277987 0.0020884 0.0910148
-1.50584e-21 0.0278795 0.000330568 -0.016139
-7.52918e-22 -0.0278795 0.000330574 0.0910068
-1.01644e-20 -0.0275674 0.00417883 0.0910045
-6.77626e-21 0.0275674 0.00417882 -0.016139
-2.71051e-20 -0.0277779 0.00283431 0.0910039
0 0.0277779 0.00283433 -0.016139
-6.77626e-21 -0.0276684 0.00421691 0.0909971
-2.03288e-20 0.0276685 0.00421694 -0.016139
0 -0.0277109 0.00403361 0.0909945
4.51751e-21 0.0277109 0.00403363 -0.016139
0 -0.0278037 0.00346795 0.0909851
0 0.0278037 0.00346796 -0.016139
-2.71051e-20 0.0280306 3.72656e-14 -0.016139
1.35525e-20 -0.0280306 3.72776e-14 0.0910043
0 0.0281597 0.000826399 -0.016139
2.71051e-21 -0.0281598 0.000826407 0.090996
1.12938e-22 0.0281239 0.00170646 -0.016139
6.77626e-22 -0.0281239 0.00170647 0.0910006
-2.71051e-20 0.0281926 2.34404e-14 -0.016139
-1.35525e-20 -0.0281927 2.34062e-14 0.0910051
-2.82344e-21 -0.0281037 0.00246055 0.0909914
0 0.0281037 0.00246055 -0.016139
1.35525e-20 -0.0278977 0.00430336 0.0909779
0 0.0278977 0.00430337 -0.0161391
5.64689e-22 -0.0280999 0.00316544 0.0909785
-5.64689e-22 0.0280999 0.00316545 -0.016139
0 -0.0280091 0.00434534 0.0909504
0 0.0280092 0.00434534 -0.0161393
0 -0.0280389 0.00423702 0.0909528
-1.35525e-20 0.028039 0.00423703 -0.0161393
6.58803e-22 -0.0281246 0.00384685 0.0909632
5.64689e-22 0.0281246 0.00384686 -0.0161391
1.35525e-20 -0.0283974 1.64462e-14 0.091003
6.77626e-21 0.0283974 1.64718e-14 -0.0161389
0 0.0284431 0.00129266 -0.0161391
0 -0.0284432 0.00129266 0.090996
0 0.0284192 0.00207419 -0.016139
2.71051e-20 -0.0284192 0.00207419 0.0909844
-2.11758e-22 0.028497 0.000322303 -0.0161388
0 -0.0284984 0.000322942 0.0910029
2.03288e-20 -0.0281711 0.00440642 0.0909523
6.77626e-21 0.0281711 0.00440643 -0.0161392
-2.03288e-20 0.0285521 6.73772e-15 -0.0161389
1.35525e-20 -0.0285522 6.71076e-15 0.0909938
2.71051e-20 0.0284166 0.00281029 -0.016139
0 -0.0284166 0.00281029 0.0909631
0 -0.0284105 0.00349472 0.0909626
2.71051e-20 0.0284105 0.00349472 -0.0161391
-6.77626e-21 -0.02829 0.00445127 0.090949
6.77626e-21 0.02829 0.00445127 -0.0161392
-1.69407e-21 -0.0284186 0.00424831 0.090948
-5.64689e-22 0.0284186 0.00424832 -0.0161391
-5.42101e-20 0.0287651 2.99683e-16 -0.0161391
0 -0.0287651 2.80993e-16 0.0909736
-3.38813e-22 0.0287466 0.00168419 -0.0161391
2.82344e-22 -0.0287466 0.00168419 0.0909599
0 0.0288078 0.000872628 -0.0161391
-9.03502e-22 -0.0288079 0.000872634 0.0909669
-1.22349e-21 0.0287473 0.00242277 -0.0161391
-1.03526e-21 -0.0287474 0.00242278 0.09094
2.25875e-21 0.0287216 0.00316759 -0.0161391
0 -0.0287216 0.00316759 0.0909368
0 0.028581 0.00456087 -0.0161392
0 -0.028581 0.00456092 0.0909387
-1.35525e-21 -0.0287115 0.00388137 0.0909345
3.61401e-21 0.0287115 0.00388136 -0.0161391
0 -0.0286396 0.00458297 0.0909376
0 0.0286396 0.00458296 -0.0161391
0 -0.0286466 0.00457509 0.0909373
-3.38813e-21 0.0286467 0.00457506 -0.0161391
0 -0.0290134 1.85244e-16 0.0909186
-6.77626e-21 0.0290134 1.97032e-16 -0.0161392
0 -0.0286559 0.00458913 0.0909364
0 0.028656 0.00458914 -0.0161392
6.77626e-21 -0.0286627 0.00455199 0.0909362
0 0.0286629 0.00455191 -0.0161392
-6.77626e-21 0.0290304 8.01652e-05 -0.0161392
0 -0.0290304 8.05642e-05 0.0909163
-2.25875e-21 0.029033 0.000330842 -0.0161392
-2.82344e-21 -0.0290331 0.000330825 0.0909223
3.38813e-21 0.0290394 1.68622e-16 -0.0161392
1.69407e-21 -0.0290395 1.57577e-16 0.0909151
0 -0.0286826 0.00457917 0.0909332
0 0.0286827 0.00457915 -0.0161392
-1.69407e-21 -0.0286987 0.00460523 0.0909299
-1.69407e-21 0.0286989 0.00460528 -0.0161392
-2.71051e-20 0.0290348 0.00281407 -0.0161391
-2.71051e-20 -0.0290349 0.00281407 0.0909062
-2.71051e-20 0.0291549 0.00144558 -0.0161391
-2.71051e-20 -0.029155 0.00144558 0.0909451
-2.71051e-20 0.0291572 0.00194765 -0.0161392
0 -0.0291573 0.00194765 0.0908857
1.93608e-21 -0.0289115 0.00431141 0.0909355
9.68038e-21 0.0289115 0.00431139 -0.0161392
2.71051e-20 0.0290289 0.00350524 -0.0161392
0 -0.0290289 0.00350525 0.0909139
0 0.0293191 1.50334e-16 -0.0161391
-1.35525e-20 -0.0293191 1.46104e-16 0.0908972
-1.27055e-21 0.029326 0.000839966 -0.0161391
-8.47033e-22 -0.0293263 0.000839955 0.0909076
5.92923e-21 0.029346 0.000821793 -0.0161391
-5.0822e-21 -0.029346 0.00082205 0.0909052
1.14349e-20 -0.0293459 0.000843849 0.0909055
-4.23516e-22 0.0293459 0.000843917 -0.0161391
-8.04681e-21 -0.0293597 0.0008398 0.0909041
8.04681e-21 0.0293599 0.000839809 -0.0161391
-1.35525e-20 -0.0290221 0.00472703 0.0908939
-2.71051e-20 0.0290221 0.00472702 -0.0161393
-1.35525e-20 0.0293681 0.00167842 -0.0161391
-1.35525e-20 -0.0293682 0.00167842 0.0909018
0 0.0293492 0.00243751 -0.0161392
-6.77626e-22 -0.0293492 0.00243751 0.0908958
0 -0.029113 0.00461952 0.0908946
0 0.029113 0.00461948 -0.0161393
-2.25875e-21 0.0293461 0.00316209 -0.0161392
0 -0.0293461 0.00316209 0.090903
3.38813e-21 0.0295421 1.72528e-17 -0.016139
-1.69407e-20 -0.0295424 1.48784e-17 0.090859
0 -0.0293068 0.00388267 0.0909012
6.77626e-21 0.0293068 0.00388264 -0.0161392
0 0.0295827 0.00139949 -0.0161391
0 -0.0295827 0.00139947 0.0908915
0 -0.0292241 0.0048031 0.0909101
-1.35525e-20 0.0292241 0.00480311 -0.0161392
4.51751e-21 -0.0296229 0.000312408 0.0908532
0 0.029623 0.000312331 -0.016139
5.42101e-20 0.0295756 0.00193309 -0.0161392
2.71051e-20 -0.0295757 0.0019331 0.0908862
-3.38813e-21 -0.0296592 -6.02736e-17 0.0908458
1.35525e-20 0.0296597 -5.83194e-17 -0.016139
-1.35525e-21 0.0293409 0.00435962 -0.0161392
9.03502e-22 -0.0293409 0.00435962 0.0908951
-2.71051e-20 0.0296739 0.0027863 -0.0161392
-2.71051e-20 -0.0296739 0.00278629 0.0908954
0 0.0294234 0.00487816 -0.0161392
-6.77626e-21 -0.0294234 0.00487816 0.0908991
0 0.029651 0.00350312 -0.0161392
0 -0.029651 0.00350313 0.0908962
-1.35525e-20 -0.0298815 -1.91512e-16 0.0908296
-1.35525e-20 0.0298817 -1.91316e-16 -0.0161391
-6.77626e-21 -0.0295073 0.00479844 0.0908933
0 0.0295074 0.00479832 -0.0161392
0 -0.0295245 0.00491622 0.0908938
1.35525e-20 0.0295246 0.00491628 -0.0161392
0 -0.0295733 0.00467629 0.09089
-4.51751e-21 0.0295734 0.00467625 -0.0161392
2.71051e-20 -0.0296719 0.00412285 0.0908742
0 0.0296719 0.00412284 -0.0161392
-7.52918e-22 0.0299617 0.000815882 -0.0161391
-6.02335e-21 -0.0299617 0.000815846 0.090843
0 0.0299758 0.000107323 -0.0161391
-1.35525e-20 -0.0299758 0.000107555 0.0908158
0 0.0299859 2.29405e-16 -0.0161391
2.71051e-20 -0.0299859 2.25785e-16 0.0908158
3.76459e-22 0.0300036 0.00165378 -0.0161391
1.69407e-21 -0.0300036 0.00165377 0.0908675
1.35525e-20 0.0300697 -5.94543e-16 -0.0161392
1.35525e-20 -0.0300699 -5.9649e-16 0.0908225
0 0.0299914 0.00233931 -0.0161392
-3.38813e-21 -0.0299915 0.0023393 0.0908675
0 -0.0297031 0.00498347 0.0908849
-1.35525e-20 0.0297031 0.00498349 -0.0161394
6.77626e-22 0.0299738 0.00312123 -0.0161392
-2.25875e-21 -0.0299738 0.00312125 0.0908691
1.35525e-20 0.0301809 0.000217208 -0.0161393
-1.35525e-20 -0.0301813 0.000217594 0.0907858
0 0.0299673 0.0038261 -0.0161393
3.38813e-21 -0.0299673 0.00382611 0.0908672
0 0.0302277 -3.27878e-16 -0.0161393
0 -0.0302282 -3.28758e-16 0.0907811
-6.77626e-21 -0.0298591 0.00504223 0.090844
-6.77626e-21 0.0298591 0.00504225 -0.0161396
1.35525e-20 -0.0299002 0.00489111 0.0908495
0 0.0299003 0.00489105 -0.0161396
4.14105e-21 0.029979 0.00451148 -0.0161393
-7.52918e-22 -0.029979 0.00451149 0.0908632
-2.71051e-20 0.0302909 0.00277112 -0.0161392
0 -0.0302909 0.00277112 0.0908455
-2.71051e-20 0.0304298 0.0004666 -0.0161394
0 -0.0304299 0.000466575 0.0907583
0 0.0304045 0.00137209 -0.0161391
0 -0.0304045 0.00137206 0.0908559
2.71051e-20 0.0304135 0.00193184 -0.0161392
0 -0.0304135 0.00193183 0.0908442
-2.71051e-20 0.0302818 0.00348659 -0.0161393
5.42101e-20 -0.0302818 0.0034866 0.090839
0 -0.0300763 0.00512405 0.0908687
1.18585e-20 0.0300764 0.0051241 -0.0161394
0 0.0300987 0.00513248 -0.0161394
1.69407e-21 -0.0300988 0.00513249 0.0908698
0 0.0301131 0.00510527 -0.0161394
0 -0.0301133 0.0051051 0.0908704
2.71051e-20 -0.0302754 0.00415053 0.0908589
0 0.0302755 0.0041505 -0.0161393
-1.69407e-21 0.0301557 0.00515394 -0.0161394
1.69407e-21 -0.0301561 0.0051541 0.0908689
-6.77626e-21 0.0306236 0.000140993 -0.0161393
0 -0.0306239 0.000140879 0.0907851
0 0.0306242 -1.79317e-16 -0.0161393
0 -0.0306245 -1.79554e-16 0.090782
-2.90411e-21 0.0306422 0.00151866 -0.0161391
-2.90411e-21 -0.0306423 0.0015187 0.0908524
3.38813e-21 0.0306824 0.000897121 -0.0161392
-2.25875e-21 -0.0306825 0.000897087 0.090831
-1.05879e-22 0.0306215 0.00240218 -0.0161392
0 -0.0306215 0.00240216 0.0908392
0 -0.0303177 0.00489739 0.0908727
-9.03502e-21 0.0303177 0.00489737 -0.0161394
0 0.0306274 0.00240032 -0.0161392
0 0.0307419 1.71765e-17 -0.0161392
0 -0.0307421 1.71545e-17 0.0908087
0 0.0306034 0.00312873 -0.0161393
0 -0.0306034 0.00312874 0.0908281
-3.38813e-21 0.0305868 0.00382868 -0.0161393
-1.12938e-21 -0.0305868 0.00382869 0.0908304