# U  POINT_DATA 16415
# x  y  z  U_x  U_y  U_z
0 0.0199996 6.27196e-08 0 0 0
0 -0.0199996 6.27196e-08 0 0 0
6.77626e-21 0.0199996 0.000164428 0 0 0
-6.77626e-21 -0.0199996 0.000164406 0 0 0
0 0.0199996 0.000494301 0 0 0
0 -0.0199996 0.00049425 0 0 0
6.77626e-21 0.0199996 0.00066126 0 0 0
0 -0.0199996 0.000661186 0 0 0
0 0.0199996 0.000837191 0 0 0
-3.38813e-21 -0.0199996 0.000837103 0 0 0
-6.77626e-21 0.0199996 0.00118069 0 0 0
-6.77626e-21 -0.0199996 0.00118063 0 0 0
0 0.0199996 0.00135639 0 0 0
0 -0.0199996 0.0013563 0 0 0
-3.38813e-21 0.0199996 0.0015402 0 0 0
0 -0.0199996 0.00154013 0 0 0
6.77626e-21 0.0200767 6.65771e-05 -7.31015e-07 1.80979e-06 5.33447e-08
-6.77626e-21 -0.0200767 6.65774e-05 0.000484215 -0.000900239 -1.23952e-05
0 -0.0200781 6.52655e-08 0 0 0
6.77626e-21 0.0200781 6.52653e-08 0 0 0
6.77626e-21 -0.0200799 0.000590145 0.000504065 -0.000937143 -1.29033e-05
-6.77626e-21 0.0200799 0.000590186 -7.60998e-07 1.88402e-06 5.55327e-08
6.77626e-21 -0.0200759 0.000728686 0.000958555 -0.00168403 -1.12282e-05
6.77626e-21 0.0200759 0.000728732 -1.25242e-05 2.02116e-05 4.73028e-07
-6.77626e-21 0.0199996 0.00190617 0 0 0
0 -0.0199996 0.00190616 0 0 0
-6.77626e-21 0.0199996 0.002087 0 0 0
6.77626e-21 -0.0199996 0.002087 0 0 0
-6.77626e-21 -0.0200757 0.00127182 0.000956586 -0.00168057 -1.12052e-05
-6.77626e-21 0.0200757 0.00127186 -1.24992e-05 2.01713e-05 4.72084e-07
0 -0.0200724 0.00141161 0.000877771 -0.00155412 -4.71897e-05
0 0.0200724 0.00141166 -1.25501e-05 2.06627e-05 -1.37871e-06
6.77626e-21 0.0201349 6.62416e-08 0 0 0
-6.77626e-21 -0.0201349 6.62417e-08 0 0 0
0 -0.0201347 0.00065501 0.00129946 -0.00215859 2.10447e-05
-2.03288e-20 0.0201347 0.000655012 -1.14248e-05 1.92654e-05 1.86337e-07
0 -0.0200697 0.0019779 0.000844852 -0.00149584 -4.542e-05
-6.77626e-21 0.0200697 0.0019779 -1.20785e-05 1.98863e-05 -1.3269e-06
6.77626e-21 -0.0201289 0.00132677 0.00175054 -0.00293655 -1.70114e-05
0 0.0201289 0.00132677 -2.3762e-05 4.0666e-05 3.5497e-08
1.35525e-20 -0.0200872 0.00211021 0 0 0
0 0.0200872 0.00211021 0 0 0
0 0.0201043 0.00206081 -9.77947e-06 1.55585e-05 -3.08624e-07
0 -0.0201043 0.00206081 0.000894834 -0.00147964 -3.77927e-05
0 0.0201291 0.00199353 -2.02327e-05 3.46057e-05 -5.67753e-07
-6.77626e-21 -0.0201292 0.00199355 0.00152366 -0.00254994 -9.10133e-05
0 0.0201574 0.00212882 0 0 0
-6.77626e-21 -0.0201575 0.00212883 0 0 0
6.77626e-21 0.020211 0.00203549 -1.59309e-05 3.05901e-05 1.45989e-06
-6.77626e-21 -0.020211 0.0020355 0.00161502 -0.00285341 -2.08827e-05
2.03288e-20 -0.0203752 7.14254e-08 0 0 0
0 0.0203752 7.14225e-08 0 0 0
1.12938e-21 0.0203552 0.000964466 -4.76328e-05 8.78852e-05 -2.74805e-06
-6.77626e-22 -0.0203552 0.000964545 0.00450644 -0.00784983 -5.69447e-05
-1.12938e-21 0.0203848 0.000318457 -6.484e-06 1.10391e-05 -6.47633e-07
-1.807e-21 -0.0203849 0.00031848 0.00224173 -0.00397485 -6.96797e-05
7.52918e-22 0.0203485 0.00158856 -4.93722e-05 9.11454e-05 2.7108e-06
-7.52918e-22 -0.0203485 0.00158862 0.00417248 -0.00736764 -6.55355e-05
0 0.0204541 7.18967e-08 0 0 0
-1.69407e-21 -0.0204543 7.19036e-08 0 0 0
1.01644e-20 0.0203479 0.0020921 -1.29195e-05 2.48077e-05 1.18392e-06
-1.01644e-20 -0.0203479 0.00209209 0.00131006 -0.00231461 -1.69394e-05
1.35525e-20 0.0203454 0.00217864 0 0 0
-3.38813e-20 -0.0203455 0.00217865 0 0 0
0 0.0204014 0.00198907 -3.02884e-05 5.81591e-05 2.77559e-06
0 -0.0204014 0.00198909 0.00307036 -0.00542469 -3.97006e-05
2.71051e-20 -0.0204481 0.00220585 0 0 0
-2.71051e-20 0.0204481 0.00220585 0 0 0
-6.77626e-21 0.0206171 7.35991e-08 0 0 0
0 -0.0206171 7.36088e-08 0 0 0
-6.77626e-21 0.0206345 0.00124176 -9.06556e-05 0.000158436 8.52414e-07
4.51751e-21 -0.0206345 0.00124188 0.00737111 -0.0127053 1.64648e-05
-6.77626e-21 -0.0206728 7.48735e-08 0 0 0
0 0.0206729 7.48661e-08 0 0 0
1.35525e-20 -0.0206741 6.9881e-05 0.00060208 -0.00101569 -2.62251e-05
6.77626e-21 0.0206742 7.00029e-05 -1.27443e-06 1.57027e-06 -4.95817e-08
-1.12938e-21 0.0206668 0.000657308 -4.84162e-05 8.61168e-05 -1.11639e-06
-1.12938e-21 -0.0206668 0.000657428 0.00578357 -0.00995689 2.17746e-05
2.03288e-21 -0.0206275 0.00169452 0.00637268 -0.0111229 -8.96836e-05
6.77626e-22 0.0206275 0.00169445 -8.11145e-05 0.00014421 2.34356e-06
0 -0.0205976 0.00224546 0 0 0
1.35525e-20 0.0205976 0.00224546 0 0 0
6.77626e-21 -0.0208219 8.13377e-08 0 0 0
-6.77626e-21 0.0208221 8.134e-08 0 0 0
0 -0.0208462 0.000330913 0.00386773 -0.00671427 -6.87931e-05
0 0.0208462 0.000330886 -4.55857e-06 6.55575e-06 2.94534e-08
0 0.0208502 0.000953774 -8.43785e-05 0.000145422 8.2671e-07
1.35525e-20 -0.0208502 0.00095382 0.00833807 -0.0145054 2.54346e-05
0 0.0208443 0.00153524 -0.000102555 0.000176166 5.08727e-06
-1.35525e-20 -0.0208443 0.00153527 0.00868316 -0.0151799 0.000202526
5.64689e-22 -0.0208065 0.00198302 0.00503091 -0.00894176 0.000178916
-8.47033e-22 0.0208065 0.00198301 -6.17125e-05 0.000106854 4.07053e-06
0 0.0209013 0.00232596 0 0 0
1.35525e-20 -0.0209014 0.00232597 0 0 0
0 0.0210643 9.15077e-05 -7.81347e-07 1.52773e-06 9.40389e-08
-1.35525e-20 -0.0210643 9.14935e-05 0.00139848 -0.0024732 -9.56096e-07
0 0.021067 7.81657e-08 0 0 0
1.35525e-20 -0.021067 7.81689e-08 0 0 0
0 0.0209628 0.00234226 0 0 0
-6.77626e-21 -0.0209629 0.00234226 0 0 0
0 -0.0210006 0.00235227 0 0 0
-6.77626e-21 0.0210007 0.00235228 0 0 0
0 -0.0211368 7.77048e-08 0 0 0
0 0.0211368 7.77005e-08 0 0 0
0 -0.021129 0.00122301 0.0107057 -0.0181493 5.966e-05
1.807e-20 0.021129 0.00122301 -0.000122936 0.000210889 1.23642e-06
-5.80823e-21 -0.0211316 0.00168768 0.0097041 -0.0164541 -0.000115464
5.80823e-21 0.0211316 0.00168768 -0.000119197 0.000204531 -1.78329e-06
3.38813e-21 -0.0210927 0.00225836 0.00234997 -0.00427122 -3.96694e-05
0 0.0210929 0.00225827 -2.7326e-05 5.00782e-05 -2.05506e-06
0 -0.0212074 0.000639288 0.00807434 -0.0135986 0.000123691
2.25875e-21 0.0212074 0.000639306 -6.22368e-05 0.000106221 1.7899e-06
0 -0.0212432 6.9494e-08 0 0 0
0 0.0212432 6.94876e-08 0 0 0
6.77626e-21 -0.0212484 0.000106495 0.0020134 -0.00338843 4.37394e-05
-6.77626e-21 0.0212484 0.000106533 -1.09919e-06 1.68733e-06 -1.47738e-07
-3.38813e-21 -0.0211906 0.00240261 0 0 0
-3.38813e-21 0.0211908 0.00240268 0 0 0
1.12938e-21 0.0213439 0.00202515 -9.49979e-05 0.000174342 -4.31957e-06
-1.12938e-21 -0.0213439 0.00202511 0.00795456 -0.0142703 -7.55842e-05
6.77626e-21 -0.021371 0.00245038 0 0 0
0 0.021371 0.00245038 0 0 0
-6.77626e-21 -0.0213837 0.00242604 0.000756445 -0.00128883 -1.68535e-05
0 0.0213837 0.00242606 -1.03847e-05 1.8127e-05 -2.04727e-08
9.03502e-21 -0.0214676 0.00151463 0.0127992 -0.0221779 4.37296e-05
-2.25875e-21 0.0214676 0.00151468 -0.000152291 0.000273725 -1.08064e-06
6.77626e-21 -0.0215176 0.000962595 0.0119977 -0.0205757 0.000116135
2.25875e-21 0.0215177 0.000962668 -0.000120089 0.000215469 -9.32813e-07
1.35525e-20 -0.0215442 0.000394974 0.00657094 -0.0108951 9.8327e-05
2.71051e-21 0.0215442 0.000395021 -2.23494e-05 3.81234e-05 -2.4701e-07
6.77626e-21 0.0214146 0.00239572 -1.58006e-05 2.96734e-05 2.39965e-07
0 -0.0214146 0.00239566 0.00118819 -0.00205959 7.72338e-06
0 0.0214165 0.00246241 0 0 0
0 -0.0214166 0.00246244 0 0 0
1.35525e-20 0.0216582 0.000128728 -1.32893e-06 2.04e-06 -1.78617e-07
-1.35525e-20 -0.0216582 0.000128716 0.00243484 -0.00409769 5.28949e-05
1.35525e-20 0.021662 1.14539e-08 0 0 0
1.35525e-20 -0.021662 1.14538e-08 0 0 0
0 -0.0217415 0.00061236 0.00974414 -0.0161546 0.000153864
0 0.0217415 0.000612448 -7.18961e-05 0.000126197 1.34867e-07
0 -0.021737 0.00121888 0.0139394 -0.0235588 8.01634e-05
0 0.021737 0.00121897 -0.000160482 0.000286093 -1.66016e-08
-3.38813e-20 0.0216411 0.00252171 0 0 0
2.03288e-20 -0.0216411 0.00252171 0 0 0
-1.35525e-20 0.02179 2.37922e-09 0 0 0
0 -0.02179 2.37986e-09 0 0 0
-2.71051e-20 -0.02171 0.00187069 0.0112247 -0.0191536 -0.000139022
0 0.02171 0.00187073 -0.00014164 0.000256913 -5.60754e-07
-1.12938e-21 0.0216778 0.00229011 -6.91436e-05 0.000133081 -2.45645e-06
3.76459e-22 -0.0216778 0.00229006 0.00527118 -0.00979824 -6.73929e-05
1.35525e-20 -0.0219185 2.30167e-09 0 0 0
0 0.0219185 2.30112e-09 0 0 0
1.35525e-20 -0.0219202 0.000137039 0.00302699 -0.00495458 2.13976e-05
0 0.0219202 0.000137059 -1.09419e-06 2.05039e-06 -1.43291e-08
1.35525e-20 -0.0218193 0.00256902 0 0 0
0 0.0218193 0.00256904 0 0 0
-5.42101e-21 -0.0219845 0.000395978 0.00730285 -0.0120187 8.53653e-05
0 0.0219845 0.000396036 -2.14031e-05 3.68482e-05 1.58839e-07
0 0.0219638 0.00229023 -9.06317e-05 0.000172379 7.41471e-07
-1.12938e-21 -0.0219638 0.00229019 0.00736347 -0.0129685 -3.6468e-05
0 -0.022074 0.000916584 0.0142472 -0.0242927 9.41865e-05
6.77626e-21 0.022074 0.000916678 -0.000132027 0.000240284 -6.97637e-07
0 0.0219561 0.00252866 -2.53981e-05 4.86124e-05 6.62082e-08
0 -0.0219561 0.00252862 0.00219373 -0.00380586 -4.31352e-05
2.25875e-21 -0.0220578 0.00154554 0.0160637 -0.0276963 0.000242464
-2.25875e-21 0.0220578 0.00154561 -0.000185261 0.000342095 5.28162e-06
-6.77626e-21 0.0219646 0.00260748 0 0 0
6.77626e-21 -0.0219646 0.00260749 0 0 0
-9.03502e-21 -0.0220661 0.00204937 0.0114853 -0.0198834 6.87836e-05
-9.03502e-21 0.0220661 0.00204941 -0.000143153 0.000270642 3.01952e-06
0 0.0222375 0.000149296 -1.19188e-06 2.23345e-06 -1.56084e-08
0 -0.0222375 0.000149275 0.00329724 -0.00539693 2.3308e-05
0 0.0222467 3.22447e-09 0 0 0
1.35525e-20 -0.0222467 3.22463e-09 0 0 0
0 -0.0221409 0.00250159 0.00435735 -0.00757066 -8.725e-05
-5.42101e-21 0.0221409 0.00250164 -4.98525e-05 9.41866e-05 3.631e-07
1.35525e-20 -0.0221239 0.0026495 0 0 0
-1.35525e-20 0.022124 0.00264953 0 0 0
-7.7443e-21 -0.0223263 0.000544462 0.00966424 -0.0162463 7.0095e-05
-7.7443e-21 0.0223263 0.000544533 -5.10368e-05 9.26029e-05 -5.25482e-07
-2.71051e-20 -0.0223861 3.1175e-09 0 0 0
1.35525e-20 0.0223861 3.11743e-09 0 0 0
-2.71051e-20 -0.0223888 0.00123042 0.0169935 -0.0290808 0.000159668
-2.71051e-20 0.0223888 0.00123052 -0.000184815 0.000339213 1.82229e-06
0 -0.022362 0.00189325 0.0144284 -0.0248478 0.000100288
-2.71051e-20 0.0223621 0.00189332 -0.000184637 0.00034368 4.5881e-06
0 -0.022297 0.00269531 0 0 0
0 0.0222971 0.00269532 0 0 0
0 0.0223597 0.00232905 -0.000117379 0.000220876 3.37301e-06
-1.41172e-22 -0.0223597 0.00232902 0.00926686 -0.0161107 9.66867e-06
0 -0.0225373 3.03017e-09 0 0 0
-1.35525e-20 0.0225373 3.03008e-09 0 0 0
0 -0.0225385 0.000146314 0.00357403 -0.00583238 2.33981e-05
-1.35525e-20 0.0225385 0.00014633 -1.45591e-06 2.39999e-06 8.0911e-08
-2.25875e-21 -0.0227012 0.000916189 0.0166186 -0.0280991 0.000120235
-2.25875e-21 0.0227012 0.000916249 -0.000156151 0.000283718 -1.18569e-06
0 -0.0226844 0.00155924 0.0188026 -0.0321526 0.000257711
6.77626e-21 0.0226844 0.0015593 -0.000227186 0.000421041 3.50536e-06
-9.03502e-21 -0.0227492 0.000352729 0.00743615 -0.0123322 5.176e-05
9.03502e-21 0.0227492 0.000352757 -2.25277e-05 4.06756e-05 -2.21638e-07
-1.52466e-20 0.0226133 0.00278009 0 0 0
1.56701e-20 -0.0226135 0.00278015 0 0 0
1.69407e-21 -0.0226203 0.00278197 0 0 0
-1.99053e-20 0.0226205 0.00278201 0 0 0
-1.12938e-20 -0.0227193 0.00214001 0.0141798 -0.0245554 9.17638e-05
6.77626e-21 0.0227194 0.00214006 -0.000187191 0.000352222 6.11843e-06
0 -0.0226787 0.00257543 0.0062934 -0.011183 0.000122923
0 0.0226787 0.00257546 -8.08072e-05 0.00015652 4.88736e-06
2.71051e-20 -0.0228459 3.0686e-09 0 0 0
-1.35525e-20 0.0228459 3.06837e-09 0 0 0
-2.71051e-20 -0.0230054 2.97292e-09 0 0 0
2.71051e-20 0.0230055 2.97266e-09 0 0 0
0 -0.0230123 0.000602124 0.0127938 -0.0214998 4.33527e-05
0 0.0230123 0.000602154 -8.89251e-05 0.000162692 -1.60897e-06
0 -0.023008 0.00123188 0.0195832 -0.0333166 9.68726e-05
0 0.023008 0.00123192 -0.000218217 0.000404989 7.71688e-07
2.71051e-20 -0.0229678 0.00191423 0.0172583 -0.0296462 3.27272e-05
2.71051e-20 0.0229679 0.00191427 -0.000231033 0.000435712 5.45224e-06
2.71051e-20 -0.0229065 0.00285905 0 0 0
0 0.0229066 0.00285905 0 0 0
2.71051e-20 -0.0230244 0.00241843 0.0111801 -0.019407 3.76072e-05
0 0.0230245 0.00241845 -0.000156977 0.000298096 4.75769e-06
0 -0.0231706 2.61992e-09 0 0 0
0 0.0231707 2.61967e-09 0 0 0
-1.58113e-20 -0.0232775 0.000961994 0.0191382 -0.0322313 3.36643e-05
-6.77626e-21 0.0232775 0.000961998 -0.000185718 0.000343271 -3.11445e-06
-1.35525e-20 -0.0231293 0.00291865 0 0 0
0 0.0231295 0.00291871 0 0 0
0 -0.0233249 0.000300658 0.00722581 -0.0120084 -5.04864e-06
-4.51751e-21 0.023325 0.000300662 -2.00011e-05 3.71499e-05 -2.74097e-07
4.51751e-21 -0.02332 0.00155442 0.0215881 -0.0366802 5.95383e-05
-2.25875e-21 0.0233201 0.00155442 -0.000268 0.000505226 3.38132e-06
-4.51751e-21 -0.0233274 0.00215907 0.0176078 -0.0301533 0.000118409
-2.25875e-21 0.0233275 0.00215911 -0.00023996 0.000454333 7.08821e-06
-2.25875e-22 -0.023274 0.00268504 0.00784769 -0.0132526 0.000228589
6.77626e-22 0.023274 0.00268509 -0.000110772 0.000192668 2.66899e-06
0 -0.023471 1.49911e-09 0 0 0
-1.35525e-20 0.023471 1.49901e-09 0 0 0
-6.77626e-21 0.0233567 0.00297983 0 0 0
6.77626e-21 -0.0233572 0.00297997 0 0 0
0 -0.0236362 1.14284e-09 0 0 0
2.71051e-20 0.0236362 1.14275e-09 0 0 0
0 -0.0236942 0.000643715 0.0150631 -0.0252681 -1.74495e-05
4.51751e-21 0.0236943 0.000643673 -0.000113338 0.000210641 -2.94095e-06
0 -0.0235249 0.00302491 0 0 0
-1.35525e-20 0.0235249 0.0030249 0 0 0
0 0.0236288 0.00246502 -0.000201048 0.00038302 7.39746e-06
0 -0.0236288 0.002465 0.0134695 -0.0231693 -4.14195e-05
-4.51751e-21 -0.0237458 0.00121881 0.0224509 -0.0379515 -4.25988e-05
9.03502e-21 0.0237458 0.00121876 -0.000255237 0.00048134 6.20189e-08
-1.54886e-20 0.0237119 0.001791 -0.000299213 0.000570145 7.286e-06
1.16165e-20 -0.0237119 0.00179099 0.0223536 -0.0380743 -5.17271e-05
-1.35525e-20 -0.0238006 1.02424e-09 0 0 0
-1.35525e-20 0.0238007 1.02415e-09 0 0 0
-1.35525e-20 -0.0236226 0.00305129 0 0 0
0 0.0236229 0.00305137 0 0 0
-1.89735e-20 -0.0238637 0.000205253 0.00545463 -0.00911058 -7.84947e-06
-8.13152e-21 0.0238637 0.000205233 -1.78318e-06 3.74258e-06 2.24044e-07
4.51751e-21 0.0238647 0.0021658 -0.00028865 0.000551191 1.13813e-05
-9.03502e-21 -0.0238647 0.00216579 0.019818 -0.0339947 -5.05554e-05
0 -0.0239679 0.000898007 0.0215635 -0.0362417 -5.61531e-05
0 0.0239679 0.000897928 -0.000207978 0.000388989 -6.18326e-06
2.11758e-22 -0.0238497 0.00276261 0.00987311 -0.0170718 9.7457e-05
0 0.0238551 0.00276337 -0.0001512 0.00028265 4.80456e-06
2.71051e-20 -0.0239683 0.00153372 0.0248865 -0.0421776 -9.97089e-05
0 0.0239683 0.00153368 -0.000324664 0.000618406 5.62921e-06
-5.92923e-21 -0.0238695 0.00276832 0.00993586 -0.0171952 9.03695e-05
8.36445e-21 0.0238703 0.00276773 -0.00015226 0.000285174 4.86921e-06
1.37643e-21 0.0238743 0.0027737 -0.000149074 0.000279158 4.76401e-06
4.44692e-21 -0.0238747 0.00277615 0.0096675 -0.0167301 8.87432e-05
-2.71051e-20 0.024114 6.40622e-10 0 0 0
1.35525e-20 -0.024114 6.40669e-10 0 0 0
0 -0.0241188 0.00014417 0.00399594 -0.00667462 -6.41563e-06
0 0.0241188 0.000144162 -1.26818e-06 2.74664e-06 1.76988e-07
0 0.023916 0.00312978 0 0 0
0 -0.0239162 0.00312984 0 0 0
-6.77626e-21 -0.0239639 0.00314272 0 0 0
-2.71051e-20 0.0239641 0.00314276 0 0 0
0 -0.0242749 5.21783e-10 0 0 0
0 0.0242749 5.21731e-10 0 0 0
6.77626e-21 -0.0242836 0.000581065 0.0150077 -0.0252409 -6.34186e-05
6.77626e-21 0.0242836 0.000580992 -0.000106786 0.000201564 -2.29957e-06
6.77626e-21 -0.0242888 0.00120263 0.0240648 -0.0406471 -0.000173558
4.51751e-21 0.0242888 0.00120255 -0.000278526 0.000528583 4.80521e-07
-1.35525e-20 -0.0242868 0.00186242 0.0238529 -0.0406205 -0.00024602
2.25875e-21 0.0242868 0.00186238 -0.000340128 0.00065031 9.86434e-06
-4.23516e-22 -0.0241617 0.00319553 0 0 0
-4.23516e-22 0.0241636 0.00319606 0 0 0
-1.60936e-20 0.0241859 0.00320201 0 0 0
2.03288e-20 -0.0241859 0.00320202 0 0 0
-2.96462e-21 0.024188 0.00319341 -4.16994e-06 8.61413e-06 4.13178e-08
2.5411e-21 -0.0241882 0.00319265 0.000263513 -0.00048387 1.86067e-06
0 -0.0244313 0.000134568 0.00380447 -0.0065202 -7.59742e-06
-1.35525e-20 0.0244313 0.000134562 -1.16439e-06 2.73925e-06 -2.62271e-08
-1.35525e-20 -0.0244331 4.67577e-10 0 0 0
-1.35525e-20 0.0244331 4.67521e-10 0 0 0
6.77626e-21 0.0243347 0.00249909 -0.000260176 0.000503971 9.79713e-06
-4.51751e-21 -0.0243348 0.00249899 0.0161981 -0.0278569 -0.000241329
4.51751e-21 -0.0242968 0.00292754 0.00782893 -0.0141346 -1.01179e-05
-4.51751e-21 0.0242969 0.00292753 -0.000129837 0.000262347 2.03942e-06
-6.77626e-21 -0.0243689 0.00315158 0.00262245 -0.00481541 1.85171e-05
6.77626e-21 0.0243692 0.00315214 -4.49809e-05 9.29202e-05 4.45693e-07
-2.71051e-20 -0.0246008 0.000284734 0.00788348 -0.0134729 -1.51271e-05
-2.71051e-20 0.0246009 0.000284687 -2.49917e-06 5.56575e-06 -4.09057e-08
0 -0.0243969 0.00325839 0 0 0
0 0.0243971 0.00325844 0 0 0
0 -0.0246107 0.000878663 0.0232156 -0.0389282 -0.000163909
0 0.0246107 0.000878579 -0.000220535 0.000419591 -3.3633e-06
0 0.0246166 0.00151534 -0.000364331 0.000695037 5.94821e-06
-2.71051e-20 -0.0246166 0.0015154 0.0268141 -0.0455987 -0.000374832
0 0.0244714 0.00314468 -6.06878e-05 0.000122573 1.65659e-06
1.35525e-20 -0.0244716 0.0031441 0.0034815 -0.00622194 -5.33122e-05
3.38813e-21 0.0245037 0.00290524 -0.000160512 0.000319163 4.34357e-06
3.38813e-21 -0.0245038 0.00290534 0.00959998 -0.0170336 -0.000152002
6.77626e-21 0.0244779 0.00323338 -2.17788e-05 4.57007e-05 5.45052e-07
6.77626e-21 -0.0244781 0.00323321 0.00130539 -0.00240595 -9.35118e-06
6.77626e-21 0.0244842 0.00328166 0 0 0
0 -0.0244845 0.00328173 0 0 0
-2.71051e-20 -0.0246092 0.00219461 0.0233572 -0.039757 -0.000439945
-2.71051e-20 0.0246092 0.00219461 -0.000369301 0.000711455 1.52066e-05
1.35525e-20 -0.0247622 2.53333e-10 0 0 0
2.71051e-20 0.0247622 2.53306e-10 0 0 0
1.35525e-20 -0.0247664 0.000132515 0.00374644 -0.00642076 -7.48155e-06
0 0.0247664 0.000132509 -1.14663e-06 2.69746e-06 -2.58271e-08
6.77626e-21 0.0246221 0.00297551 -0.000152871 0.0003044 4.38729e-06
0 -0.0246221 0.00297544 0.00893079 -0.0159138 -0.000202628
0 -0.0249174 1.98984e-10 0 0 0
1.35525e-20 0.0249175 1.98951e-10 0 0 0
-2.71051e-20 -0.0247046 0.00334037 0 0 0
-1.35525e-20 0.0247048 0.00334043 0 0 0
0 -0.0249272 0.000565998 0.0157573 -0.0265113 -8.4992e-05
-2.25875e-21 0.0249272 0.00056594 -0.000107052 0.00021513 -1.11231e-06
9.03502e-21 0.0249353 0.00118348 -0.000298869 0.000582501 1.6327e-06
9.03502e-21 -0.0249353 0.00118355 0.0257277 -0.0435105 -0.000407837
-1.35525e-20 -0.0247706 0.00325114 0.0029787 -0.00548999 -2.13379e-05
-1.35525e-20 0.0247708 0.0032513 -4.98845e-05 0.000104678 1.24845e-06
1.12938e-20 -0.0249331 0.00185459 0.0259765 -0.0441726 -0.000610633
0 0.0249331 0.00185457 -0.000391048 0.000754638 1.15435e-05
-2.25875e-21 0.0249123 0.00254806 -0.000311788 0.000610568 1.35299e-05
-4.51751e-21 -0.0249123 0.00254799 0.0180411 -0.0308552 -0.000546373
0 -0.02507 0.000129703 0.00386115 -0.0063788 0.000116663
1.35525e-20 0.02507 0.000129703 -9.47113e-07 2.87686e-06 -5.1331e-08
2.71051e-20 -0.0250722 1.7145e-10 0 0 0
4.06576e-20 0.0250723 1.7142e-10 0 0 0
-2.71051e-20 -0.024868 0.00338391 0 0 0
0 0.024868 0.00338392 0 0 0
-4.51751e-22 -0.0249657 0.00300265 0.0101655 -0.0176808 -0.000326812
2.25875e-21 0.0249658 0.00300271 -0.000181961 0.000363445 6.858e-06
0 -0.0252401 0.000277386 0.0081019 -0.0134363 0.0001883
2.71051e-20 0.0252401 0.000277365 -2.22815e-06 5.88055e-06 -8.87705e-08
0 0.0252519 0.000862099 -0.000212367 0.000448723 -8.71385e-07
0 -0.0252519 0.00086215 0.0245912 -0.0414621 -0.00034336
2.71051e-20 0.025258 0.00150133 -0.000402988 0.000776748 4.95321e-06
0 -0.0252581 0.00150136 0.0285215 -0.0484296 -0.000752981
1.35525e-20 0.0250939 0.00344404 0 0 0
-6.77626e-21 -0.025094 0.00344409 0 0 0
0 -0.0252521 0.00218276 0.0254791 -0.0433454 -0.000876947
0 0.0252521 0.00218278 -0.000431583 0.000843184 1.99193e-05
0 -0.0253959 6.8222e-11 0 0 0
-1.35525e-20 0.0253959 6.82125e-11 0 0 0
2.71051e-20 -0.0254017 0.000130131 0.0038739 -0.00639986 0.000117048
1.35525e-20 0.0254017 0.000130132 -9.50252e-07 2.88639e-06 -5.15012e-08
-2.71051e-20 -0.0252837 0.00277308 0.0166225 -0.0282247 -0.000641996
-2.71051e-20 0.0252837 0.00277313 -0.000310664 0.00061379 1.67187e-05
4.51751e-21 -0.0252272 0.00330837 0.00467391 -0.00791326 -0.000221603
-9.03502e-21 0.0252273 0.0033085 -8.48176e-05 0.000169057 3.62692e-06
1.35525e-20 -0.0252594 0.00348814 0 0 0
1.35525e-20 0.0252598 0.00348825 0 0 0
-2.71051e-20 -0.0255539 4.13586e-11 0 0 0
0 0.0255539 4.13515e-11 0 0 0
0 -0.0255655 0.000552669 0.0164853 -0.0274665 -0.000112229
2.25875e-21 0.0255655 0.000552643 -0.000104826 0.000225087 -5.31695e-07
2.25875e-21 0.0255758 0.00116696 -0.000314678 0.000633833 3.28119e-06
-9.03502e-21 -0.0255758 0.00116699 0.0271282 -0.0458683 -0.00066989
0 -0.0255762 0.00184005 0.027897 -0.0472716 -0.00105474
4.51751e-21 0.0255762 0.00184006 -0.000440884 0.000863126 1.5228e-05
1.12938e-21 -0.0255826 0.00249894 0.0220141 -0.0370883 -0.00105861
-1.12938e-21 0.0255826 0.00249898 -0.00040173 0.000791776 2.21845e-05
0 -0.0257081 0.000131346 0.00443415 -0.00681906 0.000128891
-1.35525e-20 0.0257081 0.000131355 -1.1081e-06 3.22197e-06 -1.98372e-07
-1.35525e-20 -0.0257119 3.5178e-11 0 0 0
-1.35525e-20 0.0257119 3.51714e-11 0 0 0
-2.71051e-20 -0.0254803 0.00354696 0 0 0
-2.71051e-20 0.0254805 0.00354701 0 0 0
1.12938e-21 -0.0255731 0.00306885 0.0124014 -0.0206947 -0.000646214
-3.38813e-21 0.0255732 0.00306889 -0.000237405 0.000470803 1.38075e-05
0 -0.0258709 0.000270959 0.00890146 -0.0138412 0.000205134
2.71051e-20 0.0258709 0.000270951 -2.39283e-06 6.34551e-06 -2.84235e-07
2.71051e-20 0.0258866 0.000847023 -0.000216128 0.000467053 -5.75647e-07
-2.71051e-20 -0.0258866 0.000847041 0.0254311 -0.0429481 -0.000512342
0 -0.0258956 0.00148572 0.0302079 -0.0510169 -0.00107917
0 0.0258956 0.00148572 -0.000433945 0.000855633 1.00522e-05
3.38813e-21 0.025711 0.00360842 0 0 0
0 -0.0257111 0.00360845 0 0 0
2.71051e-20 -0.0258953 0.00216728 0.0274969 -0.0464726 -0.00151668
-2.71051e-20 0.0258953 0.0021673 -0.00049759 0.000981408 2.58332e-05
0 0.0260182 1.43804e-11 0 0 0
0 -0.0260182 1.43794e-11 0 0 0
3.38813e-21 -0.0257706 0.00362429 0 0 0
-1.01644e-20 0.0257711 0.00362443 0 0 0
1.35525e-20 0.0260277 0.000129341 -1.0911e-06 3.17256e-06 -1.9533e-07
-1.35525e-20 -0.0260277 0.000129326 0.00436594 -0.00671417 0.000126909
0 -0.0258189 0.00342152 0.00604801 -0.00985245 -0.000306864
-4.51751e-21 0.025819 0.00342167 -0.000121413 0.000240456 5.85253e-06
2.71051e-20 -0.0259036 0.00281595 0.0193837 -0.031845 -0.00128094
-2.71051e-20 0.0259037 0.002816 -0.000385286 0.000763655 2.70394e-05
-1.35525e-20 -0.0261762 8.33893e-12 0 0 0
0 0.0261762 8.34033e-12 0 0 0
6.77626e-21 -0.0261907 0.000536281 0.016803 -0.0281384 -0.000208211
-4.51751e-21 0.0261907 0.000536273 -0.000105183 0.000224379 -1.64265e-06
2.25875e-21 -0.0262092 0.00114375 0.0281109 -0.0476543 -0.000910803
-1.12938e-21 0.0262092 0.00114374 -0.000329088 0.000669312 4.94041e-06
0 -0.0260128 0.00368881 0 0 0
0 0.0260131 0.00368888 0 0 0
0 -0.0262149 0.00181929 0.029632 -0.0502524 -0.00157089
0 0.026215 0.00181931 -0.000483339 0.000966799 2.12799e-05
-1.35525e-20 -0.0263228 0.000121185 0.00412473 -0.00704668 6.14408e-05
1.35525e-20 0.0263228 0.000121207 -1.34121e-06 2.61271e-06 1.61846e-07
-2.71051e-20 -0.0263263 7.17909e-12 0 0 0
-1.35525e-20 0.0263263 7.18003e-12 0 0 0
-2.25875e-21 -0.0262139 0.00250557 0.0244093 -0.0407161 -0.00177786
-1.12938e-21 0.0262139 0.0025056 -0.000468471 0.000941604 2.98795e-05
0 -0.0261379 0.00372349 0 0 0
1.35525e-20 0.026138 0.00372353 0 0 0
-1.35525e-20 -0.0261645 0.00360603 0.00340335 -0.00589266 -0.000259638
1.35525e-20 0.0261645 0.00360614 -7.48272e-05 0.000168071 3.86573e-06
-7.52918e-22 -0.0262301 0.00320871 0.0130647 -0.021347 -0.00101318
-2.63521e-21 0.0262302 0.00320874 -0.000267668 0.000547727 1.94757e-05
-2.71051e-20 0.0264876 0.000258964 -2.70846e-06 5.66884e-06 3.15003e-07
0 -0.0264876 0.000258966 0.00869046 -0.0146801 9.94667e-05
-5.42101e-20 0.0265116 0.000819292 -0.000217046 0.00045205 -5.71977e-06
0 -0.0265116 0.000819294 0.0255211 -0.0433231 -0.000654384
0 -0.0265313 0.00145489 0.0315334 -0.0537231 -0.00141435
2.71051e-20 0.0265313 0.00145489 -0.000457651 0.000917904 1.70566e-05
1.35525e-20 0.026307 0.00376735 0 0 0
-6.77626e-21 -0.0263071 0.00376735 0 0 0
0 -0.0265288 0.0021494 0.0293257 -0.0498566 -0.00227269
-2.71051e-20 0.0265288 0.00214943 -0.000545051 0.00111289 3.22629e-05
0 0.0266623 2.30403e-12 0 0 0
0 -0.0266624 2.30216e-12 0 0 0
0 0.0266707 0.000106434 -1.17774e-06 2.29426e-06 1.4212e-07
0 -0.0266707 0.000106397 0.0036214 -0.0061868 5.39434e-05
-2.71051e-20 -0.0265278 0.00283341 0.0221426 -0.0359448 -0.00213041
0 0.0265278 0.00283345 -0.000460144 0.000937815 3.50983e-05
0 -0.0264226 0.00379805 0 0 0
6.77626e-21 0.0264228 0.00379811 0 0 0
-1.69407e-21 -0.0265365 0.00359663 0.00671236 -0.01094 -0.00065638
4.51751e-21 0.0265366 0.00359666 -0.000133589 0.000289255 1.2354e-05
1.35525e-20 0.0267959 1.18763e-12 0 0 0
1.35525e-20 -0.0267959 1.18628e-12 0 0 0
3.38813e-21 0.0268045 0.000501528 -0.000104318 0.000199339 2.23477e-06
-3.38813e-21 -0.0268045 0.000501531 0.0160079 -0.0275325 -0.00064294
-2.25875e-21 0.0268426 0.00108835 -0.000334856 0.000660474 1.32727e-05
-1.12938e-21 -0.0268426 0.00108835 0.0280747 -0.0483591 -0.00117252
-1.35525e-20 -0.0269065 8.39027e-05 0.00261747 -0.0045281 -0.000452105
-1.35525e-20 0.0269065 8.3938e-05 -6.25027e-07 8.13206e-07 7.3329e-07
0 -0.0269105 1.09903e-12 0 0 0
1.35525e-20 0.0269105 1.10016e-12 0 0 0
1.12938e-21 -0.0268569 0.00177537 0.030926 -0.0529981 -0.00211374
-2.82344e-21 0.0268569 0.00177538 -0.000514825 0.00104569 2.99847e-05
0 -0.0268455 0.00249655 0.0266724 -0.0443991 -0.00267046
-2.25875e-21 0.0268455 0.00249657 -0.000531559 0.00109191 3.81255e-05
0 -0.0268309 0.00322459 0.0159359 -0.0252609 -0.00189502
-7.67977e-21 0.0268309 0.00322463 -0.000344549 0.000710629 3.06866e-05
0 0.0267575 0.00386117 -1.42321e-05 3.0852e-05 1.3397e-06
-8.47033e-22 -0.0267577 0.00386154 0.000733947 -0.00120545 -6.5748e-05
0 0.0267685 0.00388946 0 0 0
0 -0.0267686 0.00388947 0 0 0
-1.69407e-21 -0.0267817 0.00389295 0 0 0
0 0.0267818 0.00389298 0 0 0
1.69407e-21 -0.0267895 0.00389519 0 0 0
0 0.0267897 0.00389526 0 0 0
0 -0.0267977 0.00388305 0.000464658 -0.000700635 -6.381e-05
0 0.026798 0.00388297 -9.99365e-06 1.95797e-05 8.77571e-07
-6.77626e-21 -0.0268077 0.00390073 0 0 0
-1.69407e-21 0.0268081 0.00390087 0 0 0
-2.71051e-20 0.0270953 0.000231001 -2.27073e-06 3.2756e-06 1.41724e-06
0 -0.0270953 0.000231002 0.00716069 -0.0124354 -0.000935512
-2.71051e-20 0.0271307 0.000745292 -0.000213976 0.000371175 1.25754e-05
2.71051e-20 -0.0271307 0.000745291 0.02405 -0.0419848 -0.00111355
0 0.0271875 0.00136731 -0.00046187 0.000921203 3.08914e-05
2.71051e-20 -0.0271875 0.00136731 0.0314755 -0.0549095 -0.00155571
-5.42101e-20 0.0271699 0.00211433 -0.000594258 0.00122772 4.06008e-05
0 -0.0271699 0.00211432 0.0313608 -0.0535698 -0.00319447
-3.87215e-21 -0.0270374 0.00364693 0.00992221 -0.0149449 -0.00145687
-1.16165e-20 0.0270375 0.00364697 -0.000214655 0.000435721 2.25451e-05
0 -0.0271534 0.00283785 0.0243638 -0.0391684 -0.00315407
0 0.0271534 0.00283788 -0.000535725 0.00110826 4.50561e-05
3.01167e-21 0.0273865 0.000433223 -6.94524e-05 0.00012995 1.03297e-06
3.01167e-21 -0.0273866 0.000433225 0.0137779 -0.0247182 -0.000851377
-1.35525e-20 -0.0272025 0.00404243 0 0 0
0 0.0272026 0.00404247 0 0 0
0 0.0275132 1.10792e-13 1.02993e-09 9.25406e-09 -1.66858e-08
0 -0.0275208 1.06274e-13 4.61646e-05 -8.53942e-05 -6.45665e-06
0 -0.0275278 1.055e-13 0 0 0
0 0.027528 1.05214e-13 0 0 0
-2.63521e-21 -0.0275176 0.00087612 0.0235075 -0.0417636 -0.00129524
9.41148e-22 0.0275176 0.000876116 -0.000249997 0.0004976 1.02717e-05
-4.23516e-22 -0.0275404 1.84884e-05 0.000549094 -0.00108586 -3.56422e-05
0 0.027541 1.89916e-05 -5.31393e-07 -3.17141e-07 2.48294e-07
1.35525e-20 -0.0272668 0.00395785 0.00319453 -0.0046468 -0.000488676
1.35525e-20 0.0272669 0.00395792 -6.47783e-05 0.000141516 1.01822e-05
7.05861e-23 0.0275074 0.00171411 -0.00053833 0.00109441 3.4918e-05
2.35287e-23 -0.0275075 0.00171411 0.0318751 -0.0553121 -0.00274265
1.12938e-21 -0.0274756 0.00248008 0.0287777 -0.0478771 -0.00364914
3.38813e-21 0.0274756 0.00248009 -0.000598296 0.00123252 4.89199e-05
0 -0.0274313 0.00322718 0.0194402 -0.0301908 -0.00307796
2.25875e-21 0.0274313 0.00322722 -0.00043639 0.000905857 4.29297e-05
1.35525e-20 -0.0273528 0.00409794 0 0 0
0 0.0273528 0.00409795 0 0 0
-6.77626e-22 -0.0274774 0.00369777 0.0120155 -0.0177819 -0.00207034
-9.03502e-22 0.0274774 0.00369779 -0.000257201 0.000541649 2.80228e-05
-2.71051e-20 0.0278217 0.00130228 -0.000462592 0.000928294 1.86587e-05
2.71051e-20 -0.0278217 0.00130226 0.0321143 -0.0567183 -0.00230109
2.71051e-20 0.0277987 0.0020884 -0.000646566 0.00132252 5.06771e-05
-2.71051e-20 -0.0277987 0.0020884 0.0328452 -0.0565247 -0.00393908
-1.50584e-21 0.0278795 0.000330568 -1.73019e-05 1.73632e-05 3.10837e-06
-7.52918e-22 -0.0278795 0.000330574 0.00982231 -0.0190137 -0.000586137
-1.01644e-20 -0.0275674 0.00417883 0 0 0
-6.77626e-21 0.0275674 0.00417882 0 0 0
-2.71051e-20 -0.0277779 0.00283431 0.0268781 -0.0429137 -0.00435223
0 0.0277779 0.00283433 -0.000621983 0.00128235 5.94679e-05
-6.77626e-21 -0.0276684 0.00421691 0 0 0
-2.03288e-20 0.0276685 0.00421694 0 0 0
0 -0.0277109 0.00403361 0.00584583 -0.00808578 -0.00116181
4.51751e-21 0.0277109 0.00403363 -0.000116846 0.000249399 1.37375e-05
0 -0.0278037 0.00346795 0.01929 -0.0283371 -0.00369514
0 0.0278037 0.00346796 -0.000425205 0.000896281 4.54478e-05
-2.71051e-20 0.0280306 3.72656e-14 0 0 0
1.35525e-20 -0.0280306 3.72776e-14 0 0 0
0 0.0281597 0.000826399 -0.00021881 0.000471725 6.10491e-06
2.71051e-21 -0.0281598 0.000826407 0.0223659 -0.0405964 -0.00151168
1.12938e-22 0.0281239 0.00170646 -0.000569377 0.00117262 4.16195e-05
6.77626e-22 -0.0281239 0.00170647 0.0328732 -0.0574963 -0.00343769
-2.71051e-20 0.0281926 2.34404e-14 0 0 0
-1.35525e-20 -0.0281927 2.34062e-14 0 0 0
-2.82344e-21 -0.0281037 0.00246055 0.0309703 -0.0517087 -0.00455376
0 0.0281037 0.00246055 -0.00067009 0.00137906 6.24571e-05
1.35525e-20 -0.0278977 0.00430336 0 0 0
0 0.0278977 0.00430337 0 0 0
5.64689e-22 -0.0280999 0.00316544 0.0247202 -0.0379982 -0.00458113