# UMean  POINT_DATA 26867
# x  y  z  UMean_x  UMean_y  UMean_z
0.0115468 0 6.39774e-08 0 0 0
-0.0115468 0 6.39774e-08 0 0 0
0.0115468 6.77626e-21 0.00015991 0 0 0
-0.0115468 0 0.000159974 0 0 0
0.0115468 1.35525e-20 0.000505084 0 0 0
-0.0115468 1.35525e-20 0.000505284 0 0 0
0.0115468 0 0.000661266 0 0 0
-0.0115468 1.35525e-20 0.000661528 0 0 0
0.0115468 6.77626e-21 0.000824591 0 0 0
-0.0115468 1.35525e-20 0.000824855 0 0 0
0.0115468 0 0.00119315 0 0 0
-0.0115467 -6.77626e-21 0.00119341 0 0 0
0.0116176 0 9.47928e-05 -1.45408e-06 2.00653e-06 -2.33308e-07
-0.0116176 -1.35525e-20 9.48608e-05 0.000648684 -0.00120606 -7.57342e-05
-0.0116191 0 6.70009e-08 0 0 0
0.0116191 -1.35525e-20 6.69999e-08 0 0 0
0.0115467 0 0.00135627 0 0 0
-0.0115467 0 0.00135654 0 0 0
0.0116144 0 0.0005677 -1.38823e-06 1.91566e-06 -2.22742e-07
-0.0116144 0 0.000567955 0.000619306 -0.00115144 -7.23044e-05
0.0116106 0 0.000748261 -2.73096e-05 5.17348e-05 7.561e-09
-0.0116106 0 0.00074858 0.00123646 -0.00225981 -4.78083e-05
0.0115467 6.77626e-21 0.00152892 0 0 0
-0.0115467 0 0.00152913 0 0 0
0.0116105 -1.35525e-20 0.00124687 -2.72442e-05 5.16109e-05 7.54289e-09
-0.0116105 0 0.00124719 0.00123356 -0.00225451 -4.76961e-05
0.0116054 0 0.00142604 -2.7027e-05 5.06321e-05 8.59632e-07
-0.0116054 0 0.00142632 0.00107335 -0.00200359 4.87398e-05
0.0115467 0 0.00190897 0 0 0
-0.0115467 -6.77626e-21 0.00190903 0 0 0
0.0117276 1.35525e-20 6.63331e-08 0 0 0
-0.0117276 0 6.63357e-08 0 0 0
0.0117103 2.71051e-20 0.000650308 -3.61041e-05 6.25167e-05 1.3263e-06
-0.0117103 0 0.000650723 0.00217827 -0.00360504 1.95263e-05
0.0115467 0 0.002087 0 0 0
-0.0115467 0 0.002087 0 0 0
0.011609 0 0.00193558 -2.86884e-05 5.37446e-05 9.12476e-07
-0.011609 0 0.00193568 0.00113927 -0.00212666 5.17336e-05
0.0117025 1.35525e-20 0.00130847 -7.13561e-05 0.000126796 1.69528e-07
-0.0117026 6.77626e-21 0.00130891 0.00293268 -0.00494394 -1.48622e-05
0.0116004 0 0.00211165 0 0 0
-0.0116004 -1.35525e-20 0.00211165 0 0 0
0.0116425 1.35525e-20 0.00204724 -2.54458e-05 5.08183e-05 1.20297e-06
-0.0116425 -1.35525e-20 0.0020473 0.000974191 -0.00181822 8.76656e-05
-0.0116585 -1.35525e-20 0.00213828 0 0 0
0.0116585 1.35525e-20 0.00213829 0 0 0
0.0117067 0 0.00192887 -6.69511e-05 0.000115767 -1.65637e-06
-0.0117067 0 0.00192906 0.00262277 -0.00429214 -7.44078e-05
0.0118537 0 0.000958822 -0.00012252 0.000210381 1.6775e-06
-0.0118537 4.51751e-21 0.000959338 0.00520723 -0.00892658 -4.17476e-05
0.0119178 -2.25875e-21 0.000318505 -1.44283e-05 2.60077e-05 4.21732e-07
-0.0119179 6.77626e-21 0.000318753 0.00271102 -0.00472196 -5.80285e-05
0.011932 -1.35525e-20 7.04545e-08 0 0 0
-0.011932 1.35525e-20 7.04584e-08 0 0 0
0.0118325 -2.71051e-21 0.00163048 -0.00012822 0.000218083 -5.64199e-06
-0.0118325 8.13152e-21 0.00163082 0.00463539 -0.00800376 -9.07099e-05
0.0118724 -1.35525e-20 0.00142154 -0.000154222 0.000265485 -4.43785e-06
-0.0118724 0 0.00142207 0.00586484 -0.0100098 -8.90905e-05
-0.0117616 1.35525e-20 0.0021856 0 0 0
0.0117616 -1.35525e-20 0.0021856 0 0 0
0.0118132 -8.13152e-20 0.00220929 0 0 0
-0.0118132 -2.71051e-20 0.00220929 0 0 0
0.0118989 -3.76459e-22 0.00195759 -0.000113136 0.000174937 -3.7028e-06
-0.0118989 1.12938e-21 0.00195776 0.00413184 -0.00647392 3.46645e-05
0.0119718 0 0.00153816 -0.000191738 0.000314726 -1.42496e-05
-0.0119719 6.77626e-21 0.00153863 0.00711384 -0.0112569 -0.000383343
0.0120983 0 7.96199e-08 0 0 0
-0.0120983 1.35525e-20 7.96227e-08 0 0 0
0.0120694 -6.77626e-21 0.000852289 -0.000161036 0.000267162 1.03545e-05
-0.0120695 6.77626e-21 0.000852887 0.00745112 -0.0118619 0.000179192
0.0122081 0 0.000167029 -1.12285e-06 1.39682e-06 4.51025e-07
-0.0122082 -2.71051e-20 0.000167211 0.0022291 -0.00372391 -0.000128878
0.012221 0 7.14643e-08 0 0 0
-0.012221 -1.35525e-20 7.14638e-08 0 0 0
0.0121684 -1.35525e-21 0.0012252 -0.000233558 0.000407852 5.568e-07
-0.0121684 4.51751e-22 0.00122579 0.00941618 -0.0156043 -1.80421e-05
-0.0120251 6.77626e-21 0.00230653 0 0 0
0.0120251 -2.71051e-20 0.00230654 0 0 0
0.0122349 -6.45358e-22 0.000642094 -0.000124309 0.000213533 4.32304e-06
-0.0122349 -5.16287e-21 0.00064261 0.00718382 -0.0118647 8.17011e-05
0.0120593 5.0822e-21 0.00232225 0 0 0
-0.0120595 0 0.00232234 0 0 0
0.0122855 2.71051e-20 6.71745e-08 0 0 0
-0.0122856 0 6.71712e-08 0 0 0
0.0122109 3.67048e-21 0.00173612 -0.000222245 0.000387225 -5.37309e-06
-0.012211 3.67048e-21 0.00173646 0.00817805 -0.0135264 -0.000187777
0.0121468 1.35525e-20 0.00214597 -0.000117343 0.000205517 -1.84054e-06
-0.0121468 0 0.00214607 0.00381931 -0.00688653 -6.77046e-05
0.0122263 6.77626e-21 0.00229069 -5.75142e-05 9.78927e-05 -1.32033e-06
-0.0122264 -6.77626e-21 0.00229083 0.00187694 -0.00335992 -4.16033e-05
0.0124605 1.35525e-20 5.58025e-08 0 0 0
-0.0124606 -2.71051e-20 5.57974e-08 0 0 0
0.0125121 2.1684e-20 0.000225072 -1.74174e-06 3.04638e-06 4.52753e-07
-0.0125121 1.0842e-20 0.000225226 0.00359451 -0.00620351 3.75888e-05
0.012289 0 0.00242767 0 0 0
-0.012289 -1.35525e-20 0.00242767 0 0 0
0.0125901 0 0.000921608 -0.000271342 0.000514142 -3.27112e-06
-0.0125902 2.71051e-20 0.000921969 0.0117016 -0.0204614 5.91032e-05
-0.0124011 -6.77626e-21 0.00241706 0.00143502 -0.00248961 -9.17748e-05
0.0124011 1.35525e-20 0.00241705 -4.23281e-05 7.83945e-05 -1.23716e-06
-0.0123956 0 0.00247653 0 0 0
0.0123957 0 0.00247657 0 0 0
0.0124525 1.69407e-21 0.00218684 -0.000169066 0.000318403 -7.55525e-07
-0.0124526 1.69407e-21 0.00218694 0.0055947 -0.00993025 -8.10872e-05
0.0125382 1.35525e-20 0.00209398 -0.000234219 0.000457927 1.04659e-06
-0.0125382 -1.35525e-20 0.00209412 0.00766065 -0.0138211 -2.39677e-06
0.0126447 2.71051e-21 0.00162104 -0.000357931 0.000677503 7.89297e-06
-0.0126448 1.89735e-20 0.00162131 0.012744 -0.022366 0.000185373
-0.012772 1.35525e-20 0.000141313 0.00236666 -0.00406969 3.06946e-05
0.0127721 0 0.000141176 -1.13752e-06 1.96693e-06 3.88652e-07
-0.0127747 0 1.51157e-08 0 0 0
0.0127748 2.71051e-20 1.51099e-08 0 0 0
0.0126132 2.71051e-21 0.00241893 -0.000105363 0.000199276 -1.69118e-06
-0.0126132 1.35525e-20 0.00241896 0.00352155 -0.0062287 -0.00016432
0.0125864 1.35525e-20 0.00256393 0 0 0
-0.0125864 -1.35525e-20 0.00256393 0 0 0
-0.0129279 -1.35525e-20 4.53136e-09 0 0 0
0.0129279 1.35525e-20 4.53058e-09 0 0 0
0.0129181 -6.77626e-21 0.000605291 -0.000166014 0.000310538 -1.1611e-06
-0.0129182 -9.03502e-21 0.000605505 0.00956501 -0.0163292 3.177e-05
0.0129069 0 0.00122264 -0.000393532 0.000739067 3.80054e-06
-0.012907 -6.77626e-21 0.00122289 0.0145688 -0.025061 0.000136028
-0.0127465 0 0.00263727 0 0 0
0.0127465 5.42101e-20 0.0026373 0 0 0
0.0128746 0 0.00194104 -0.000372171 0.000705056 6.1676e-06
-0.0128746 4.51751e-21 0.00194116 0.0119015 -0.0207539 6.26792e-05
0.0130688 1.35525e-20 3.79635e-09 0 0 0
-0.0130689 -1.35525e-20 3.79672e-09 0 0 0
0.0130684 0 0.000129705 -1.0127e-06 2.10308e-06 1.90447e-07
-0.0130685 -1.35525e-20 0.000129767 0.00271638 -0.00452083 -3.5402e-06
0.0129106 -4.51751e-21 0.00229685 -0.000265769 0.000503773 2.52887e-06
-0.0129106 0 0.0022969 0.00827635 -0.014495 -7.92647e-05
0.0131166 8.13152e-21 0.00164045 -0.000496177 0.000935662 9.50456e-06
-0.0131166 -1.6263e-20 0.0016406 0.016076 -0.0275248 0.000187969
0.013248 0 0.000302942 -2.41184e-06 4.78882e-06 3.8621e-07
-0.013248 0 0.000303006 0.00617913 -0.0102602 -3.81218e-06
-0.0129825 6.77626e-21 0.00274594 0 0 0
0.0129826 1.35525e-20 0.00274602 0 0 0
0.0132464 0 0.000911421 -0.000397799 0.000737907 -2.50901e-06
-0.0132464 0 0.000911568 0.0157226 -0.0265131 3.56832e-05
-0.0131305 -9.03502e-21 0.00262462 0.00456008 -0.00786691 -0.000104369
0.0131306 -4.51751e-21 0.0026246 -0.000151739 0.000285179 2.15438e-06
0.0132416 2.71051e-20 0.00211418 -0.000465782 0.000887629 9.36065e-06
-0.0132416 0 0.00211424 0.0139713 -0.0242276 0.000110495
0.0131188 1.35525e-20 0.00280831 0 0 0
-0.0131188 0 0.00280832 0 0 0
-0.013437 0 2.0837e-09 0 0 0
0.0134371 1.35525e-20 2.08334e-09 0 0 0
-0.0134397 0 0.000120678 0.00252615 -0.00420424 -3.29228e-06
0.0134397 0 0.00012062 -9.41778e-07 1.9558e-06 1.7711e-07
0.0135679 0 1.40568e-09 0 0 0
-0.0135679 -1.35525e-20 1.40569e-09 0 0 0
0.0135763 9.03502e-21 0.000596651 -0.000223374 0.000418152 -1.72817e-06
-0.0135763 0 0.000596723 0.0117917 -0.0197153 2.51566e-06
0.0135724 4.51751e-21 0.00122409 -0.000549172 0.00103878 4.5559e-06
-0.0135724 2.25875e-21 0.00122418 0.0185086 -0.0312532 5.54569e-05
-0.0133502 0 0.0029148 0 0 0
0.0133503 2.71051e-20 0.00291486 0 0 0
0.013478 6.77626e-21 0.00238371 -0.00042313 0.000808374 1.17298e-05
-0.013478 0 0.00238375 0.0117297 -0.0202669 2.36914e-05
0.0135677 -2.25875e-21 0.0018552 -0.000614067 0.00117478 1.49098e-05
-0.0135677 -4.51751e-21 0.00185526 0.0178917 -0.0306108 8.71791e-05
0.0136939 0 1.22236e-09 0 0 0
-0.013694 -1.35525e-20 1.2223e-09 0 0 0
0.0136952 1.35525e-20 0.000110031 -9.31492e-07 1.96582e-06 4.36166e-07
-0.0136952 -1.35525e-20 0.000110068 0.0025911 -0.00430156 -4.69165e-06
-0.0135432 -2.03288e-20 0.00300515 0 0 0
0.0135435 2.03288e-20 0.00300527 0 0 0
-0.0139035 0 0.000294203 0.00679727 -0.0112448 -1.59073e-05
0.0139035 0 0.00029418 -2.4711e-06 5.17306e-06 1.01044e-06
0.0135883 1.69407e-20 0.00302624 0 0 0
-0.0135884 3.38813e-21 0.00302627 0 0 0
0.0139156 0 0.000900725 -0.000502275 0.000946427 -6.06815e-06
-0.0139156 -5.42101e-20 0.000900773 0.0187621 -0.0313337 -4.39192e-06
-0.01368 2.25875e-21 0.00276396 0.0072521 -0.012597 8.76995e-05
0.0136801 4.51751e-21 0.00276395 -0.000283205 0.000536405 9.87356e-06
0.0139126 0 0.00154323 -0.000748201 0.00143991 1.55031e-05
-0.0139126 0 0.00154327 0.0217536 -0.0367848 -6.34163e-05
0.0138988 0 0.00219575 -0.000702302 0.00135639 2.40963e-05
-0.0138988 0 0.00219579 0.0182727 -0.0314221 4.822e-05
-0.0141099 1.35525e-20 3.98814e-10 0 0 0
0.01411 2.71051e-20 3.98707e-10 0 0 0
-0.0141138 1.35525e-20 9.87891e-05 0.0023256 -0.0038608 -4.21093e-06
0.0141139 0 9.87469e-05 -8.35971e-07 1.76424e-06 3.91439e-07
-0.0138007 0 0.00312567 0 0 0
0.0138008 1.35525e-20 0.00312569 0 0 0
0.0142228 -1.35525e-20 2.30663e-10 0 0 0
-0.0142228 0 2.30703e-10 0 0 0
0.0142415 0 0.000580985 -0.000273262 0.000515216 -4.24707e-06
-0.0142415 -2.25875e-21 0.000581003 0.0132632 -0.0221725 -4.51128e-05
0.0142522 -2.25875e-21 0.00120638 -0.000699132 0.0013408 5.3783e-06
-0.0142522 1.12938e-21 0.0012064 0.0214529 -0.0360871 -0.000175652
0.0143301 0 2.07129e-10 0 0 0
-0.0143301 0 2.07152e-10 0 0 0
0.0143313 0 8.886e-05 -7.42423e-07 1.61287e-06 1.08618e-06
-0.0143313 -1.35525e-20 8.88982e-05 0.00223035 -0.00380479 3.82969e-07
-0.0139712 6.77626e-21 0.00320466 0 0 0
0.0139713 -6.77626e-21 0.00320471 0 0 0
0.0142441 -1.12938e-21 0.00187483 -0.000846142 0.00164554 2.60763e-05
-0.0142441 -7.90564e-21 0.00187485 0.0213995 -0.0364446 -0.000252431
-0.0140734 -5.42101e-21 0.00302456 0.00563787 -0.00981032 -8.3748e-05
0.0140735 -2.71051e-21 0.00302455 -0.00027226 0.000493432 7.4397e-06
0.0141851 -4.51751e-21 0.0026086 -0.000588653 0.0011389 2.19548e-05
-0.0141851 -9.03502e-22 0.0026086 0.0131849 -0.022693 -0.000152975
0.0140971 6.77626e-21 0.00326317 0 0 0
-0.0140971 6.77626e-21 0.00326321 0 0 0
0.0142075 1.35525e-20 0.0031652 -0.000184459 0.000332068 4.87271e-06
-0.0142075 1.35525e-20 0.00316527 0.0037678 -0.00653416 -6.00224e-05
-0.0145609 0 0.00028173 0.00700749 -0.0118113 5.04315e-06
0.0145609 -2.71051e-20 0.000281722 -2.41644e-06 5.135e-06 2.65737e-06
0.0145815 0 0.000874339 -0.000599611 0.00113071 -1.48326e-05
-0.0145815 5.42101e-20 0.000874352 0.0208204 -0.0348639 -0.000159763
0.0142358 0 0.00332756 0 0 0
-0.0142358 1.35525e-20 0.00332756 0 0 0
-0.0145905 0 0.00151944 0.0245819 -0.0415466 -0.000473594
0.0145905 5.42101e-20 0.00151943 -0.000952353 0.00185907 2.71433e-05
-0.0145715 0 0.00221287 0.0212181 -0.0363999 -0.000529446
0.0145715 0 0.00221286 -0.000990064 0.00194455 3.81326e-05
-0.0143572 0 0.00338359 0 0 0
0.0143573 1.35525e-20 0.00338361 0 0 0
0.0144402 -7.52918e-21 0.00302844 -0.000435264 0.000851325 1.90782e-05
-0.0144402 -3.01167e-21 0.00302844 0.0087277 -0.0151687 -0.000128884
-0.0143824 0 0.00330546 0.00216323 -0.00388649 5.45797e-05
0.0143824 1.35525e-20 0.00330544 -0.000112575 0.000231469 9.49654e-06
-0.0147853 1.35525e-20 4.21902e-11 0 0 0
0.0147853 0 4.21638e-11 0 0 0
-0.0147878 1.35525e-20 7.9557e-05 0.001996 -0.003405 3.42728e-07
0.0147879 0 7.95089e-05 -6.64295e-07 1.44314e-06 9.71876e-07
-0.0148815 1.35525e-20 2.04877e-11 0 0 0
0.0148815 1.35525e-20 2.04793e-11 0 0 0
0.0146215 5.42101e-20 0.00280141 -0.000709281 0.00141136 3.08196e-05
-0.0146215 -2.71051e-20 0.00280142 0.0138174 -0.0236134 -0.000361281
0.0149014 -1.12938e-21 0.000554696 -0.000312262 0.000588301 -6.18004e-06
-0.0149014 2.25875e-21 0.000554698 0.0140392 -0.0237899 -0.000167337
-0.0145855 0 0.00326148 0.0055635 -0.00996613 6.78197e-05
0.0145855 -2.71051e-20 0.00326148 -0.00027854 0.000565906 1.77171e-05
0.014922 0 0.00116913 -0.000841309 0.0016255 8.70584e-06
-0.014922 4.51751e-21 0.00116914 0.0233709 -0.0395166 -0.000550946
0.0149733 0 1.85822e-11 0 0 0
-0.0149733 0 1.85877e-11 0 0 0
0.0149737 0 7.37337e-05 -7.22511e-08 5.12421e-07 1.4689e-06
-0.0149737 -1.35525e-20 7.37863e-05 0.00188261 -0.0034783 -4.31987e-06
0.0146079 0 0.00349938 0 0 0
-0.014608 -2.71051e-20 0.00349939 0 0 0
0.0149198 -5.64689e-21 0.00184898 -0.00110887 0.00218267 3.69766e-05
-0.0149198 1.12938e-21 0.00184898 0.0239613 -0.0408261 -0.000992914
0.0146663 1.35525e-20 0.00343242 -0.000117741 0.00024209 9.93228e-06
-0.0146663 0 0.00343245 0.00226282 -0.0040654 5.70922e-05
0.0149195 -3.38813e-21 0.0025206 -0.00102428 0.00202434 3.99367e-05
-0.0149195 0 0.00252061 0.0190187 -0.032198 -0.00106692
0.0147322 1.35525e-20 0.00355672 0 0 0
-0.0147322 -1.35525e-20 0.00355672 0 0 0
0.0148881 -1.12938e-21 0.00309606 -0.000623215 0.00122774 2.92558e-05
-0.0148881 0 0.00309607 0.010915 -0.018319 -0.000500208
-0.0152103 0 0.000264569 0.00678025 -0.0121389 -1.11612e-05
0.0152103 0 0.000264568 -1.15776e-06 3.08993e-06 3.78899e-06
-0.0152372 2.71051e-20 0.0008328 0.0219966 -0.037096 -0.000488524
0.0152372 -2.71051e-20 0.000832795 -0.000665484 0.00125157 -1.61991e-05
-0.0148482 2.03288e-20 0.00360995 0 0 0
0.0148482 -6.77626e-21 0.00360996 0 0 0
-0.0148928 1.35525e-20 0.00347705 0.00370762 -0.00598563 -0.000157663
0.0148929 1.35525e-20 0.00347703 -0.000232911 0.0004501 1.23325e-05
-0.0152552 2.71051e-20 0.0014732 0.026194 -0.0447222 -0.00107744
0.0152552 -2.71051e-20 0.00147319 -0.00115366 0.00227405 3.90956e-05
-0.0152472 -5.42101e-20 0.00216845 0.0238914 -0.0407142 -0.001876
0.0152472 0 0.00216845 -0.00133878 0.00265231 4.40222e-05
-0.0154527 -6.77626e-21 2.80358e-12 0 0 0
0.0154528 0 2.79985e-12 0 0 0
-0.015454 -1.35525e-20 6.43525e-05 0.00164191 -0.00303359 -3.76757e-06
0.0154541 -6.77626e-21 6.42876e-05 -6.2995e-08 4.46775e-07 1.28072e-06
0.0150217 2.71051e-20 0.0036898 0 0 0
-0.0150218 -2.71051e-20 0.00368982 0 0 0
0.0150966 -2.71051e-20 0.00340471 -0.000480227 0.000914375 2.38817e-05
-0.0150966 0 0.00340473 0.00773662 -0.0125822 -0.00021811
0.0152385 -5.42101e-20 0.00284793 -0.00110102 0.00217285 4.83027e-05
-0.0152385 0 0.00284795 0.017828 -0.0292155 -0.00159877
0.0155345 -1.35525e-20 1.12383e-12 0 0 0
-0.0155345 0 1.12475e-12 0 0 0
0.015136 1.35525e-20 0.00358109 -0.000244826 0.000473125 1.29634e-05
-0.0151361 0 0.00358111 0.00389775 -0.00629258 -0.000165748
-0.0155483 2.25875e-21 0.000512804 0.0137825 -0.0240993 -0.000406236
0.0155483 2.25875e-21 0.000512807 -0.00033491 0.000629344 -4.40331e-06
0.0156089 -6.77626e-21 5.68089e-05 -5.37902e-07 6.12512e-07 -9.27432e-07
-0.015609 -6.77626e-21 5.68715e-05 0.00149079 -0.00304783 -1.17036e-05
0.0156116 0 1.05225e-12 0 0 0
-0.0156117 6.77626e-21 1.05295e-12 0 0 0
0.0151553 0 0.00375104 0 0 0
-0.0151554 0 0.00375106 0 0 0
0.0156 1.58113e-21 0.00110028 -0.000959154 0.00187587 1.40522e-05
-0.0156001 -2.25875e-21 0.00110028 0.023877 -0.0412063 -0.00110561
0.0155874 -1.12938e-21 0.0017884 -0.00139274 0.00276147 4.47586e-05
-0.0155874 0 0.0017884 0.0258796 -0.0444779 -0.00205088
0.0152737 -1.35525e-20 0.00381165 0 0 0
-0.0152737 1.35525e-20 0.00381167 0 0 0
0.0153111 1.35525e-20 0.00369351 -0.000257139 0.000476824 1.39599e-05
-0.0153111 0 0.00369353 0.0035903 -0.00552461 -0.000480874
0.0155684 -5.64689e-22 0.00250744 -0.0014405 0.00283752 5.6271e-05
-0.0155684 1.12938e-21 0.00250745 0.0222417 -0.0370702 -0.00260271
-0.015842 -2.71051e-20 0.000233949 0.00603916 -0.0118282 -0.000162067
0.015842 0 0.000233939 -4.02794e-06 4.30317e-06 -6.53772e-07
0.0155233 -2.25875e-21 0.00325342 -0.000915473 0.0017901 4.58112e-05
-0.0155233 4.51751e-22 0.00325344 0.0131239 -0.0207911 -0.00171264
-0.0158872 5.42101e-20 0.000762439 0.0211284 -0.036655 -0.00095516
0.0158872 -2.71051e-20 0.000762443 -0.000705142 0.00132476 -5.64727e-06
0.0154852 0 0.00363865 -0.000496566 0.000936373 2.49794e-05
-0.0154853 0 0.00363867 0.00712997 -0.0111526 -0.000882326
0.0154926 -6.77626e-21 0.00391521 0 0 0
-0.0154927 1.35525e-20 0.00391523 0 0 0
-0.0159268 -2.71051e-20 0.00138121 0.0268503 -0.0471341 -0.0017925
0.0159268 2.71051e-20 0.00138121 -0.00132523 0.00268101 4.43181e-05
0.0155593 0 0.00385211 -0.000179111 0.000332134 9.72381e-06
-0.0155593 0 0.00385213 0.00250109 -0.00384857 -0.000334988
-0.0158994 -2.71051e-20 0.00212232 0.0265257 -0.0453078 -0.00341333
0.0158994 -2.71051e-20 0.00212231 -0.00174199 0.00342017 5.17751e-05
0.0155753 0 0.0039559 0 0 0
-0.0155753 0 0.00395592 0 0 0
0.0158856 -2.71051e-20 0.00284658 -0.00159897 0.00314266 8.07289e-05
-0.0158856 -2.71051e-20 0.00284659 0.0210466 -0.0336769 -0.00357141
0.0156482 0 0.0040035 0 0 0
-0.0156482 6.77626e-21 0.00400354 0 0 0
-0.0161504 -4.51751e-21 0.000464673 0.0132095 -0.0242053 -0.0010088
0.0161504 -7.34095e-21 0.000464663 -0.000364286 0.000691784 -1.26949e-05
0.0156709 1.35525e-20 0.00394832 -0.000122891 0.00023542 9.76473e-06
-0.015671 0 0.00394834 0.00158575 -0.0023526 -0.00019333
0.0157655 1.50584e-21 0.00368363 -0.000663262 0.00129209 3.5382e-05
-0.0157655 1.50584e-21 0.00368365 0.00904984 -0.0136678 -0.00143189
0.0162446 4.23516e-22 7.62403e-14 0 0 0
-0.016245 0 7.56613e-14 0 0 0
-0.0162671 -8.47033e-22 1.42355e-05 0.000394605 -0.000722009 -3.13277e-05
0.0162671 3.38813e-21 1.44936e-05 -9.79988e-06 1.8326e-05 -5.65104e-07
-0.0162672 0 1.74793e-06 2.10966e-05 -3.79752e-05 -2.60922e-06
0.0162714 0 1.43204e-06 -1.70452e-08 5.91464e-08 6.21117e-08
0.0159384 -2.71051e-20 0.00346447 -0.00108829 0.00216117 6.01478e-05
-0.0159385 0 0.00346449 0.0144737 -0.0215449 -0.00266655
-0.0162376 -5.64689e-23 0.00174471 0.0267436 -0.0468417 -0.0030711
0.0162376 -9.03502e-22 0.00174471 -0.00167942 0.00332647 4.55695e-05
0.0163345 -2.25875e-21 0.000944398 -0.000930036 0.00182816 -6.52682e-06
-0.0163345 -2.25875e-21 0.000944389 0.0210182 -0.0379835 -0.00168243
0.015896 5.42101e-20 0.00392571 -0.000429898 0.000826783 2.19948e-05
-0.015896 2.71051e-20 0.00392573 0.00582519 -0.00870257 -0.000797963
-0.0162554 1.6134e-22 0.00244438 0.0246622 -0.0411151 -0.00430537
0.0162554 2.42009e-22 0.00244439 -0.00188414 0.00369927 7.32218e-05
0.0159401 0 0.00419454 0 0 0
-0.0159401 -1.35525e-20 0.00419456 0 0 0
0.0162141 1.12938e-21 0.00317059 -0.00161321 0.00317622 8.83461e-05
-0.0162141 -1.69407e-21 0.0031706 0.0200112 -0.0306396 -0.00433085
0.015999 0 0.0041493 -0.000147005 0.000281614 1.16808e-05
-0.0159991 0 0.0041493 0.00189723 -0.00281472 -0.000231305
0.0160259 -1.35525e-20 0.00425061 0 0 0
-0.016026 1.35525e-20 0.00425065 0 0 0
-0.0166367 -9.41148e-23 0.00035282 0.0108063 -0.0212395 -0.00154147
0.0166368 1.8823e-22 0.000352947 -0.00021983 0.000395175 -6.33699e-05
0.0160815 1.35525e-20 0.00428686 0 0 0
-0.0160816 0 0.00428691 0 0 0
0.0161049 -1.35525e-20 0.004232 -0.000132057 0.000256802 6.66325e-06
-0.0161051 0 0.00423203 0.00188205 -0.00248471 -0.000545313
0.0162263 -1.05879e-22 0.00384235 -0.000876765 0.00173495 4.98058e-05
-0.0162266 -2.75286e-21 0.00384243 0.011376 -0.0161737 -0.00265593
0.0162339 0 0.00382625 -0.000901044 0.00178286 5.11477e-05
-0.016234 1.16467e-21 0.00382673 0.0116512 -0.0166111 -0.00272159
0.0162338 0 0.00384434 -0.000879994 0.00174177 5.00423e-05
-0.0162398 8.15269e-21 0.00384585 0.0114074 -0.0162033 -0.00267666
-0.0167083 0 1.01673e-14 0 0 0
0.0167084 -1.35525e-20 1.01342e-14 0 0 0
0.0166691 -2.71051e-20 0.00146459 -0.00178084 0.0035374 3.02414e-05
-0.0166691 -5.42101e-20 0.0014646 0.0273297 -0.05009 -0.0030263
0.0165265 -2.71051e-20 0.00282079 -0.00215232 0.00422065 0.000105102
-0.0165265 0 0.0028208 0.0245895 -0.0392823 -0.00585794
0.0161983 0 0.00436316 0 0 0
-0.0161985 -6.77626e-21 0.00436322 0 0 0
-0.0166645 5.42101e-20 0.00194622 0.0279866 -0.0498032 -0.00446499
0.0166645 2.71051e-20 0.00194622 -0.00213956 0.00419902 4.38064e-05
0.0165187 2.71051e-20 0.00350445 -0.00168902 0.00332708 0.000111569
-0.0165187 0 0.00350445 0.0207161 -0.0293376 -0.00548041
0.0169423 -1.35525e-20 1.10804e-15 0 0 0
-0.0169424 0 1.1016e-15 0 0 0
0.0163498 -1.35525e-20 0.00446209 0 0 0
-0.0163499 -1.35525e-20 0.00446209 0 0 0
0.0169271 0 0.000866322 -0.000937872 0.00183966 -2.09189e-05
-0.0169272 1.97641e-21 0.000866349 0.0179452 -0.0346435 -0.00213045
-0.0168736 -1.35525e-20 0.00168494 0.0277661 -0.0508929 -0.0039258
0.0168736 -1.35525e-20 0.00168494 -0.00206019 0.00405712 4.42462e-05
0.0164548 1.12938e-21 0.00428001 -0.00051054 0.00106371 2.0477e-05
-0.0164548 -2.25875e-21 0.00428001 0.00669149 -0.00952873 -0.00174985
0.0168849 0 0.00243442 -0.00243379 0.0047914 0.000100819
-0.0168849 -1.83524e-21 0.00243442 0.0273132 -0.0465718 -0.00599639
-0.0164961 0 0.00455753 0 0 0
0.0164962 -1.35525e-20 0.0045576 0 0 0
0.0168359 1.69407e-21 0.00316003 -0.00223862 0.00441675 0.00013227
-0.0168359 0 0.00316003 0.0248582 -0.0380402 -0.00677721
-0.0171339 -1.35525e-20 1.75376e-16 0 0 0
0.0171341 -6.77626e-21 1.78371e-16 0 0 0
-0.0170775 5.42101e-20 0.00142436 0.0269379 -0.0512715 -0.00351065
0.0170775 5.42101e-20 0.00142435 -0.00196727 0.00385655 3.40571e-05
-0.0171372 0 0.000271957 0.00727662 -0.0157676 -0.00118309
0.0171373 -4.06576e-21 0.000272005 -0.000191979 0.0003852 -3.67178e-05
-0.0170666 2.71051e-20 0.0019255 0.0288727 -0.0528635 -0.00485566
0.0170666 -2.71051e-20 0.0019255 -0.00240848 0.00474451 6.32168e-05
0.0167863 2.25875e-21 0.00388663 -0.00146187 0.00290328 9.49674e-05
-0.0167864 -1.12938e-21 0.00388663 0.0177538 -0.0241966 -0.00542663
-0.0166205 1.35525e-20 0.00463871 0 0 0
0.0166206 0 0.00463876 0 0 0
-0.0166523 1.35525e-20 0.00459983 0.00198712 -0.00234699 -0.000683895
0.0166524 0 0.00459991 -0.000130252 0.000250559 1.23641e-06
-0.0166794 -1.35525e-20 0.00467709 0 0 0
0.0166794 0 0.00467712 0 0 0
-0.0168451 -7.05861e-22 0.00433528 0.0119861 -0.015001 -0.00407444
0.0168452 -4.23516e-22 0.00433529 -0.000894612 0.00179021 4.83088e-05
-0.0171764 2.71051e-20 0.00277492 0.0279943 -0.0464308 -0.00759152
0.0171764 2.71051e-20 0.00277493 -0.00276044 0.00545555 0.000145483
0.0174301 0 3.0333e-16 0 0 0
-0.0174307 0 3.00573e-16 0 0 0
-0.0168042 -1.35525e-20 0.0046435 0.00403218 -0.00434417 -0.00155954
0.0168042 -1.35525e-20 0.00464355 -0.000264731 0.000531056 1.66586e-05
-0.0167886 6.77626e-21 0.00474834 0 0 0
0.0167886 -6.77626e-21 0.00474833 0 0 0
0.0174491 6.77626e-21 0.000139018 -8.90996e-05 0.000176318 -2.04034e-05
-0.0174496 0 0.000138437 0.00358547 -0.00774693 -0.000597454
0.0171294 0 0.00350657 -0.00237765 0.00471375 0.000167424
-0.0171294 -2.71051e-20 0.00350657 0.0262808 -0.0375526 -0.00820527
-0.0175669 0 -2.94673e-17 0 0 0
0.0175669 0 -2.95019e-17 0 0 0
0.0175583 7.05861e-22 0.000896586 -0.00116023 0.00226803 -3.285e-08
-0.0175584 -2.82344e-22 0.000896624 0.0173452 -0.0355993 -0.00220829
0.0175189 1.41172e-22 0.00167529 -0.00238004 0.00468686 5.3818e-05
-0.0175189 -2.82344e-22 0.00167528 0.02728 -0.0524267 -0.00415353
-0.0176062 -6.77626e-21 4.62814e-05 0.00115188 -0.00237704 -0.000120001
0.0176065 -6.77626e-21 4.65287e-05 -3.4438e-05 5.30162e-05 5.82975e-08
-0.0176089 -6.77626e-21 -8.32258e-18 0 0 0
0.0176092 0 -8.282e-18 0 0 0
-0.0171399 -2.71051e-20 0.00413685 0.0205673 -0.0259186 -0.00711352
0.0171399 0 0.00413685 -0.00162534 0.0032304 0.000110765
-0.0176343 6.77626e-21 -4.6544e-18 0 0 0
0.0176347 0 -4.56016e-18 0 0 0
-0.0170445 -2.71051e-20 0.00462908 0.00973777 -0.0107401 -0.00372745
0.0170445 -2.71051e-20 0.00462909 -0.000642327 0.00129437 3.20086e-05
0.0175376 0 0.00228764 -0.00286686 0.00565862 0.000109179
-0.0175376 5.64689e-22 0.00228764 0.0287677 -0.0515638 -0.00638696
-0.0170023 1.35525e-20 0.00488772 0 0 0
0.0170024 2.71051e-20 0.00488778 0 0 0
-0.0176972 0 4.73799e-05 0.00126771 -0.00291818 -9.89694e-05
0.0176979 0 4.76325e-05 -7.08298e-05 0.000131375 -2.56019e-06
-0.0177006 6.77626e-21 -1.62136e-17 0 0 0
0.0177013 0 -1.6163e-17 0 0 0
-0.0174646 9.03502e-22 0.00310782 0.0288795 -0.0461226 -0.0082257
0.0174646 1.58113e-21 0.00310783 -0.0029209 0.00577263 0.000162014
-0.0171112 1.35525e-20 0.00481655 0.00498584 -0.00537162 -0.00192838
0.0171113 -1.35525e-20 0.00481662 -0.00032745 0.000656871 2.06053e-05
-0.0171346 0 0.00497401 0 0 0
0.0171346 -1.35525e-20 0.00497404 0 0 0
0.0174342 1.12938e-21 0.00383428 -0.00239961 0.00475039 0.000170886
-0.0174342 -1.12938e-21 0.00383428 0.0266361 -0.0362501 -0.00867833
-0.0172171 2.71051e-20 0.00502788 0 0 0
0.0172172 0 0.0050279 0 0 0
-0.0172554 0 0.00493142 0.0050839 -0.00532945 -0.00223603
0.0172555 -2.71051e-20 0.00493146 -0.000303077 0.000607875 1.51545e-05
-0.0174076 3.76459e-21 0.00453333 0.0174399 -0.020394 -0.00637381
0.0174076 1.69407e-21 0.00453333 -0.00129509 0.00259359 9.43551e-05
0.0177905 -5.42101e-20 0.00276844 -0.00336344 0.00663445 0.000146255
-0.0177905 -2.71051e-20 0.00276844 0.0303153 -0.0528639 -0.00796555
-0.0177573 -2.71051e-20 0.00348298 0.0309152 -0.0458012 -0.00972029
0.0177573 2.71051e-20 0.00348298 -0.00319012 0.00630677 0.00020566
0.017378 0 0.0051328 0 0 0
-0.017378 0 0.00513282 0 0 0
-0.0174497 0 0.0051796 0 0 0
0.0174497 0 0.0051796 0 0 0
0.0177264 0 0.00417355 -0.00248948 0.00491915 0.000205214
-0.0177264 2.71051e-20 0.00417356 0.0293277 -0.0368061 -0.0098147
-0.0175028 0 0.00510092 0.00425317 -0.00446153 -0.00166218
0.0175028 0 0.00510089 -0.000265726 0.000563135 2.08556e-05
-0.0181612 5.42101e-20 0.00171797 0.0273651 -0.0560508 -0.00412447
0.0181612 0 0.00171797 -0.00289575 0.00572432 5.60265e-05
-0.0175201 6.77626e-21 0.00522551 0 0 0
0.0175201 6.77626e-21 0.00522552 0 0 0
-0.0182822 -5.42101e-20 0.00051562 0.0136561 -0.0323926 -0.000890806
0.0182823 -5.42101e-20 0.000515625 -0.000818491 0.00155663 -1.93618e-05
-0.0181327 -1.05879e-22 0.00240415 0.0299408 -0.0552194 -0.00674296
0.0181321 0 0.00240536 -0.00351681 0.00693693 0.000144867
0.0181317 0 0.00242421 -0.00352112 0.00694486 0.000146498
-0.0181316 -9.52912e-22 0.00242445 0.0299828 -0.0551299 -0.00678895
0.0176138 3.01167e-21 0.0049468 -0.000806256 0.0016875 5.76921e-05
-0.0176138 -1.50584e-21 0.0049468 0.0129028 -0.0135016 -0.00513573
-0.0180947 1.69407e-21 0.00311468 0.0314815 -0.0520184 -0.008402
0.0180947 -5.64689e-22 0.00311468 -0.0036786 0.00723598 0.000205381
-0.0180563 0 0.00382342 0.032187 -0.0451527 -0.00965224
0.0180563 -1.12938e-21 0.00382342 -0.00332625 0.00653891 0.00024337
0.0177083 -1.35525e-20 0.00534825 0 0 0
-0.0177083 0 0.00534827 0 0 0
0.0177631 0 0.00528871 -0.000253086 0.000516743 6.05105e-06
-0.0177632 1.35525e-20 0.00528871 0.00485859 -0.00442312 -0.00214108
0.0179883 2.25875e-21 0.00454808 -0.00223132 0.00442518 0.000194505
-0.0179883 -2.25875e-21 0.00454808 0.026785 -0.0319345 -0.00883271
0.0178024 -2.71051e-20 0.00540965 0 0 0
-0.0178024 0 0.00540968 0 0 0
-0.0184402 -2.71051e-20 0.00274762 0.0311082 -0.0569297 -0.00713907
0.0184402 0 0.00274762 -0.00402333 0.00792884 0.000195882
0.0180052 -1.35525e-21 0.00502463 -0.00134471 0.00269068 0.000120163
-0.0180053 -9.03502e-22 0.00502464 0.0200053 -0.0206457 -0.00736736
-0.0183918 0 0.00345433 0.0334995 -0.0523218 -0.00880973
0.0183918 2.71051e-20 0.00345433 -0.00411153 0.00802857 0.000271579
0.0179451 6.77626e-21 0.00550275 0 0 0
-0.0179452 2.71051e-20 0.0055028 0 0 0
0.0183611 -2.71051e-20 0.0041536 -0.00353731 0.00694487 0.000290579
-0.0183611 -2.71051e-20 0.0041536 0.0349814 -0.0459421 -0.0102323
-0.0188422 -1.35525e-20 7.03791e-05 0.00188308 -0.00433472 -0.000147011
0.0188422 0 7.03242e-05 -0.000104573 0.000193962 -3.77985e-06
-0.0188477 -1.35525e-20 1.08477e-18 0 0 0
0.0188478 0 1.12113e-18 0 0 0
0.0188602 -1.12938e-21 0.00112833 -0.00212207 0.00418173 2.967e-05
-0.0188602 -4.51751e-21 0.00112833 0.02006 -0.045674 -0.00195872
0.0180592 -2.03288e-20 0.00557718 0 0 0
-0.0180592 0 0.00557719 0 0 0
0.0181347 4.51751e-21 0.00538307 -0.000684135 0.00136366 7.03943e-05
-0.0181347 0 0.00538308 0.0123435 -0.0108757 -0.00486486
0.018942 0 6.18177e-19 0 0 0
-0.018942 1.35525e-20 6.20531e-19 0 0 0
-0.0188166 -2.25875e-21 0.00228404 0.029357 -0.0574876 -0.00493902
0.0188166 -1.12938e-21 0.00228404 -0.00398597 0.0078027 0.000156392
0.0183535 0 0.00480354 -0.00251839 0.00499579 0.000258878
-0.0183535 2.71051e-20 0.00480354 0.0322295 -0.0361889 -0.0101876
0.0187311 9.88205e-22 0.00307208 -0.00438752 0.00855441 0.000241855
-0.0187311 -2.82344e-22 0.00307209 0.0320877 -0.0556303 -0.0067824
0.0190249 -1.35525e-20 8.51688e-05 -0.000156249 0.000320336 1.81445e-07
-0.019025 1.35525e-20 8.52513e-05 0.00202713 -0.00541505 -2.85217e-05
0.0190314 0 5.64137e-19 0 0 0
-0.0190315 0 5.6594e-19 0 0 0
0.0182204 1.35525e-20 0.00568235 0 0 0
-0.0182205 -2.71051e-20 0.00568237 0 0 0
0.0187398 3.17637e-22 0.00374577 -0.00432508 0.00842131 0.000319771
-0.0187398 5.29396e-22 0.00374577 0.0345439 -0.0510269 -0.00800752
0.0186713 -3.38813e-21 0.00447941 -0.00361415 0.00710859 0.000344405
-0.0186713 -4.51751e-21 0.00447941 0.0355379 -0.0446649 -0.00911507
0.0183607 2.71051e-20 0.00577387 0 0 0
-0.0183608 -1.35525e-20 0.00577391 0 0 0
0.018471 5.42101e-21 0.00561102 -0.000808698 0.00158837 7.9218e-05
-0.018471 -1.35525e-20 0.00561103 0.014848 -0.0139707 -0.00544168
0.0186129 2.71051e-21 0.00519726 -0.00207598 0.00414144 0.000225632
-0.0186129 0 0.00519727 0.0276127 -0.0293165 -0.00833706
-0.0191646 -2.71051e-20 0.00284903 0.0310895 -0.0583266 -0.00440282