# k  POINT_DATA 31572
# x  y  z  k
0.0292381 0 8.09214e-08 9.55751e-11
-0.0292381 0 8.09214e-08 8.19079e-07
0.0292381 -3.38813e-21 0.000233596 9.07389e-11
-0.0292381 3.38813e-21 0.000233441 8.33582e-07
0.029238 -3.38813e-21 0.000431066 9.34165e-11
-0.0292381 0 0.000430751 9.1419e-07
0.029238 -1.35525e-20 0.000664138 1.05623e-10
-0.029238 -6.77626e-21 0.000663676 1.06575e-06
0.029238 -3.38813e-21 0.000908366 1.1094e-10
-0.029238 0 0.000907922 1.21443e-06
-0.029238 -3.38813e-21 0.00111494 1.25525e-06
0.029238 3.38813e-21 0.00111544 1.12452e-10
-0.029238 0 0.00135903 1.17704e-06
0.0292379 0 0.00135951 1.10406e-10
-0.0292379 -3.38813e-21 0.00161391 1.05824e-06
0.0292379 0 0.00161421 1.0361e-10
-0.0292379 3.38813e-21 0.00183185 1.15636e-06
0.0292379 3.38813e-21 0.00183203 1.17558e-10
0.0292379 1.35525e-20 0.002087 1.45876e-10
-0.0292379 -1.35525e-20 0.002087 1.40956e-06
-0.0293159 -1.01644e-20 0.000332812 8.1334e-07
0.0293159 1.69407e-20 0.000333044 8.33116e-11
-0.0293201 -3.38813e-21 0.00100457 1.23797e-06
0.0293201 1.35525e-20 0.00100504 1.07982e-10
-0.0293199 0 0.0017002 9.59131e-07
0.0293199 3.38813e-21 0.00170046 9.55281e-11
-0.0294721 0 0.000122211 7.47249e-07
0.0294722 1.35525e-20 0.000122307 7.69065e-11
-0.0294728 0 7.47975e-08 7.45424e-07
0.0294728 0 7.47971e-08 7.67299e-11
-0.0294797 1.35525e-20 0.000527785 8.6216e-07
0.0294797 -1.35525e-20 0.000528144 8.30775e-11
-0.0294753 -1.35525e-20 0.000796291 1.04453e-06
0.0294753 1.35525e-20 0.000796753 9.38888e-11
-0.0294755 2.03288e-20 0.00118666 1.07999e-06
0.0294755 0 0.00118714 9.62471e-11
-0.0294683 -1.35525e-20 0.00147414 9.57874e-07
0.0294683 -1.35525e-20 0.00147454 9.10904e-11
-0.0294625 -6.77626e-21 0.00186309 1.00486e-06
0.0294626 -6.77626e-21 0.00186328 1.00705e-10
-0.029578 1.35525e-20 6.64178e-08 1.00851e-06
0.029578 0 6.64171e-08 1.47576e-10
-0.0295009 -1.35525e-20 0.00213468 1.1347e-06
0.0295009 6.77626e-21 0.00213468 1.20231e-10
-0.029587 1.35525e-20 0.000650836 9.40922e-07
0.0295871 -2.71051e-20 0.00065131 1.11245e-10
-0.0295378 1.35525e-20 0.00203786 1.09228e-06
0.0295378 1.35525e-20 0.00203793 1.13167e-10
-0.029584 -2.71051e-20 0.00130565 7.73642e-07
0.0295841 0 0.00130618 6.95475e-11
-0.0295849 -1.35525e-20 0.00192058 8.74815e-07
0.0295849 6.77626e-21 0.00192076 8.66099e-11
0.029649 0 0.00216152 1.37163e-10
-0.029649 0 0.00216152 1.30677e-06
-0.0297926 4.51751e-22 0.000963661 9.19775e-07
0.0297927 1.807e-21 0.000964146 8.39887e-11
-0.0298093 -1.35525e-20 7.62609e-08 7.13314e-07
0.0298093 -2.71051e-20 7.62598e-08 8.93682e-11
-0.0298204 9.03502e-22 0.000317447 7.32422e-07
0.0298205 1.12938e-21 0.000317662 9.5204e-11
-0.0297852 -4.51751e-22 0.00156826 6.68381e-07
0.0297852 1.807e-21 0.00156862 6.30004e-11
-0.0297946 5.0822e-21 0.00197115 1.0568e-06
0.0297946 3.38813e-21 0.0019713 9.61818e-11
-0.029885 -3.38813e-21 8.57338e-08 8.83756e-07
0.0298851 -3.38813e-21 8.5738e-08 1.36351e-10
0.0298185 -6.77626e-21 0.00219226 1.25079e-10
-0.0298186 -2.71051e-20 0.00219226 1.28955e-06
-0.0299229 0 0.00221118 1.56965e-06
0.0299229 -1.35525e-20 0.00221118 1.60868e-10
-0.0300582 0 1.01023e-07 1.51516e-06
0.0300583 0 1.01025e-07 2.95726e-10
-0.030042 0 0.00125419 8.66833e-07
0.0300421 -9.03502e-21 0.00125463 6.86956e-11
-0.030023 7.7443e-21 0.00171052 8.73126e-07
0.0300231 -4.84019e-21 0.0017108 7.38147e-11
-0.0300766 0 0.00065666 1.11143e-06
0.0300767 4.51751e-21 0.000657051 1.4752e-10
-0.0301411 -6.77626e-21 0.000117994 1.42468e-06
0.0301411 6.77626e-21 0.000117999 2.65904e-10
-0.030143 0 9.36904e-08 1.42788e-06
0.0301431 0 9.3697e-08 2.66832e-10
-0.0300722 1.35525e-20 0.00223823 1.81191e-06
0.0300722 -1.35525e-20 0.00223824 1.70831e-10
-0.0302709 -1.35525e-20 0.000327812 1.66416e-06
0.0302709 0 0.000327976 3.25595e-10
-0.0302588 0 0.000959195 1.16876e-06
0.0302588 0 0.000959517 9.47824e-11
-0.0302233 -2.25875e-21 0.00199374 1.77372e-06
0.0302233 -1.12938e-21 0.00199386 1.51145e-10
-0.0302513 0 0.00155258 8.92375e-07
0.0302514 0 0.00155284 7.32643e-11
0.0303944 -1.01644e-20 0.00229663 1.9062e-10
-0.0303944 0 0.00229664 2.11576e-06
-0.0305071 -3.38813e-21 4.03686e-05 2.05385e-06
0.0305071 3.38813e-21 4.03653e-05 3.67132e-10
-0.0305084 0 2.78813e-08 2.0561e-06
0.0305085 0 2.78788e-08 3.67635e-10
-0.0305355 0 2.44807e-08 2.1629e-06
0.0305355 -3.38813e-21 2.44807e-08 3.90676e-10
0.030464 0 0.00230926 1.97443e-10
-0.030464 3.38813e-20 0.00230926 2.17616e-06
0.0305559 -3.38813e-21 2.5605e-08 3.84144e-10
-0.0305559 0 2.56056e-08 2.14026e-06
0.0305566 0 2.16951e-05 3.84542e-10
-0.0305566 0 2.17024e-05 2.14186e-06
-0.0305496 7.05861e-23 0.00065626 1.65415e-06
0.0305496 -1.41172e-22 0.000656486 2.44738e-10
-0.0305132 0 0.00170668 1.28626e-06
0.0305132 3.76459e-22 0.00170684 1.01938e-10
-0.0305476 -1.12938e-22 0.00124506 9.79102e-07
0.0305476 -2.25875e-22 0.00124529 7.99518e-11
-0.030501 -6.77626e-21 0.00231596 2.24023e-06
0.030501 0 0.00231596 1.9921e-10
0.0306237 0 3.57389e-08 3.97926e-10
-0.0306238 0 3.5746e-08 2.26467e-06
-0.0306099 0 0.0021928 2.28995e-06
0.03061 0 0.00219279 1.9113e-10
-0.0307225 -3.38813e-21 0.00235612 2.49146e-06
0.0307226 0 0.00235614 2.16295e-10
-0.0308383 2.71051e-20 0.000320901 2.75497e-06
0.0308383 5.42101e-20 0.000320968 4.48975e-10
-0.0308116 -2.25875e-21 0.00198356 2.20485e-06
0.0308116 1.12938e-21 0.00198362 1.65585e-10
-0.0309907 0 0.0010195 8.58001e-07
0.0309907 -2.71051e-21 0.00101961 7.88401e-11
-0.0309922 0 0.00150595 6.57371e-07
0.0309922 4.51751e-21 0.00150605 4.97578e-11
-0.0310394 0 9.17162e-08 3.06629e-06
0.0310395 0 9.17132e-08 4.80634e-10
-0.0310415 0 0.000119361 3.09227e-06
0.0310416 0 0.000119404 4.86605e-10
-0.030965 0 0.00240008 2.80133e-06
0.030965 0 0.00240009 2.34815e-10
-0.030982 0 0.00237269 2.79891e-06
0.030982 0 0.00237271 2.33548e-10
0.0310104 6.77626e-21 0.00240832 2.33583e-10
-0.0310104 -6.77626e-21 0.00240832 2.84884e-06
0.0310179 6.77626e-21 0.00233587 2.19373e-10
-0.0310179 6.77626e-21 0.00233584 2.66082e-06
-0.0311223 9.03502e-21 0.000639224 1.95113e-06
0.0311223 -9.03502e-21 0.000639291 2.80134e-10
0.0310526 6.77626e-21 0.00237692 2.37823e-10
-0.0310526 6.77626e-21 0.00237691 2.8674e-06
-0.0311458 1.35525e-20 9.71539e-08 3.19484e-06
0.0311459 0 9.71521e-08 4.46405e-10
0.031071 0 0.00241931 2.42517e-10
-0.0310711 6.77626e-21 0.00241931 2.91734e-06
-0.0312091 -2.71051e-20 0.00177609 1.19111e-06
0.0312091 -2.71051e-20 0.00177613 9.27506e-11
-0.0312491 0 0.00122869 6.47166e-07
0.0312491 0 0.00122876 5.57199e-11
-0.0312857 0 8.40765e-08 3.49687e-06
0.0312858 -1.35525e-20 8.4069e-08 4.76927e-10
-0.0312916 0 0.000133791 3.52784e-06
0.0312917 1.35525e-20 0.000133817 4.80769e-10
-0.0313889 9.03502e-21 0.00201496 2.23036e-06
0.0313889 2.25875e-21 0.00201499 1.8102e-10
-0.0313958 6.77626e-21 0.00247818 3.02413e-06
0.0313958 0 0.00247818 2.59743e-10
-0.0314932 0 0.00040878 3.41647e-06
0.0314932 0 0.000408784 4.57923e-10
-0.0315059 0 0.000915866 8.17427e-07
0.0315059 -6.77626e-21 0.000915906 9.91434e-11
-0.0314281 0 0.00241762 2.96013e-06
0.0314281 0 0.00241764 2.55133e-10
-0.0315016 0 0.00151814 4.69358e-07
0.0315016 1.12938e-20 0.00151817 3.91077e-11
0.0314986 -1.35525e-20 0.00234883 2.19414e-10
-0.0314986 -1.35525e-20 0.00234879 2.55287e-06
0.0315086 0 0.00249863 2.44524e-10
-0.0315086 2.71051e-20 0.00249863 3.00401e-06
0.0316957 1.35525e-20 0.0001271 5.95649e-10
-0.0316957 0 0.000127012 4.15265e-06
0.0316993 0 1.28441e-08 5.9462e-10
-0.0316993 0 1.28327e-08 4.13752e-06
-0.0317724 0 0.000610883 2.35687e-06
0.0317724 2.71051e-20 0.000610893 3.13425e-10
-0.0317679 0 0.00121729 4.9813e-07
0.0317679 0 0.0012173 4.3202e-11
-0.0317537 0 0.00187022 1.10225e-06
0.0317537 2.71051e-20 0.00187023 8.41034e-11
0.0317093 2.71051e-20 0.00253502 2.41573e-10
-0.0317093 -2.71051e-20 0.00253502 2.82985e-06
-0.0318341 -1.35525e-20 3.55262e-10 4.29096e-06
0.0318342 1.35525e-20 3.5768e-10 6.15879e-10
0.0317532 -1.8823e-22 0.00228382 2.39055e-10
-0.0317532 -3.76459e-22 0.00228381 2.5627e-06
-0.0319513 -1.35525e-20 4.55429e-10 4.66659e-06
0.0319515 1.35525e-20 4.57735e-10 6.92607e-10
-0.0319524 1.35525e-20 0.000127633 4.71245e-06
0.0319526 0 0.000127717 6.98607e-10
-0.0318828 0 0.00256647 2.67054e-06
0.0318828 0 0.00256647 2.04237e-10
-0.0319995 4.51751e-21 0.0009146 9.39473e-07
0.0319996 4.51751e-21 0.000914606 1.189e-10
-0.0320112 0 0.000400505 4.50001e-06
0.0320112 0 0.0004005 6.61723e-10
0.0320267 -2.25875e-21 0.00227705 1.49761e-10
-0.0320267 -1.12938e-21 0.00227704 1.84449e-06
0.0320296 0 0.00251382 1.72018e-10
-0.0320296 -2.71051e-20 0.00251381 2.30905e-06
-0.0320975 2.25875e-21 0.00153739 5.05048e-07
0.0320975 -2.25875e-21 0.0015374 3.46718e-11
-0.0320427 1.35525e-20 0.00259543 2.30953e-06
0.0320427 -6.77626e-21 0.00259544 1.64332e-10
-0.0321203 -4.51751e-21 0.00203437 9.17391e-07
0.0321203 0 0.00203437 6.82146e-11
-0.032135 0 0.00238954 2.17379e-06
0.032135 0 0.00238955 1.56588e-10
0.0322923 1.35525e-20 0.000126387 7.79599e-10
-0.0322923 1.35525e-20 0.000126365 5.55398e-06
0.0323016 1.35525e-20 2.23457e-09 7.76139e-10
-0.0323016 -1.35525e-20 2.23356e-09 5.53432e-06
-0.0322103 -6.77626e-21 0.00262582 2.4372e-06
0.0322103 1.35525e-20 0.00262583 1.53203e-10
-0.0322717 0 0.00254335 2.49516e-06
0.0322718 -1.35525e-20 0.00254336 1.5718e-10
-0.032418 0 2.33101e-09 5.62215e-06
0.032418 -1.35525e-20 2.33195e-09 7.28206e-10
-0.0324263 2.25875e-21 0.000612604 3.32426e-06
0.0324263 -4.51751e-21 0.000612601 4.22212e-10
-0.0324222 -1.807e-20 0.00112452 7.47174e-07
0.0324222 -4.51751e-21 0.00112451 7.3276e-11
-0.032412 0 0.00187553 1.08542e-06
0.0324121 5.42101e-20 0.00187553 6.65814e-11
-0.0323801 0 0.0026566 3.27397e-06
0.0323802 -1.35525e-20 0.00265661 1.84858e-10
-0.0324113 1.69407e-21 0.00229689 2.01959e-06
0.0324113 1.12938e-21 0.0022969 1.26265e-10
-0.032547 1.35525e-20 2.20754e-09 5.87894e-06
0.032547 -1.35525e-20 2.20837e-09 7.18761e-10
-0.0325489 0 0.000125731 5.87878e-06
0.0325489 0 0.00012575 7.18758e-10
-0.0326035 -6.77626e-21 0.00269705 3.24003e-06
0.0326035 -6.77626e-21 0.00269706 1.69175e-10
-0.032737 2.71051e-20 0.00030837 6.20788e-06
0.032737 0 0.000308358 6.96868e-10
-0.0327282 -2.25875e-21 0.00154832 5.99947e-07
0.0327282 6.77626e-21 0.00154831 3.82173e-11
-0.0326737 -9.03502e-21 0.00254228 3.23998e-06
0.0326738 -9.03502e-21 0.00254228 1.72303e-10
-0.0327075 -1.35525e-20 0.00206775 1.26062e-06
0.0327075 -4.51751e-21 0.00206775 6.61e-11
-0.032708 -2.71051e-20 0.002716 3.41117e-06
0.0327081 0 0.00271601 1.71165e-10
-0.0328421 -9.03502e-21 0.000917741 1.39883e-06
0.0328421 0 0.000917735 1.37994e-10
-0.0328866 0 1.93643e-09 6.43174e-06
0.0328867 0 1.93682e-09 6.82706e-10
-0.032889 0 0.000149427 6.43165e-06
0.032889 1.35525e-20 0.000149442 6.82695e-10
-0.0329824 -7.7443e-21 0.000542132 4.68838e-06
0.0329824 5.80823e-21 0.00054211 4.84644e-10
-0.0330371 -2.71051e-20 1.79015e-09 6.54524e-06
0.0330372 -1.35525e-20 1.79044e-09 6.53599e-10
-0.0329464 0 0.00275916 4.33816e-06
0.0329464 0 0.00275917 2.03907e-10
-0.0329864 3.38813e-22 0.00235373 2.58711e-06
0.0329864 -1.12938e-22 0.00235373 1.29494e-10
-0.0330505 -2.71051e-20 0.00123121 7.19194e-07
0.0330505 0 0.00123119 5.80944e-11
-0.03302 -2.71051e-20 0.00190069 1.25372e-06
0.03302 2.71051e-20 0.00190069 6.9218e-11
-0.0332006 -1.35525e-20 2.0216e-09 6.85493e-06
0.0332007 -2.71051e-20 2.02177e-09 6.52637e-10
-0.0333521 2.25875e-21 0.000302612 6.53359e-06
0.0333521 -9.03502e-21 0.000302604 5.95152e-10
-0.0333579 9.03502e-21 0.000916469 1.57689e-06
0.0333579 2.25875e-21 0.000916441 1.38671e-10
0.0332522 6.77626e-21 0.00281453 1.75939e-10
-0.0332522 2.37169e-20 0.00281452 4.28451e-06
-0.0333432 4.51751e-21 0.00156281 5.82635e-07
0.0333432 9.03502e-21 0.0015628 3.68549e-11
-0.0332953 0 0.00276394 4.17625e-06
0.0332953 0 0.00276393 1.70179e-10
-0.0333121 1.35525e-20 0.00282536 4.26357e-06
0.0333121 0 0.00282536 1.72381e-10
-0.03334 -1.01644e-20 0.00259806 3.92407e-06
0.03334 -1.12938e-21 0.00259806 1.6572e-10
-0.0333776 -1.12938e-20 0.00214892 1.35109e-06
0.0333777 2.25875e-21 0.00214893 5.99408e-11
-0.0334909 0 2.97205e-09 7.32898e-06
0.0334909 -2.71051e-20 2.97158e-09 6.51394e-10
-0.0336619 -2.71051e-20 3.2006e-09 7.47291e-06
0.0336619 0 3.20002e-09 6.30391e-10
0.0336674 -2.71051e-20 0.000602311 3.63569e-10
-0.0336674 0 0.000602349 4.32715e-06
0.0336288 -2.71051e-20 0.00191753 6.05932e-11
-0.0336288 0 0.00191754 1.08471e-06
0.0336642 0 0.00123321 6.23248e-11
-0.0336642 -2.71051e-20 0.00123324 7.96325e-07
-0.0335885 -2.71051e-20 0.00287539 4.48646e-06
0.0335885 0 0.00287539 1.79898e-10
-0.0336882 0 0.0024221 2.75465e-06
0.0336883 0 0.00242211 1.13809e-10
-0.0338384 -1.35525e-20 2.82155e-09 7.83649e-06
0.0338384 1.35525e-20 2.82101e-09 6.27128e-10
0.0338129 -2.71051e-20 0.00291608 1.71596e-10
-0.033813 -1.35525e-20 0.00291609 5.32717e-06
-0.0339781 9.03502e-21 0.000302701 7.4073e-06
0.0339781 9.03502e-21 0.000302675 5.70688e-10
-0.0339808 -4.51751e-21 0.000914761 1.80931e-06
0.0339808 -4.51751e-21 0.000914701 1.36834e-10
0.0339745 -9.03502e-21 0.00155861 3.66144e-11
-0.0339745 -4.51751e-21 0.00155866 6.01131e-07
-0.0339481 -4.51751e-22 0.00267579 5.16806e-06
0.0339481 4.51751e-22 0.00267579 1.58846e-10
-0.0339879 -4.51751e-21 0.00215835 1.22806e-06
0.0339879 9.03502e-21 0.00215833 4.22226e-11
-0.0341105 -1.35525e-20 1.81923e-09 8.22299e-06
0.0341105 -1.35525e-20 1.81899e-09 6.13004e-10
0.0340317 0 0.00295577 1.57826e-10
-0.0340318 0 0.00295579 5.43676e-06
-0.0342884 -2.71051e-20 1.43984e-09 8.27151e-06
0.0342884 -2.71051e-20 1.43965e-09 5.78901e-10
-0.0342943 -2.71051e-20 0.000598991 4.8142e-06
0.0342943 2.71051e-20 0.000598921 3.4004e-10
0.0342171 -1.35525e-20 0.00298939 1.45495e-10
-0.0342172 2.71051e-20 0.0029894 5.21594e-06
0.0342949 0 0.00244804 8.08979e-11
-0.0342949 -2.71051e-20 0.00244805 2.7396e-06
-0.034362 2.12968e-20 0.00129504 7.73596e-07
0.034362 -3.87215e-21 0.00129496 5.59215e-11
-0.0343655 9.68038e-21 0.00179159 6.29758e-07
0.0343655 1.54886e-20 0.00179153 3.4269e-11
0.0343352 1.35525e-20 0.00301088 1.53468e-10
-0.0343353 1.35525e-20 0.00301088 5.74449e-06
-0.0344682 1.35525e-20 1.2842e-09 8.56621e-06
0.0344682 2.71051e-20 1.284e-09 5.55633e-10
-0.0345084 -4.51751e-21 0.000909454 1.89352e-06
0.0345084 -4.51751e-21 0.000909369 1.28337e-10
-0.034518 -1.807e-20 0.00215838 1.16252e-06
0.034518 -1.35525e-20 0.00215835 3.59134e-11
-0.0346072 -6.77626e-21 0.000300821 7.97821e-06
0.0346072 9.03502e-21 0.000300778 4.86607e-10
0.0346152 0 0.00154283 3.64664e-11
-0.0346152 0 0.00154291 5.24311e-07
0.034558 -4.51751e-22 0.00272776 1.53345e-10
-0.034558 -2.25875e-22 0.00272775 5.89472e-06
0.0345977 1.35525e-20 0.00305919 1.40593e-10
-0.0345978 0 0.0030592 5.58957e-06
-0.0347356 0 9.21309e-10 8.82219e-06
0.0347357 1.35525e-20 9.21242e-10 5.10124e-10
-0.0346831 1.35525e-20 0.00307472 5.25573e-06
0.0346831 6.77626e-21 0.00307474 1.30116e-10
-0.0349165 2.71051e-20 7.6471e-10 8.75056e-06
0.0349166 0 7.64643e-10 4.68945e-10
-0.0349264 4.51751e-21 0.000691164 3.6526e-06
0.0349264 -9.03502e-21 0.000691082 2.15886e-10
0.0349292 -2.25875e-21 0.00121438 7.08121e-11
-0.0349292 2.03288e-20 0.00121448 9.95322e-07
0.0349324 1.12938e-20 0.00185859 3.65419e-11
-0.0349324 -4.51751e-21 0.00185866 7.42671e-07
0.0348922 1.35525e-20 0.00311391 1.16416e-10
-0.0348922 -3.38813e-21 0.00311391 4.37414e-06
0.0349975 6.77626e-21 0.00246507 5.57722e-11
-0.0349975 -9.03502e-21 0.00246508 2.24902e-06
-0.0350985 0 7.01007e-10 8.97051e-06
0.0350985 1.35525e-20 7.00941e-10 4.45877e-10
-0.035002 0 0.00285808 4.03891e-06
0.035002 0 0.00285808 1.03306e-10
-0.0352406 -1.12938e-20 0.000295905 8.26632e-06
0.0352407 6.77626e-21 0.000295859 3.94549e-10
-0.0352487 0 0.00089372 1.46602e-06
0.0352487 -2.71051e-20 0.000893614 9.70886e-11
0.0351342 1.69407e-21 0.00315794 8.87763e-11
-0.0351343 0 0.00315795 4.073e-06
0.0352503 0 0.00152768 5.7267e-11
-0.0352503 0 0.00152777 6.13252e-07
-0.0351477 1.69407e-21 0.00316042 4.0534e-06
0.0351478 -1.69407e-21 0.00316043 8.79952e-11
0.0351794 0 0.00281731 7.43985e-11
-0.0351794 0 0.00281732 3.37544e-06
-0.035153 0 0.00314568 4.05032e-06
0.035153 -1.69407e-21 0.00314559 8.79678e-11
0.0352564 0 0.00217228 2.33297e-11
-0.0352564 -2.71051e-20 0.00217232 9.12875e-07
-0.0353734 -1.35525e-20 5.21809e-10 9.14374e-06
0.0353735 0 5.21779e-10 4.15149e-10
-0.0352366 -1.69407e-21 0.0031769 4.21458e-06
0.0352373 -3.38813e-21 0.00317703 8.38482e-11
-0.0353097 0 0.00290011 3.46082e-06
0.0353097 1.35525e-20 0.00290013 7.08162e-11
-0.0355532 0 4.57365e-10 8.92026e-06
0.0355533 0 4.57336e-10 4.34081e-10
0.0355671 -9.03502e-21 0.00119581 1.2482e-10
-0.0355671 -2.25875e-21 0.00119592 1.13731e-06
0.0355696 9.03502e-21 0.00184838 5.98501e-11
-0.0355696 0 0.00184845 8.5091e-07
-0.0356124 2.25875e-21 0.000622322 4.86624e-06
0.0356125 2.25875e-21 0.000622242 2.76902e-10
0.0355744 -4.51751e-21 0.00250427 4.63854e-11
-0.0355744 9.03502e-21 0.00250428 2.26561e-06
-0.035529 3.38813e-21 0.0032312 4.62947e-06
0.0355292 -3.38813e-21 0.00323122 6.74731e-11
-0.0355423 0 0.00321267 4.66268e-06
0.0355424 0 0.00321273 6.79225e-11
0.0355811 -9.03502e-21 0.00287218 6.19501e-11
-0.0355811 -9.03502e-21 0.00287218 3.86296e-06
-0.035574 3.38813e-21 0.00316175 4.5249e-06
-0.0355672 0 0.0032382 4.92733e-06
0.0355741 0 0.0031619 6.57139e-11
0.0355673 0 0.00323821 6.97889e-11
-0.0357312 -1.35525e-20 4.06834e-10 9.10297e-06
0.0357313 -1.35525e-20 4.06801e-10 3.99026e-10
-0.0356064 0 0.00321772 4.86378e-06
0.0356064 0 0.00321777 6.75723e-11
0.0356195 3.38813e-21 0.00324783 6.6761e-11
-0.0356195 3.38813e-21 0.00324784 4.91273e-06
-0.0358766 0 0.000193571 9.15933e-06
0.0358767 0 0.000193555 3.9103e-10
-0.035885 0 0.000875629 1.63726e-06
0.035885 -2.71051e-20 0.000875535 2.0333e-10
-0.0358906 2.71051e-20 0.00150725 7.81115e-07
0.0358906 -2.71051e-20 0.00150716 1.10028e-10
0.0358881 -2.71051e-20 0.00216694 4.1798e-11
-0.0358881 -2.71051e-20 0.00216698 1.06714e-06
-0.0358664 0 0.00295102 4.88476e-06
0.0358665 1.35525e-20 0.00295103 6.2116e-11
-0.0360201 -1.35525e-20 2.47881e-10 9.23722e-06
0.0360202 2.71051e-20 2.47868e-10 3.84704e-10
-0.036024 6.77626e-21 0.00332287 5.84416e-06
0.0360241 0 0.00332289 5.87674e-11
-0.0361957 0 1.96858e-10 8.95647e-06
0.0361958 0 1.96841e-10 5.08211e-10
-0.0362011 -6.77626e-21 0.000563546 5.56586e-06
0.0362011 4.51751e-21 0.000563484 3.58598e-10
-0.03606 0 0.0032685 5.88588e-06
0.0360601 -1.35525e-20 0.00326857 5.92762e-11
-0.036206 0 0.00117895 1.32625e-06
0.0362061 0 0.00117887 2.24804e-10
0.0362045 2.25875e-21 0.00184383 1.03901e-10
-0.0362045 6.77626e-21 0.00184388 1.00115e-06
0.0361888 -2.25875e-21 0.00253169 5.40157e-11
-0.0361888 -2.25875e-21 0.0025317 2.67549e-06
-0.0361316 0 0.00334265 6.42688e-06
0.0361316 -1.35525e-20 0.00334265 6.36375e-11
0.0361687 -6.77626e-21 0.00293434 5.34435e-11
-0.0361687 9.03502e-21 0.00293434 4.762e-06
0.0361567 6.77626e-21 0.00314741 5.42731e-11
-0.0361567 0 0.00314727 5.33784e-06
-0.0363723 0 1.67562e-10 9.20904e-06
0.0363723 1.35525e-20 1.67547e-10 4.00389e-10
0.0362562 0 0.00328574 5.6807e-11
-0.0362563 2.71051e-20 0.00328569 6.22321e-06
0.0363065 6.77626e-21 0.00337454 5.45941e-11
-0.0363067 1.35525e-20 0.00337456 6.35187e-06
-0.0365138 0 0.000190564 9.28999e-06
0.0365138 0 0.000190552 3.91023e-10
-0.0365218 2.71051e-20 0.000861999 1.80874e-06
0.0365219 2.71051e-20 0.000861929 3.30914e-10
-0.0365244 0 0.00149847 1.00217e-06
0.0365244 0 0.00149841 1.86236e-10
0.0365145 0 0.00218148 6.55993e-11
-0.0365145 0 0.00218151 1.12295e-06
-0.0364788 0 0.00289752 4.22054e-06
0.0364788 1.35525e-20 0.00289755 4.28371e-11
-0.0366526 0 8.42588e-11 9.39092e-06
0.0366527 0 8.42553e-11 3.81491e-10
-0.036569 -5.42101e-21 0.00323416 6.38138e-06
0.036569 1.35525e-20 0.00323419 5.12259e-11
-0.0365532 0 0.00341957 6.47996e-06
0.0365533 -1.35525e-20 0.00341959 4.88948e-11
-0.0367898 1.35525e-20 0.000598955 5.32471e-06
0.0367898 0 0.000598917 3.53378e-10
-0.036834 0 5.5588e-11 9.15385e-06
0.0368341 0 5.55862e-11 4.9353e-10
-0.0368407 -4.51751e-21 0.00116968 1.58301e-06
0.0368407 4.51751e-21 0.00116963 2.45525e-10
0.0368348 -4.51751e-21 0.00184465 1.33989e-10
-0.0368348 6.77626e-21 0.00184468 1.21162e-06
0.0368045 1.35525e-20 0.00255346 5.74562e-11
-0.0368045 -1.35525e-20 0.00255346 2.36404e-06
0.0367777 -2.71051e-20 0.00346047 5.44387e-11
-0.0367777 2.71051e-20 0.00346047 6.60731e-06
-0.0368393 4.51751e-22 0.00303407 4.6426e-06
0.0368393 1.35525e-21 0.00303408 3.98292e-11
-0.0370199 1.35525e-20 4.78303e-11 9.60024e-06
0.0370199 -1.35525e-20 4.78279e-11 3.34019e-10
-0.0371489 -2.25875e-21 0.000281507 8.89356e-06
0.0371489 -9.03502e-21 0.000281494 3.07761e-10
0.0371548 0 0.000855626 2.16951e-10
-0.0371548 -2.71051e-20 0.000855666 2.06549e-06
0.0371549 2.71051e-20 0.00149516 1.88371e-10
-0.0371549 0 0.00149519 1.35063e-06
0.0371441 0 0.00218077 8.46551e-11
-0.0371441 0 0.00218078 1.34281e-06
0.0370564 6.77626e-21 0.00351129 5.04085e-11
-0.0370564 -2.03288e-20 0.0035113 8.24869e-06
0.03727 0 2.98638e-11 3.07071e-10
-0.03727 0 2.9863e-11 9.83227e-06
-0.0371712 2.71051e-20 0.00278261 1.76769e-06
0.0371713 0 0.00278261 2.16748e-11
-0.0371159 -1.35525e-20 0.00352215 8.34421e-06
0.037116 -1.69407e-20 0.00352218 4.99359e-11
-0.0371348 4.51751e-21 0.00333173 7.61653e-06
0.0371348 0 0.00333177 4.7894e-11
-0.0374605 0 2.22234e-11 9.58047e-06
0.0374605 0 2.22235e-11 3.92908e-10
-0.0374674 0 0.000637841 4.87767e-06
0.0374674 1.35525e-20 0.000637823 2.73479e-10
0.0374702 -6.77626e-21 0.00116461 2.22004e-10
-0.0374702 4.51751e-21 0.00116464 1.93776e-06
0.0374665 -1.12938e-21 0.00183966 1.59538e-10
-0.0374665 0 0.00183967 1.58488e-06
-0.0374682 -3.38813e-21 0.00249666 1.76065e-06
0.0374682 1.12938e-21 0.00249666 6.49438e-11
-0.0374675 4.51751e-21 0.00307365 5.23698e-06
0.0374675 1.88079e-37 0.00307365 4.02604e-11
-0.0374246 2.71051e-20 0.00357844 7.89401e-06
0.0374247 1.35525e-20 0.00357845 5.19078e-11
-0.0376529 -2.71051e-20 1.86806e-11 1.01553e-05
0.0376529 -1.35525e-20 1.86807e-11 2.70626e-10
-0.0377742 1.12938e-20 0.000280154 9.41815e-06
0.0377742 6.77626e-21 0.000280151 2.56149e-10
-0.0377819 0 0.000851859 2.34589e-06
0.0377819 2.71051e-20 0.00085184 2.22525e-10
0.0377838 0 0.00149135 2.32983e-10
-0.0377838 5.42101e-20 0.00149136 1.8597e-06
-0.0376598 6.77626e-21 0.00362112 1.00139e-05
0.0376599 1.35525e-20 0.00362114 6.67429e-11
0.0377819 -2.71051e-20 0.00216934 1.27242e-10
-0.0377819 0 0.00216935 1.77321e-06
0.0377773 -5.42101e-20 0.00279682 3.3608e-11
-0.0377773 -2.71051e-20 0.00279681 2.17023e-06
0.0378849 0 1.07538e-11 2.47836e-10
-0.0378849 0 1.07533e-11 1.03359e-05
-0.0377229 -1.35525e-20 0.00353461 1.03261e-05
0.037723 -6.77626e-21 0.00353476 6.84474e-11
-0.0377797 -1.12938e-21 0.00335602 9.07246e-06
0.0377798 0 0.00335605 6.13311e-11
0.0377789 0 0.00364262 7.17572e-11
-0.037779 -6.77626e-21 0.00364263 1.0179e-05
-0.0380777 2.71051e-20 7.23455e-12 1.00495e-05
0.0380777 0 7.23493e-12 3.5741e-10
-0.0380891 9.03502e-21 0.000630694 5.39138e-06
0.0380891 0 0.00063069 3.53448e-10
-0.0380959 -2.25875e-21 0.00115829 2.4781e-06
0.0380959 4.51751e-21 0.00115829 3.3964e-10
0.0380968 3.38813e-21 0.0018338 2.42427e-10
-0.0380968 -2.25875e-21 0.0018338 2.1596e-06
-0.0379952 -1.35525e-20 0.00368181 9.25295e-06
0.0379952 1.35525e-20 0.00368182 7.36006e-11
-0.0380943 1.12938e-21 0.00250862 2.13067e-06
0.0380943 -2.25875e-21 0.00250862 1.03643e-10
-0.0380787 4.51751e-21 0.0030417 4.63951e-06
0.0380786 -4.51751e-21 0.00304173 5.29873e-11
-0.0382652 -1.35525e-20 6.08684e-12 1.05175e-05
0.0382652 -1.35525e-20 6.08729e-12 2.16131e-10
-0.0381485 0 0.00370958 9.78253e-06
0.0381486 6.77626e-21 0.0037096 8.65224e-11
-0.0383423 0 0.000233962 9.99364e-06
0.0383424 -4.51751e-21 0.000233961 2.25657e-10
-0.0384028 0 0.000843267 2.89537e-06
0.0384028 -2.71051e-20 0.000843267 4.7537e-10
0.03841 -2.71051e-20 0.00148247 3.98014e-10
-0.03841 -2.71051e-20 0.00148247 2.65947e-06
0.0384072 0 0.00217116 2.09007e-10
-0.0384072 -5.42101e-20 0.00217116 2.34058e-06
-0.0383453 4.51751e-22 0.00341218 8.92522e-06
0.0383454 3.16226e-21 0.0034122 8.14368e-11
0.0385067 -1.35525e-20 3.26257e-12 2.40255e-10
-0.0385067 1.35525e-20 3.26167e-12 1.05742e-05
-0.0384087 2.71051e-20 0.00283718 2.26915e-06
0.0384087 0 0.0028372 5.55696e-11
0.0383428 6.77626e-21 0.0037445 9.22388e-11
-0.0383428 6.77626e-21 0.0037445 9.32247e-06
-0.0384723 -1.35525e-20 0.00376794 8.66347e-06
0.0384723 1.35525e-20 0.00376795 8.78467e-11
0.038689 0 2.10859e-12 5.69387e-10
-0.038689 2.71051e-20 2.10763e-12 1.03481e-05
-0.0387011 2.25875e-21 0.000532365 7.21237e-06
0.0387011 2.25875e-21 0.000532366 7.97745e-10
-0.0387193 1.12938e-21 0.00114082 3.36997e-06
0.0387193 -2.25875e-21 0.00114082 9.06066e-10
-0.0387249 0 0.00181992 2.99353e-06
0.0387249 0 0.00181992 4.41144e-10
-0.0387232 2.25875e-21 0.00251541 2.50165e-06
0.0387232 -3.38813e-21 0.00251542 1.76435e-10
-0.0386563 1.35525e-20 0.00380866 7.41195e-06
0.0386563 6.77626e-21 0.00380867 8.87552e-11
0.0388555 1.35525e-20 1.85497e-12 4.50075e-10
-0.0388555 2.71051e-20 1.85378e-12 1.06221e-05
-0.0386905 0 0.00364409 7.56961e-06
0.0386905 1.35525e-20 0.00364412 8.32433e-11
0.0387735 -2.25875e-21 0.00324313 7.03796e-11
-0.0387735 -4.51751e-21 0.00324312 5.22049e-06
0.0389089 -2.71051e-21 0.000183068 4.52808e-10
-0.038909 1.35525e-20 0.000183055 1.06191e-05
0.0390203 2.71051e-20 0.000818063 1.92634e-09
-0.0390203 0 0.000818062 3.8909e-06
0.038876 0 0.00384256 8.10311e-11
-0.038876 0 0.00384255 7.21398e-06
-0.0390393 -2.71051e-20 0.00145448 3.85558e-06
0.0390393 2.71051e-20 0.00145449 7.97655e-10
0.0390375 0 0.00215195 3.6594e-10
-0.0390375 0 0.00215195 3.12651e-06
-0.038928 0 0.00385208 7.12715e-06
0.038928 -6.77626e-21 0.0038521 7.95397e-11
-0.0389527 3.38813e-21 0.00379162 7.13894e-06
0.0389528 0 0.00379157 7.72596e-11
-0.0390404 -2.71051e-20 0.00284503 2.34323e-06
0.0390404 0 0.00284504 9.15912e-11
0.0391596 -1.35525e-20 9.066e-13 1.88268e-09
-0.0391598 1.35525e-20 9.04288e-13 1.05613e-05
0.0391706 0 0.000114816 1.94995e-09
-0.0391707 -1.35525e-20 0.000114772 1.05591e-05
-0.0391098 1.12938e-20 0.00361355 6.86995e-06
0.0391098 9.03502e-21 0.00361357 6.85754e-11
0.0393055 1.35525e-20 6.52206e-13 3.40528e-09
-0.0393056 -1.35525e-20 6.49692e-13 1.0628e-05
0.0393117 -4.51751e-21 0.000500429 6.24035e-09
-0.0393117 0 0.000500434 8.07714e-06
0.0393492 1.12938e-21 0.00108804 4.60887e-09
-0.0393492 2.25875e-21 0.00108803 4.90705e-06
-0.0393637 1.12938e-21 0.00177645 4.14436e-06
0.0393637 -3.38813e-21 0.00177646 9.16035e-10
0.0394217 1.35525e-20 8.7629e-05 6.21114e-09
-0.0394218 0 8.75788e-05 1.10041e-05
0.0394266 0 6.05533e-13 6.11312e-09
-0.0394266 0 6.03128e-13 1.0989e-05
-0.0393554 -1.12938e-21 0.00249989 3.04425e-06
0.0393554 0 0.00249989 3.28702e-10
-0.0392461 0 0.0039114 8.07174e-06
0.0392465 1.69407e-21 0.00391149 1.09835e-10
-0.0393554 2.71051e-21 0.00323461 5.09395e-06
0.0393554 2.25875e-21 0.00323463 1.05433e-10
-0.0393295 0 0.00392838 8.27411e-06
0.0393297 0 0.0039284 1.16277e-10
-0.0393343 0 0.00392289 8.29385e-06
0.0393344 -1.69407e-21 0.00392294 1.16599e-10
-0.039341 0 0.00393113 8.33745e-06
0.0393412 0 0.00393114 1.1834e-10
-0.0393435 8.47033e-21 0.00390909 8.24091e-06
0.0393436 -1.69407e-21 0.00390918 1.16221e-10
-0.0393533 0 0.00392488 8.38789e-06
0.0393533 0 0.00392492 1.19182e-10
-0.0393598 0 0.003936 8.425e-06
0.0393599 0 0.00393599 1.20617e-10
0.0396051 -2.71051e-20 0.000230835 7.64091e-09
-0.0396052 0 0.000230845 1.08847e-05
0.0396385 -2.71051e-20 0.000745352 1.47486e-08
-0.0396385 0 0.000745355 6.11379e-06
0.0396943 -2.71051e-20 0.00136783 1.87697e-09
-0.0396943 0 0.00136783 5.66101e-06
-0.0396774 -2.71051e-20 0.0021149 4.08286e-06
0.0396774 2.71051e-20 0.0021149 7.00217e-10
-0.039584 3.87215e-21 0.00366033 8.58856e-06
0.039584 5.80823e-21 0.00366035 1.34193e-10
-0.0396652 -2.71051e-20 0.0028356 2.69334e-06
0.0396652 2.71051e-20 0.0028356 1.81014e-10
0.0398974 -7.52918e-21 0.000433584 5.74817e-08
-0.0398974 7.52918e-21 0.000433597 1.17109e-05
-0.0397723 1.35525e-20 0.00404307 9.92003e-06
0.0397724 1.35525e-20 0.00404309 1.99263e-10
-0.0398261 -1.35525e-20 0.00397859 1.00034e-05
0.0398262 -1.35525e-20 0.00397863 2.07896e-10
-0.0400266 0 5.89696e-14 1.45628e-05
0.0400285 -3.07049e-21 5.87113e-14 7.63946e-08
-0.0400315 0 6.38781e-07 1.45759e-05
-0.0400248 -7.52918e-22 0.000878018 1.05269e-05
0.0400248 5.0822e-21 0.000878006 3.8412e-08
-0.0400176 -6.58803e-22 0.0017143 6.08298e-06
0.0400177 -5.64689e-22 0.00171429 3.09518e-09
-0.0399832 -2.25875e-21 0.00248314 3.75089e-06
0.0399832 -1.12938e-21 0.00248314 6.29167e-10
-0.0399582 0 0.00322758 5.42656e-06
0.0399582 0 0.00322761 2.06362e-10
-0.0399279 -6.77626e-21 0.00368191 8.50699e-06
0.0399279 -4.51751e-21 0.00368193 1.97261e-10
-0.0399096 -1.35525e-20 0.00407855 9.91363e-06
0.0399096 1.35525e-20 0.00407855 2.2276e-10
0.0400594 1.35525e-20 0.00398559 2.46376e-10
-0.0400595 1.35525e-20 0.00398556 1.06665e-05
0.0403283 2.71051e-20 0.00130595 5.82264e-09
-0.0403283 0 0.00130595 8.71832e-06
-0.0403037 -5.42101e-20 0.00209219 5.46822e-06
0.0403037 -2.71051e-20 0.0020922 1.35229e-09
-0.0402835 -2.71051e-20 0.00284183 2.81219e-06
0.0402835 0 0.00284185 3.22327e-10
-0.0403926 -3.01167e-21 0.000332751 1.55985e-05
0.0403926 2.25875e-21 0.00033272 4.01085e-08
-0.0402358 0 0.0035945 7.52368e-06
0.0402359 0 0.00359453 2.32504e-10
-0.0402062 1.10114e-20 0.0041549 1.12443e-05
0.0402063 1.35525e-20 0.00415492 2.70689e-10
-0.0402146 5.0822e-21 0.00414562 1.12893e-05
0.0402147 -1.69407e-21 0.0041457 2.71999e-10
0.0402234 -8.47033e-22 0.00415933 2.76668e-10
-0.0402234 9.31736e-21 0.00415934 1.12692e-05
-0.0403023 -5.42101e-21 0.00393721 1.0707e-05
0.0403024 1.35525e-20 0.00393724 2.88039e-10
0.0405606 0 2.46956e-14 3.29681e-08
-0.0405608 -1.35525e-20 2.42881e-14 1.51171e-05
0.0406279 5.64689e-22 0.0017081 3.06239e-09
-0.0406279 -9.03502e-22 0.00170811 7.94621e-06
-0.0406701 9.03502e-22 0.000834172 1.4516e-05
0.0406701 -9.03502e-22 0.000834157 1.82039e-08
-0.0406057 3.38813e-21 0.00247151 4.69905e-06
0.0406057 -2.25875e-21 0.00247151 8.75253e-10
-0.0405666 -2.25875e-21 0.0032346 4.71281e-06
0.0405666 -2.25875e-21 0.00323462 2.84607e-10
0.0407119 1.35525e-20 1.9156e-14 2.62275e-08