# omega  POINT_DATA 14060
# x  y  z  omega
4.06576e-20 0.0106418 6.54156e-08 1042.86
-4.06576e-20 -0.0106418 6.54156e-08 1043.49
0 -0.0106418 0.000314253 932.396
1.69407e-21 0.0106418 0.000314436 931.757
-1.01644e-20 -0.0106418 0.000346253 943.649
-3.38813e-21 0.0106418 0.000346447 943.01
0 -0.0106418 0.000664285 1249.02
2.71051e-20 0.0106418 0.000664666 1248.43
-1.69407e-21 0.0106696 0.000329843 927.136
0 -0.0106696 0.000329653 927.765
-5.0822e-21 -0.0106418 0.000994701 1175.99
-1.69407e-21 0.0106418 0.000995075 1175.42
-1.69407e-21 -0.0106418 0.00102868 1190.68
1.69407e-21 0.0106418 0.00102909 1190.12
-1.35525e-20 -0.0106651 0.00100858 1172.14
1.86347e-20 0.0106651 0.00100897 1171.57
0 -0.0106418 0.00135925 1549.48
-1.35525e-20 0.0106418 0.00135964 1548.84
-3.38813e-21 -0.0106418 0.00170831 1287.74
0 0.0106418 0.00170849 1287.13
-6.77626e-21 -0.0106418 0.00174299 1281.35
2.20229e-20 0.0106418 0.0017432 1280.79
0 -0.0106634 0.00171659 1274.24
6.77626e-21 0.0106634 0.00171678 1273.62
0 0.0106417 0.002087 1338.98
0 -0.0106417 0.002087 1338.78
1.35525e-20 0.0108523 6.905e-08 962.542
2.71051e-20 -0.0108523 6.90492e-08 963.116
4.51751e-21 -0.0108537 0.000983441 1255.45
0 0.0108538 0.000983846 1254.91
-7.90564e-21 0.0109302 0.000328664 959.313
-5.64689e-21 -0.0109302 0.000328466 960.443
-9.03502e-21 -0.010876 0.00165246 1291.53
-2.25875e-21 0.010876 0.0016527 1290.05
-1.35525e-20 0.0110233 5.24961e-08 931.023
-2.03288e-20 -0.0110233 5.24971e-08 931.72
0 -0.0108444 0.00218791 909.413
-3.38813e-21 0.0108444 0.00218791 909.727
-6.77626e-21 0.010932 0.00223158 914.195
3.38813e-21 -0.010932 0.00223159 913.874
3.38813e-21 -0.0109511 0.00214941 831.885
-6.77626e-21 0.0109511 0.00214943 832.179
0 0.0111742 4.69561e-08 935.846
0 -0.0111743 4.69564e-08 936.776
-2.25875e-21 -0.0111377 0.00125157 894.447
-9.03502e-21 0.0111378 0.00125193 887.84
-6.77626e-21 -0.0111894 0.000675227 864.796
-1.01644e-20 0.0111894 0.00067554 861.327
1.35525e-20 0.0112788 0.000114381 885.225
-1.35525e-20 -0.0112788 0.000114338 886.256
0 0.0112886 3.37067e-08 882.395
1.35525e-20 -0.0112886 3.37059e-08 883.444
-6.77626e-21 -0.0111945 0.00167214 810.196
0 0.0111945 0.00167239 805.062
2.25875e-21 -0.011163 0.00198697 880.403
-5.64689e-21 0.011163 0.00198709 878.611
-2.71051e-20 0.011131 0.00233069 1200.2
0 -0.011131 0.00233069 1199.88
0 0.0114369 0.00031708 795.902
0 -0.0114369 0.00031693 797.176
-2.71051e-20 -0.011421 0.000929732 277.706
-2.71051e-20 0.011421 0.000930046 263.296
-2.71051e-20 -0.0114038 0.0015068 294.169
-2.71051e-20 0.0114039 0.00150708 277.136
-1.35525e-20 -0.0113457 0.00243752 1244.58
1.35525e-20 0.0113457 0.00243753 1244.7
-1.35525e-20 -0.0116364 1.34784e-08 812.602
-1.35525e-20 0.0116364 1.34759e-08 811.278
0 -0.0116375 9.54413e-05 813.056
0 0.0116376 9.54576e-05 811.737
0 -0.0114303 0.0024797 1375.59
-6.77626e-21 0.0114304 0.00247971 1375.68
5.64689e-21 -0.0115074 0.00225281 1244.03
4.51751e-21 0.0115075 0.00225288 1242.32
-1.35525e-20 -0.0117301 3.25942e-09 825.023
0 0.0117301 3.26008e-09 823.7
0 -0.0117195 0.000610229 530.512
-6.77626e-21 0.0117195 0.000610449 521.529
4.51751e-21 -0.0117028 0.00122422 226.445
-9.03502e-21 0.0117028 0.00122449 207.18
0 0.0118194 8.97007e-05 831.624
-1.35525e-20 -0.0118195 8.9705e-05 832.96
0 0.01182 3.03178e-09 831.794
0 -0.01182 3.03111e-09 833.131
-4.51751e-21 -0.0116772 0.0018372 551.37
2.25875e-21 0.0116772 0.00183735 535.774
0 -0.0116033 0.00256579 1817.7
2.71051e-20 0.0116033 0.00256582 1817.82
-2.71051e-20 0.0120204 0.00030712 848.419
-2.71051e-20 -0.0120205 0.000307029 849.809
0 -0.0117485 0.00263815 1891.16
-1.35525e-20 0.0117486 0.00263817 1891.11
0 -0.0120156 0.000917001 174.705
0 0.0120156 0.000917181 156.512
1.50584e-21 -0.0118318 0.00229966 1309.92
0 0.0118319 0.00229972 1301.54
0 -0.0117786 0.00256188 1879.88
0 0.0117787 0.00256192 1879.84
0 -0.0119886 0.00155401 149.387
2.71051e-20 0.0119887 0.00155417 124.749
0 -0.012032 0.00210267 369.469
0 0.012032 0.00210275 343.617
0 0.0122392 1.95024e-09 863.11
-1.35525e-20 -0.0122393 1.95023e-09 864.507
1.35525e-20 0.0122409 8.16763e-05 863.121
-1.35525e-20 -0.012241 8.16705e-05 864.517
0 -0.011987 0.00253932 2187.07
-2.71051e-20 0.0119871 0.00253936 2186.99
0 0.012321 1.74247e-09 866.891
0 -0.0123211 1.74247e-09 868.276
0 -0.0120123 0.00276923 1843.6
0 0.0120124 0.00276924 1843.31
4.51751e-21 -0.0123328 0.00060351 523.149
0 0.0123328 0.000603616 514.012
0 -0.0120725 0.00270714 1826.87
-1.35525e-20 0.0120726 0.00270715 1826.56
4.51751e-21 -0.0123288 0.00123239 147.303
2.25875e-21 0.0123288 0.00123252 127.347
1.35525e-20 0.0124027 1.58608e-09 870.671
-1.35525e-20 -0.0124029 1.58605e-09 872.061
0 0.012405 7.77949e-05 870.599
1.35525e-20 -0.0124051 7.77972e-05 871.989
9.03502e-21 -0.0123346 0.00185417 212.455
-1.12938e-21 0.0123346 0.00185426 187.713
0 -0.0121505 0.00283802 1685.11
-1.35525e-20 0.0121505 0.00283803 1684.69
-1.12938e-21 -0.0123063 0.00240165 1015.36
3.38813e-21 0.0123064 0.00240169 1002.19
-1.35525e-20 -0.0122683 0.00289782 1278.73
-1.35525e-20 0.0122684 0.00289784 1278.08
1.35525e-20 -0.0123167 0.00277203 1369.14
-1.35525e-20 0.0123167 0.00277205 1368.55
0 0.0126427 0.000300471 886.13
0 -0.0126428 0.000300435 887.526
2.71051e-20 -0.0126591 0.000913392 161.744
-2.71051e-20 0.012659 0.000913471 146.037
2.71051e-20 -0.0126618 0.00155274 101.332
0 0.0126618 0.00155281 80.637
2.71051e-20 -0.0125263 0.00271731 1089.52
0 0.0125263 0.00271734 1088.78
2.71051e-20 0.0124665 0.00299812 1117.4
-1.35525e-20 -0.0124665 0.00299814 1118.18
0 -0.0126643 0.00218644 216.716
2.71051e-20 0.0126643 0.00218649 188.836
6.77626e-21 0.0128706 4.59712e-10 909.309
-6.77626e-21 -0.0128707 4.59687e-10 910.709
0 0.0128741 6.76249e-05 909.373
-6.77626e-21 -0.0128742 6.76189e-05 910.772
-2.71051e-20 0.0125733 0.00289917 1162.81
1.35525e-20 -0.0125733 0.00289922 1163.58
1.35525e-20 0.0129417 3.22177e-10 917.387
0 -0.0129418 3.22144e-10 918.774
-1.35525e-20 0.0125996 0.00306574 1320.45
0 -0.0125996 0.00306572 1321.08
-1.12938e-21 0.0129729 0.000593308 537.207
-2.25875e-21 -0.0129729 0.000593273 545.577
0 0.0130097 3.00406e-10 923.162
-6.77626e-21 -0.0130097 3.00375e-10 924.54
0 0.0130126 6.19331e-05 923.051
0 -0.0130126 6.19352e-05 924.428
1.12938e-21 -0.0129928 0.00122118 129.486
1.12938e-21 0.0129928 0.00122123 110.613
0 -0.0127131 0.00312274 1320.54
0 0.0127131 0.00312278 1319.9
-1.35525e-20 -0.0127497 0.00301636 1323.62
-1.35525e-20 0.0127497 0.00301635 1322.97
-2.25875e-21 -0.0129973 0.00187881 135.67
-2.25875e-21 0.0129973 0.00187885 109.491
-4.96926e-21 -0.0129622 0.00258487 710.134
-9.03502e-22 0.0129622 0.0025849 690.771
2.71051e-20 -0.0129338 0.00296499 1440.87
2.71051e-20 0.0129338 0.00296502 1440.22
0 0.0132745 0.000290697 946.73
2.71051e-20 -0.0132746 0.000290697 948.108
0 0.0133097 0.000892132 150.862
0 -0.0133098 0.000892103 166.167
-6.77626e-21 -0.0129628 0.00324855 1645.75
6.77626e-21 0.0129628 0.00324857 1645.09
0 -0.0130138 0.00319442 1683.64
6.77626e-21 0.0130138 0.00319445 1682.98
0 -0.0133311 0.00153426 87.3581
5.42101e-20 0.0133311 0.0015343 63.6303
-1.35525e-20 -0.0130334 0.00328409 1832.93
0 0.0130335 0.00328412 1832.27
0 -0.0133253 0.00221294 133.118
-2.71051e-20 0.0133254 0.00221295 101.528
6.77626e-21 -0.0130971 0.00331595 1859.68
-6.77626e-21 0.0130971 0.00331598 1859
1.35525e-20 -0.0131128 0.00327452 1856.75
0 0.0131128 0.00327455 1856.08
0 0.0135215 4.37567e-11 1009.62
-6.77626e-21 -0.0135215 4.37417e-11 1011.01
6.77626e-21 0.013525 4.46982e-05 1009.77
0 -0.013525 4.46896e-05 1011.17
7.52918e-22 -0.01322 0.00300113 1354.65
2.25875e-21 0.01322 0.00300115 1341.16
0 -0.0135708 2.7414e-11 1023.38
0 0.0135708 2.74242e-11 1021.98
0 -0.0136156 2.60779e-11 1033.35
6.77626e-21 0.0136156 2.60872e-11 1031.94
6.77626e-21 -0.0136174 3.86816e-05 1033.18
0 0.0136174 3.86925e-05 1031.78
-2.25875e-21 0.013613 0.000567026 596.901
0 -0.0136131 0.000567017 609.796
-2.71051e-20 -0.0133842 0.00278357 385.228
2.71051e-20 0.0133842 0.00278359 346.465
-2.25875e-21 0.0136535 0.00118312 110.629
-5.64689e-22 -0.0136536 0.00118311 136.607
2.71051e-20 -0.0133578 0.00322878 2190
-5.42101e-20 0.0133579 0.00322881 2189.33
-2.25875e-21 -0.0136671 0.00185452 100.621
-4.51751e-21 0.0136672 0.00185453 70.5352
1.35525e-20 -0.0134202 0.00347787 1743.31
0 0.0134203 0.00347791 1742.39
0 -0.0134522 0.00343713 1734.97
0 0.0134523 0.00343717 1734.04
0 0.0139 0.000270267 1095.26
-2.71051e-20 -0.0139 0.000270258 1096.69
5.64689e-22 -0.0136756 0.0025133 215.777
0 0.0136756 0.00251332 177.314
0 -0.0134921 0.00351385 1653.75
-1.35525e-20 0.0134922 0.00351387 1652.76
-2.71051e-20 0.0139532 0.000842554 169.245
-5.42101e-20 -0.0139532 0.000842545 203.22
5.64689e-22 -0.0136462 0.00307161 1023.86
-5.64689e-22 0.0136463 0.00307162 1002.28
0 -0.0135602 0.00354792 1399.33
-6.77626e-21 0.0135603 0.00354795 1398.27
0 -0.0135939 0.00346713 1452.65
-1.35525e-20 0.013594 0.00346717 1451.6
-2.71051e-20 0.0139954 0.00147861 57.0745
0 -0.0139954 0.00147861 87.9277
5.42101e-20 -0.0139994 0.00216676 94.376
0 0.0139994 0.00216678 60.2297
0 0.0141777 1.4792e-12 1330.43
-1.69407e-21 -0.0141778 1.47682e-12 1331.71
0 0.0141787 1.2541e-05 1330.61
0 -0.0141789 1.25123e-05 1331.89
-1.69407e-21 0.0141923 1.02466e-12 1342.19
1.69407e-21 -0.0141924 1.02347e-12 1343.44
0 0.0142041 9.50757e-06 1352.11
0 -0.0142042 9.48552e-06 1353.33
0 0.0142051 1.0097e-12 1352.15
-1.69407e-21 -0.0142052 1.00857e-12 1353.36
-1.69407e-22 0.0142399 0.000510993 789.949
5.64689e-23 -0.01424 0.000510997 802.143
0 -0.0138494 0.00338134 1085.97
0 0.0138495 0.00338137 1084.72
-2.71051e-20 -0.0139915 0.00283632 230.024
5.42101e-20 0.0139915 0.00283633 181.475
0 -0.0138215 0.00367867 1164.92
-1.35525e-20 0.0138216 0.0036787 1163.73
0 0.0143091 0.00109617 131.459
2.82344e-22 -0.0143102 0.00109467 165.228
-1.35525e-20 -0.013893 0.00360484 1194.53
0 0.0138931 0.00360489 1193.33
0 -0.0143537 7.6488e-13 1290.65
-1.69407e-21 0.0143541 7.64998e-13 1289.1
-1.35525e-20 -0.0139056 0.00372066 1306.96
0 0.0139057 0.00372068 1305.77
1.41172e-21 -0.0143405 0.00177729 93.1528
-8.47033e-22 0.0143405 0.0017773 55.2714
-2.71051e-20 0.014476 0.000224599 1585.89
-5.42101e-20 -0.0144761 0.000224598 1586.96
0 -0.0139819 0.00376071 1312.33
0 0.013982 0.00376072 1311.11
0 -0.0140112 0.00368366 1313.83
1.35525e-20 0.0140113 0.0036837 1312.61
1.12938e-21 -0.0143223 0.00249857 135.394
1.69407e-21 0.0143224 0.00249858 94.1417
-2.71051e-20 0.014582 0.000746675 224.964
2.71051e-20 -0.0145821 0.000746673 239.287
1.807e-21 -0.0142718 0.00323775 723.485
-4.51751e-22 0.0142719 0.00323777 689.544
0 -0.0142272 0.00361841 1468.32
2.71051e-20 0.0142272 0.00361844 1467.15
0 0.0146963 0.000425145 863.328
3.01167e-21 -0.0146964 0.000425144 869.066
0 0.0146847 0.00134648 62.2104
0 -0.0146847 0.00134648 118.291
0 0.014768 2.53725e-05 1192.44
0 -0.0147681 2.54118e-05 1194.27
0 0.0147706 9.09601e-14 1193.14
0 -0.0147706 9.09569e-14 1194.96
-6.77626e-21 0.0148059 6.69883e-15 1141.58
0 -0.014806 6.66559e-15 1143.4
0 -0.014659 0.00210816 74.9543
0 0.014659 0.00210816 42.7058
-6.77626e-21 -0.0142865 0.00391553 1727.23
0 0.0142866 0.00391558 1726.31
0 -0.0143135 0.00388585 1745.87
-6.77626e-21 0.0143136 0.00388592 1744.94
0 0.0148347 4.54511e-05 1086.56
0 -0.0148348 4.55279e-05 1088.36
0 0.0148461 5.76636e-15 1084.87
0 -0.0148463 5.73764e-15 1086.67
0 -0.0143216 0.00393365 1821.21
0 0.0143217 0.00393369 1820.25
-6.77626e-21 -0.0143519 0.00395506 1830.9
6.77626e-21 0.0143519 0.00395508 1829.93
0 -0.014364 0.00393203 1830.44
0 0.0143641 0.00393207 1829.47
-2.71051e-20 -0.014635 0.00283843 138.579
0 0.014635 0.00283845 89.3325
8.47033e-21 0.0144995 0.00366943 1347.21
8.47033e-22 0.0145102 0.00366649 1343.32
5.64689e-22 -0.0145197 0.00367384 1362.73
2.71051e-20 0.0150122 0.000330156 734.002
0 -0.0150123 0.000330152 736.492
1.69407e-21 0.0145873 0.00370018 1306.59
-2.71051e-20 -0.0146766 0.00345532 418.717
5.42101e-20 0.0146766 0.00345534 344.205
1.69407e-22 0.0150077 0.00170828 55.142
-5.64689e-22 -0.0150077 0.00170827 96.8246
6.32451e-21 0.0150925 0.000854694 304.974
9.93852e-21 -0.0150925 0.000854681 326.55
5.42101e-20 -0.0146272 0.00391091 2198.77
0 0.0146272 0.00391095 2198.07
1.01644e-21 -0.0149891 0.00242097 99.9125
-1.24231e-21 0.0149891 0.00242099 59.2335
8.47033e-22 -0.0149586 0.00315962 260.805
-3.76459e-22 0.0149587 0.00315962 203.756
-6.77626e-21 -0.014702 0.00420283 1816.12
0 0.0147021 0.00420291 1815.1
-6.77626e-21 -0.0152975 8.17222e-05 610.444
-6.77626e-21 0.0152978 8.14897e-05 606.719
-6.77626e-21 -0.0147323 0.00417569 1814.92
0 0.0147325 0.0041758 1813.9
1.35525e-20 -0.015314 2.16441e-15 611.59
1.35525e-20 0.0153142 2.17317e-15 607.869
0 -0.0147475 0.004235 1789.11
0 0.0147476 0.00423506 1788.11
0 -0.014778 0.00425658 1841.26
-6.77626e-21 0.0147781 0.00425663 1840.25
0 -0.014793 0.00422587 1838.48
6.77626e-21 0.0147931 0.00422594 1837.47
0 0.0153882 1.38149e-16 561.147
0 -0.0153882 1.36928e-16 565.097
1.35525e-20 0.0154217 0.000114547 513.656
-6.77626e-21 -0.0154218 0.000114884 517.798
0 -0.0149638 0.00384024 1145.92
-9.41148e-22 0.0149638 0.00384027 1114.21
-6.77626e-21 0.0154552 2.28099e-16 511.353
-6.77626e-21 -0.0154554 2.28503e-16 515.495
0 -0.0148468 0.00430527 1867.82
6.77626e-21 0.0148469 0.00430529 1866.71
0 0.0154606 0.00140664 64.1337
-2.71051e-20 -0.0154606 0.00140663 100.17
2.71051e-20 -0.0152777 0.00281385 94.5884
0 0.0152777 0.00281386 52.8086
2.71051e-20 0.0154333 0.00193355 37.8576
-2.71051e-20 -0.0154333 0.00193355 77.0172
0 0.0156222 0.00048004 348.014
-2.71051e-20 -0.0156222 0.000480036 353.747
2.71051e-20 -0.0152555 0.00350076 225.989
2.71051e-20 0.0152556 0.00350079 157.324
-1.35525e-20 -0.0150546 0.00445233 1681.98
6.77626e-21 0.0150547 0.00445239 1680.74
0 0.0157269 1.65675e-16 425.697
6.77626e-21 -0.0157276 1.66089e-16 430.794
8.47033e-22 -0.0151604 0.00422301 1509.07
2.82344e-22 0.0151605 0.00422311 1504.79
1.35525e-20 0.0156637 0.00166709 50.4903
1.35525e-20 -0.0156637 0.00166709 88.7347
-3.38813e-22 -0.015616 0.00242546 81.864
3.38813e-22 0.015616 0.00242547 41.1152
-5.64689e-22 0.0157781 0.000921737 203.456
7.52918e-22 -0.0157782 0.000921692 224.636
5.64689e-22 -0.0155828 0.00315318 133.77
-5.64689e-22 0.0155828 0.00315319 79.2264
6.77626e-21 -0.0152441 0.00458644 1747.16
0 0.0152443 0.00458654 1745.61
-6.77626e-21 0.0159533 3.83645e-05 330.247
-6.77626e-21 -0.0159534 3.82981e-05 336.658
2.71051e-20 0.015843 0.00192285 35.0428
2.71051e-20 -0.015843 0.00192286 74.8576
0 0.0159594 2.87839e-17 330.224
-6.77626e-21 -0.0159594 2.84889e-17 336.636
-2.71051e-20 0.0159064 0.00142308 63.6627
2.71051e-20 -0.0159064 0.00142306 101.369
-1.12938e-21 -0.0155142 0.00388452 550.423
0 0.0155142 0.00388456 494.351
-1.35525e-20 -0.0153266 0.00464478 1820.1
0 0.0153267 0.00464485 1818.37
0 -0.01535 0.0046163 1800.27
-1.35525e-20 0.0153501 0.00461639 1798.55
0 -0.0153665 0.00467306 1637.67
-1.35525e-20 0.0153666 0.00467311 1636.05
-2.71051e-20 0.0160927 0.000505085 313.612
0 -0.0160928 0.000505072 320.662
-6.77626e-21 -0.0154309 0.00471863 1428.62
1.35525e-20 0.015431 0.00471864 1427.11
6.77626e-21 -0.0161373 9.11538e-18 328.267
0 0.0161376 9.31637e-18 321.294
-1.35525e-20 -0.0154622 0.00464659 1467.37
0 0.0154622 0.00464666 1465.84
-7.05861e-22 -0.0155558 0.00433293 1176.49
2.82344e-22 0.0155559 0.00433296 1144.49
0 -0.0159329 0.00276854 75.0939
0 0.0159329 0.00276855 34.0882
5.42101e-20 -0.015876 0.00349495 137.904
0 0.015876 0.00349497 72.0484
2.82344e-22 -0.0163022 0.00169287 88.4841
1.41172e-22 0.0163022 0.00169287 46.8126
5.42101e-20 -0.0158805 0.00413133 341.596
-2.71051e-20 0.0158806 0.00413135 237.982
-2.71051e-20 -0.0157464 0.00463062 1327.16
2.71051e-20 0.0157465 0.00463067 1325.4
-1.35525e-20 -0.0156844 0.004898 1327.83
-1.35525e-20 0.0156845 0.0048981 1326.19
0 -0.0164403 0.000192195 309.485
0 0.0164404 0.000192073 301.51
-1.35525e-20 -0.0164599 2.18737e-18 309.629
1.35525e-20 0.0164599 2.23707e-18 301.667
1.12938e-21 -0.0163055 0.00229239 73.6312
0 0.0163055 0.00229239 33.0697
0 -0.0157621 0.0048391 1358.85
1.35525e-20 0.0157621 0.00483922 1357.18
0 -0.0164587 0.00103727 203.353
6.77626e-21 0.0164587 0.00103728 178.475
1.12938e-22 -0.0162201 0.00310503 89.345
3.38813e-22 0.0162201 0.00310505 42.8624
-2.71051e-20 -0.0157673 0.00495663 1444.16
0 0.0157673 0.00495668 1442.46
1.35525e-20 0.0165552 1.89118e-18 303.436
1.35525e-20 -0.0165552 1.82985e-18 311.767
1.35525e-20 0.0158425 0.00500991 1408.95
-1.35525e-20 -0.0158425 0.00500989 1410.69
0 0.0158774 0.00492677 1420.06
0 -0.0158775 0.00492671 1421.8
-2.25875e-21 -0.0161858 0.00381853 189.137
5.64689e-22 0.0161859 0.00381855 115.163
0 0.0166929 0.000101665 295.175
1.35525e-20 -0.0166931 0.000101735 303.973
-1.35525e-20 0.0166941 -1.9757e-18 295.174
1.35525e-20 -0.0166943 -1.99904e-18 303.972
9.03502e-22 -0.0161388 0.00451629 826.886
-1.12938e-21 0.0161388 0.00451633 767.341
0 -0.0165511 0.0027628 63.6837
0 0.0165511 0.0027628 27.1184
2.71051e-20 -0.0160804 0.00488839 1521.37
0 0.0160804 0.00488844 1519.77
-5.42101e-20 -0.0165195 0.00345964 85.8929
-2.71051e-20 0.0165195 0.00345965 41.2747
0 -0.0160927 0.00518691 1646.72
0 0.0160929 0.00518705 1644.99
0 -0.0161328 0.00514885 1671.09
0 0.0161329 0.00514907 1669.3
6.77626e-21 -0.0161376 0.0052187 1758.13
6.77626e-21 0.0161377 0.00521878 1756.12
-2.71051e-20 -0.0164852 0.00415081 182.048
0 0.0164853 0.00415084 102.723
-6.77626e-21 -0.0161812 0.00524952 1754.87
-6.77626e-21 0.0161812 0.00524953 1752.71
-6.77626e-21 -0.0162 0.00521518 1756.73
0 0.0162 0.00521526 1754.59
0 0.0169483 0.00175217 38.7751
-5.42101e-20 -0.0169483 0.00175217 86.0394
-1.41172e-22 0.0168946 0.00247379 28.2579
-2.82344e-22 -0.0168959 0.00247492 67.8375
0 0.0170685 0.000542394 273.733
-5.42101e-20 -0.0170686 0.000542393 284.11
-5.64689e-22 -0.016348 0.00494369 1341.71
1.41172e-22 0.0163681 0.00495112 1271.68
8.47033e-22 -0.0168537 0.00309992 68.2065
-2.82344e-22 0.0168537 0.00309993 29.8415
0 -0.0165271 0.00473647 465.901
-2.71051e-20 0.0165271 0.0047365 339.324
5.64689e-22 -0.0168198 0.00379489 107.954
0 0.0168198 0.00379489 55.6918
0 -0.0164532 0.00518907 1994.99
0 0.0164532 0.0051891 1992.65
-1.35525e-20 -0.0164986 0.00547411 1682.13
1.35525e-20 0.0164987 0.0054742 1679.67
0 -0.0168074 0.0044544 256.425
-3.38813e-21 0.0168075 0.00445442 166.431
1.35525e-20 -0.0165401 0.00543882 1680.99
1.35525e-20 0.0165402 0.00543896 1678.56
2.71051e-20 0.0171982 0.00274291 22.9243
-2.71051e-20 -0.0171982 0.00274291 61.0091
0 -0.0165562 0.00551488 1655.87
0 0.0165562 0.0055149 1653.56
0 -0.0171475 0.00343443 62.8804
5.42101e-20 0.0171475 0.00343443 28.3214
0 0.0165954 0.00554259 1721.13
-1.35525e-20 -0.0165954 0.00554261 1723.44
0 0.0166162 0.00550295 1716.89
-1.35525e-20 -0.0166162 0.00550291 1719.2
8.47033e-23 -0.0167942 0.00511228 1072
-6.27432e-22 0.0168034 0.00511576 1003.06
0 0.0166838 0.00560512 1757.24
-6.77626e-21 -0.0166839 0.00560521 1759.58
-5.42101e-20 -0.0171381 0.00410853 102.294
0 0.0171382 0.00410853 51.435
6.77626e-21 -0.0176356 5.15747e-05 269.85
-6.77626e-21 0.0176356 5.15594e-05 258.561
0 -0.0176365 -8.88394e-19 269.838
0 0.0176365 -8.80501e-19 258.549
-1.12938e-21 -0.0176257 0.00114318 178.884
0 0.0176257 0.00114318 149.259
-6.77626e-21 0.017701 -1.17471e-20 255.72
0 -0.017701 -1.19998e-20 267.135
0 0.0177564 5.70206e-05 252.996
6.77626e-21 -0.0177564 5.70366e-05 264.524
0 -0.0174948 0.00304299 61.5976
-7.05861e-23 0.0174948 0.003043 24.1791
-2.71051e-20 -0.0171005 0.00478727 249.793
2.71051e-20 0.0171005 0.00478729 152.904
0 0.01776 -9.77488e-21 252.978
0 -0.01776 -9.99454e-21 264.506
-5.64689e-22 -0.0176226 0.00231708 71.5295
0 0.0176226 0.00231708 28.8694
6.77626e-21 -0.016865 0.00573336 1622.14
1.35525e-20 0.0168651 0.00573338 1619.86
-1.12938e-21 -0.0169917 0.00554745 1464.37
0 0.0169918 0.00554746 1458.92
0 -0.0175404 0.00368248 73.5799
1.12938e-21 0.0175404 0.00368248 33.8576
-5.64689e-22 -0.0174309 0.00445116 139.664
5.64689e-22 0.0174309 0.00445117 76.5333
1.35525e-20 -0.0170276 0.00584842 1665.1
0 0.0170278 0.0058485 1662.42
-3.38813e-21 -0.0173594 0.00515914 521.062
2.25875e-21 0.0173594 0.00515917 448.475
1.35525e-20 -0.0171315 0.00592198 1749.87
0 0.0171316 0.00592202 1746.99
-1.35525e-20 -0.0171628 0.0058861 1725.1
2.71051e-20 0.0171629 0.00588616 1722.23
0 -0.0171821 0.00595789 1528.68
-1.35525e-20 0.0171822 0.00595791 1525.72
2.71051e-20 -0.017769 0.00410415 69.2285
0 0.017769 0.00410415 33.0663
-5.42101e-20 -0.0182634 0.000578943 251.115
-1.0842e-19 0.0182634 0.000578939 238.711
0 0.0173972 0.0056105 1064
0 -0.0173983 0.00561199 1105.08
0 -0.0172648 0.00601707 1289.77
0 0.0172648 0.00601705 1286.59
-1.35525e-20 -0.0173077 0.00592609 1331.88
0 0.0173077 0.00592612 1328.76
0 0.0182204 0.00175681 39.1456
5.42101e-20 -0.0182204 0.00175681 88.7945
-5.42101e-20 -0.0177285 0.00478169 137.88
5.42101e-20 0.0177285 0.0047817 69.561
5.42101e-20 -0.0181282 0.00306192 55.6793
-5.42101e-20 0.0181282 0.00306192 17.5682
9.88205e-22 0.0181211 0.00374048 24.537
-7.05861e-22 -0.0181211 0.00374048 60.2677
-5.42101e-20 -0.0177324 0.00540771 329.594
2.71051e-20 0.0177325 0.00540772 218.901
-2.71051e-20 -0.0174849 0.00617225 1165.16
1.35525e-20 0.0174849 0.00617229 1161.44
0 -0.0175758 0.00590987 1184.35
0 0.0175758 0.00590988 1180.59
-5.64689e-22 -0.0180729 0.00442473 84.9162
0 0.0180729 0.00442474 40.3959
0 -0.0175826 0.00610029 1186.97
-1.35525e-20 0.0175826 0.00610033 1183.25
0 -0.0175873 0.00624642 1254.7
2.71051e-20 0.0175873 0.00624644 1250.97
-1.12938e-21 -0.018047 0.00508937 176.869
-1.69407e-21 0.018047 0.00508938 103.087
0 0.017673 0.00632955 1191.46
0 -0.017673 0.00632954 1195.29
-2.71051e-20 0.0177235 0.00621993 1207.2
0 -0.0177235 0.00621991 1211.02
0 0.0188362 3.90693e-05 237.632
-6.77626e-21 -0.0188362 3.90686e-05 250.8
-6.77626e-21 -0.0188376 -1.39629e-21 250.802
6.77626e-21 0.0188376 -1.37533e-21 237.635
-2.71051e-20 0.0184191 0.00406131 21.5375
2.71051e-20 -0.0184191 0.0040613 55.3685
0 -0.0188782 -3.44889e-23 250.753
6.77626e-21 0.0188782 -3.56432e-23 237.525
-5.64689e-22 -0.0188457 0.00115779 171.386
5.64689e-22 0.0188457 0.00115779 139.068
-3.61401e-21 -0.017989 0.00579611 709.443
-2.71051e-21 0.017989 0.00579611 643.959
0 -0.0189173 3.90222e-05 250.632
6.77626e-21 0.0189173 3.90242e-05 237.348
6.77626e-21 -0.0189184 -4.2274e-23 250.632
6.77626e-21 0.0189184 -4.34052e-23 237.348
8.47033e-22 -0.0188016 0.00239367 73.3503
2.82344e-22 0.0188016 0.00239367 27.597
2.71051e-20 -0.0179168 0.00619826 1253.63
0 0.0179168 0.00619827 1249.87
0 -0.0178342 0.00647803 1217.8
1.35525e-20 0.0178342 0.00647805 1213.84
2.71051e-20 -0.0183812 0.00473969 78.7694
0 0.0183812 0.00473969 38.1269
0 -0.0179161 0.00640623 1237.42
2.71051e-20 0.0179161 0.00640626 1233.45
0 -0.0179071 0.00654735 1369.78
1.35525e-20 0.0179071 0.00654736 1365.85
-1.12938e-21 0.0187899 0.00359346 18.0094
-2.25875e-21 -0.0187899 0.00359346 54.1306
-2.71051e-20 -0.0183614 0.0054084 155.959
2.71051e-20 0.0183614 0.0054084 82.0079
1.35525e-20 0.0179797 0.00661798 1213.3
0 -0.0179797 0.00661798 1217.47
0 0.0180436 0.00652848 1233.53
0 -0.0180436 0.00652847 1237.67
1.41172e-22 -0.0187173 0.00436434 61.0316
-1.27055e-21 0.0187173 0.00436434 25.225
-1.50584e-21 -0.018177 0.00625308 1008.62
1.50584e-21 0.018177 0.00625308 959.978
0 -0.0181271 0.00676144 1219.72
1.35525e-20 0.0181271 0.00676146 1215.53
2.71051e-20 -0.0183874 0.00602484 411.664
-2.71051e-20 0.0183874 0.00602485 259.738
2.71051e-20 -0.0182481 0.00651393 1267.16
0 0.0182481 0.00651394 1262.85
4.94103e-22 0.0187359 0.00501818 50.3015
6.35275e-22 -0.0187359 0.00501817 100.313
-1.35525e-20 -0.0182332 0.00669844 1242.42
0 0.0182332 0.00669846 1238.26
0 -0.018217 0.00684899 1309.68
-2.71051e-20 0.0182171 0.00684899 1305.75
-5.42101e-20 -0.0194643 0.000581954 250.288
-5.42101e-20 0.0194643 0.000581956 236.229
-5.42101e-20 -0.0194401 0.00177497 91.9883
5.42101e-20 0.0194401 0.00177497 38.0294
1.12938e-21 -0.0186825 0.00571617 214.027
1.12938e-21 0.0186825 0.00571618 121.618
2.71051e-20 0.018308 0.00693726 1212.86
1.35525e-20 -0.018308 0.00693726 1216.75
0 0.018365 0.00682515 1236.85
-1.35525e-20 -0.018365 0.00682514 1240.78
0 0.0191534 0.00414674 16.3682
0 -0.0191534 0.00414674 50.1469
0 -0.0194225 0.00303969 55.6299
0 0.0194225 0.00303969 14.8355
0 0.01915 0.0045832 21.6025
0 -0.01915 0.0045832 55.1609
0 -0.0186305 0.00640894 755.565
1.807e-21 0.0186305 0.00640895 679.384
1.05879e-22 0.0193894 0.00369515 15.2119
-5.13514e-20 -0.0193886 0.00369336 51.5062
2.71051e-20 -0.0185455 0.00680231 1260.58
-2.71051e-20 0.0185455 0.00680231 1256.82
0 -0.019012 0.00537772 86.9344
-2.71051e-20 0.019012 0.00537773 42.4352
-1.35525e-20 -0.0184497 0.00707482 1215.97
-2.71051e-20 0.0184497 0.00707483 1212.06
1.35525e-20 -0.018538 0.00700337 1238.32
0 0.018538 0.00700339 1234.38
0 -0.0193613 0.00436274 51.3116
1.35525e-20 0.0193613 0.00436274 17.4501
-1.35525e-20 -0.0185249 0.0071478 1385.26
-1.35525e-20 0.0185249 0.0071478 1381.34
2.71051e-20 -0.0189858 0.00603642 185.009
0 0.0189858 0.00603643 92.8717
0 0.018601 0.00722169 1213.17
-1.35525e-20 -0.018601 0.00722169 1217.35
-1.35525e-20 0.0186688 0.00713006 1235.57
0 -0.0186688 0.00713005 1239.72
0 0.0193578 0.00503068 27.7873
-7.05861e-22 -0.0193578 0.00503068 64.3665
-2.71051e-20 -0.0195829 0.00413333 48.7242
-2.71051e-20 0.0195829 0.00413333 14.2062
6.02335e-21 -0.0188026 0.00685908 1014.78
0 0.0188026 0.00685908 965.798
-3.38813e-21 0.0200409 2.97531e-05 235.9
-3.38813e-21 -0.0200409 2.97437e-05 250.729
-3.38813e-21 0.0200414 5.6205e-24 235.9
-6.77626e-21 -0.0200414 5.63319e-24 250.729
-6.77626e-21 -0.020072 -1.60504e-25 250.736
-6.77626e-21 0.020072 -1.56925e-25 235.867
-1.12938e-21 0.0200566 0.00116432 138.028
-1.12938e-21 -0.0200566 0.00116432 173.871
0 -0.0195648 0.00457553 50.5639
0 0.0195648 0.00457553 16.8796
0 -0.020102 2.93804e-05 250.742
-6.77626e-21 0.020102 2.93892e-05 235.833
0 -0.0201024 -1.7309e-25 250.742
-3.38813e-21 0.0201024 -1.69595e-25 235.833
2.71051e-20 -0.0187404 0.00735707 1220.31
0 0.0187404 0.00735708 1216.14
0 -0.0190162 0.00663681 417.499
2.82344e-21 -0.0193208 0.00568921 105.792
1.12938e-21 0.0193208 0.00568921 51.1544
0 0.0190162 0.00663681 263.993
-2.71051e-20 -0.0188683 0.00711623 1265.47
-2.71051e-20 0.0188683 0.00711623 1261.16
5.64689e-22 0.0200437 0.0023892 26.4064
-5.64689e-22 -0.0200437 0.0023892 76.3283
-1.35525e-20 -0.0188522 0.00729488 1245.37
-1.35525e-20 0.0188522 0.0072949 1241.23
1.35525e-20 -0.0188339 0.00744777 1317.88
-2.71051e-20 0.0188339 0.00744777 1313.96
2.25875e-21 -0.0193083 0.00633279 225.72
-5.64689e-22 0.0193083 0.00633279 126.092
0 -0.0196626 0.005336 57.8459
-2.71051e-20 0.0196626 0.005336 24.6276
0 0.0189281 0.00753929 1219.93
-2.71051e-20 -0.0189281 0.0075393 1223.82
1.35525e-20 0.018987 0.00742577 1244.41
0 -0.018987 0.00742576 1248.33
-5.64689e-21 0.0200608 0.00364085 13.4446
2.25875e-21 -0.0200608 0.00364085 51.635
0 -0.0200043 0.00434223 48.2813
0 0.020005 0.00434221 14.0495
-9.03502e-22 -0.0192547 0.00701653 763.174
0 0.0192547 0.00701654 685.955
2.71051e-20 -0.0196313 0.0059969 94.2999
-2.71051e-20 0.0196313 0.0059969 44.9344
2.71051e-20 -0.019165 0.00740556 1273.62
-2.71051e-20 0.019165 0.00740556 1269.9
-1.35525e-20 -0.0190666 0.0076737 1233.18
1.35525e-20 0.0190666 0.00767372 1229.3
-1.35525e-20 -0.0191579 0.00760273 1258.55
-1.35525e-20 0.0191579 0.00760276 1254.64
-1.35525e-20 -0.0191443 0.00774911 1416.41
0 0.0191443 0.00774911 1412.54
2.25875e-21 0.0200588 0.00492596 18.3326
-4.51751e-21 -0.0200588 0.00492596 52.0813
5.42101e-20 0.0206698 0.000582857 235.498
-5.42101e-20 -0.0206698 0.000582861 251.186
0 -0.0196174 0.00664558 190.107
-2.71051e-20 0.0196174 0.00664558 93.1208
5.42101e-20 0.0206614 0.00177612 38.5528
-5.42101e-20 -0.0206614 0.00177612 99.04
5.64689e-22 -0.0199641 0.0056435 66.6508
-9.88205e-22 0.0199641 0.00564351 28.9802
0 0.0192227 0.00782524 1243.15
0 -0.0192227 0.00782524 1247.29
0 0.019291 0.00773359 1265.45
1.35525e-20 -0.019291 0.00773358 1269.56
-6.02335e-21 -0.0194227 0.0074662 1036.68
0 0.0194227 0.00746621 987.895
0 -0.0206623 0.00301958 57.8897
0 0.0206623 0.00301958 13.7321
-2.71051e-20 -0.0196377 0.00724853 429.757
2.71051e-20 0.0196377 0.00724854 277.617
0 -0.0193612 0.00795969 1261.34
2.71051e-20 0.0193612 0.00795972 1257.22
-2.11758e-22 0.0199857 0.00626967 57.1195
-7.76447e-22 -0.0199857 0.00626967 117.86
-2.71051e-20 -0.0194876 0.00772288 1304.42
0 0.0194876 0.00772289 1300.15
-1.35525e-20 -0.0194741 0.00789919 1289.32
2.71051e-20 0.0194741 0.00789922 1285.24
1.35525e-20 -0.0194568 0.00805247 1367.1
0 0.0194568 0.00805249 1363.3
-5.42101e-20 -0.020646 0.00431688 45.1061
5.42101e-20 0.020646 0.00431688 10.6332
-1.69407e-21 -0.0199324 0.00695123 236.976
0 0.0199324 0.00695124 131.871
0 0.0204014 0.00542818 17.2894
-5.42101e-20 -0.0204014 0.00542818 50.9816
-1.35525e-20 -0.0195522 0.0081451 1272.45
-1.35525e-20 0.0195522 0.0081451 1268.67
-2.71051e-20 -0.0196102 0.00803323 1297.71
0 0.0196102 0.00803325 1293.9
0 -0.0206227 0.00497844 48.0442
0 0.0206227 0.00497844 14.2102
2.71051e-20 0.0203983 0.00584945 23.5626
0 -0.0203983 0.00584945 55.0922
2.75286e-21 0.0206336 0.00497828 14.1668
-6.35275e-22 -0.0206336 0.00497828 47.987
0 0.0212528 2.19599e-05 236.598
0 -0.0212528 2.19439e-05 253.378
3.38813e-21 0.0212529 7.60296e-27 236.598
3.38813e-21 -0.0212529 7.49097e-27 253.378
3.38813e-21 -0.0212756 -1.68764e-27 253.45
0 0.0212756 -1.64263e-27 236.627
4.51751e-22 -0.0198732 0.00763095 796.31
-9.03502e-22 0.0198732 0.00763097 714.045
0 -0.0212981 -1.63401e-27 253.499
0 -0.0212981 2.16273e-05 253.499
0 0.0212981 -1.61625e-27 236.634
3.38813e-21 0.0212981 2.1644e-05 236.634
-5.64689e-22 0.0212738 0.00116378 138.702
5.64689e-22 -0.0212739 0.00116378 177.903
2.71051e-20 -0.0202601 0.00662438 101.603
2.71051e-20 0.0202601 0.00662438 46.1669
0 -0.0197861 0.00801629 1332.15
0 0.0197861 0.00801631 1328.55
-1.35525e-20 0.0206092 0.00563621 18.3749
-1.35525e-20 -0.0206092 0.00563621 51.2667
-1.35525e-20 -0.0196952 0.00828391 1298.04
-1.35525e-20 0.0196953 0.00828395 1294.34
-5.64689e-22 0.0212735 0.00238449 26.3196