# omega  POINT_DATA 31572
# x  y  z  omega
0.0292381 0 8.09214e-08 1323.34
-0.0292381 0 8.09214e-08 1324.35
0.0292381 -3.38813e-21 0.000233596 1274.61
-0.0292381 3.38813e-21 0.000233441 1275.65
0.029238 -3.38813e-21 0.000431066 1381.29
-0.0292381 0 0.000430751 1382.28
0.029238 -1.35525e-20 0.000664138 1785.9
-0.029238 -6.77626e-21 0.000663676 1786.81
0.029238 -3.38813e-21 0.000908366 2099.77
-0.029238 0 0.000907922 2100.85
-0.029238 -3.38813e-21 0.00111494 2277.5
0.029238 3.38813e-21 0.00111544 2276.44
-0.029238 0 0.00135903 2538.19
0.0292379 0 0.00135951 2537.16
-0.0292379 -3.38813e-21 0.00161391 2678.63
0.0292379 0 0.00161421 2677.4
-0.0292379 3.38813e-21 0.00183185 2488.93
0.0292379 3.38813e-21 0.00183203 2488.09
0.0292379 1.35525e-20 0.002087 1763.02
-0.0292379 -1.35525e-20 0.002087 1762.5
-0.0293159 -1.01644e-20 0.000332812 1307.22
0.0293159 1.69407e-20 0.000333044 1306.17
-0.0293201 -3.38813e-21 0.00100457 2327.97
0.0293201 1.35525e-20 0.00100504 2326.88
-0.0293199 0 0.0017002 2895.44
0.0293199 3.38813e-21 0.00170046 2894.16
-0.0294721 0 0.000122211 1456.11
0.0294722 1.35525e-20 0.000122307 1455.08
-0.0294728 0 7.47975e-08 1460.22
0.0294728 0 7.47971e-08 1459.19
-0.0294797 1.35525e-20 0.000527785 1845.62
0.0294797 -1.35525e-20 0.000528144 1844.67
-0.0294753 -1.35525e-20 0.000796291 2254.39
0.0294753 1.35525e-20 0.000796753 2253.39
-0.0294755 2.03288e-20 0.00118666 2841.02
0.0294755 0 0.00118714 2839.95
-0.0294683 -1.35525e-20 0.00147414 3077.37
0.0294683 -1.35525e-20 0.00147454 3076.2
-0.0294625 -6.77626e-21 0.00186309 2486.84
0.0294626 -6.77626e-21 0.00186328 2486.68
-0.029578 1.35525e-20 6.64178e-08 1434.5
0.029578 0 6.64171e-08 1433.35
-0.0295009 -1.35525e-20 0.00213468 1571.99
0.0295009 6.77626e-21 0.00213468 1573.37
-0.029587 1.35525e-20 0.000650836 1856.32
0.0295871 -2.71051e-20 0.00065131 1849.39
-0.0295378 1.35525e-20 0.00203786 1836.13
0.0295378 1.35525e-20 0.00203793 1837.25
-0.029584 -2.71051e-20 0.00130565 2577.31
0.0295841 0 0.00130618 2564.67
-0.0295849 -1.35525e-20 0.00192058 1952.82
0.0295849 6.77626e-21 0.00192076 1937.61
0.029649 0 0.00216152 1849.41
-0.029649 0 0.00216152 1848.44
-0.0297926 4.51751e-22 0.000963661 2994.97
0.0297927 1.807e-21 0.000964146 2987.47
-0.0298093 -1.35525e-20 7.62609e-08 1729.38
0.0298093 -2.71051e-20 7.62598e-08 1728.33
-0.0298204 9.03502e-22 0.000317447 1695.98
0.0298205 1.12938e-21 0.000317662 1693.88
-0.0297852 -4.51751e-22 0.00156826 3598.95
0.0297852 1.807e-21 0.00156862 3584.54
-0.0297946 5.0822e-21 0.00197115 2007.91
0.0297946 3.38813e-21 0.0019713 2009.23
-0.029885 -3.38813e-21 8.57338e-08 1646.08
0.0298851 -3.38813e-21 8.5738e-08 1644.96
0.0298185 -6.77626e-21 0.00219226 1520.37
-0.0298186 -2.71051e-20 0.00219226 1518.84
-0.0299229 0 0.00221118 1649.99
0.0299229 -1.35525e-20 0.00221118 1650.85
-0.0300582 0 1.01023e-07 1269.46
0.0300583 0 1.01025e-07 1268.37
-0.030042 0 0.00125419 1750.39
0.0300421 -9.03502e-21 0.00125463 1728.56
-0.030023 7.7443e-21 0.00171052 1816.81
0.0300231 -4.84019e-21 0.0017108 1789.36
-0.0300766 0 0.00065666 1412.84
0.0300767 4.51751e-21 0.000657051 1400.77
-0.0301411 -6.77626e-21 0.000117994 1220.87
0.0301411 6.77626e-21 0.000117999 1219.96
-0.030143 0 9.36904e-08 1220.59
0.0301431 0 9.3697e-08 1219.68
-0.0300722 1.35525e-20 0.00223823 1191.22
0.0300722 -1.35525e-20 0.00223824 1191.88
-0.0302709 -1.35525e-20 0.000327812 1110.22
0.0302709 0 0.000327976 1109.47
-0.0302588 0 0.000959195 1371.16
0.0302588 0 0.000959517 1355.82
-0.0302233 -2.25875e-21 0.00199374 1220.75
0.0302233 -1.12938e-21 0.00199386 1221.28
-0.0302513 0 0.00155258 1539.33
0.0302514 0 0.00155284 1523.02
0.0303944 -1.01644e-20 0.00229663 1208.82
-0.0303944 0 0.00229664 1208.47
-0.0305071 -3.38813e-21 4.03686e-05 1013.34
0.0305071 3.38813e-21 4.03653e-05 1012.63
-0.0305084 0 2.78813e-08 1012.86
0.0305085 0 2.78788e-08 1012.15
-0.0305355 0 2.44807e-08 985.103
0.0305355 -3.38813e-21 2.44807e-08 984.387
0.030464 0 0.00230926 1266.96
-0.030464 3.38813e-20 0.00230926 1266.67
0.0305559 -3.38813e-21 2.5605e-08 978.054
-0.0305559 0 2.56056e-08 978.755
0.0305566 0 2.16951e-05 978.034
-0.0305566 0 2.17024e-05 978.735
-0.0305496 7.05861e-23 0.00065626 977.441
0.0305496 -1.41172e-22 0.000656486 971.581
-0.0305132 0 0.00170668 1119.47
0.0305132 3.76459e-22 0.00170684 1111.84
-0.0305476 -1.12938e-22 0.00124506 1032.75
0.0305476 -2.25875e-22 0.00124529 1021.35
-0.030501 -6.77626e-21 0.00231596 1204.54
0.030501 0 0.00231596 1204.77
0.0306237 0 3.57389e-08 975.16
-0.0306238 0 3.5746e-08 975.847
-0.0306099 0 0.0021928 1104.22
0.03061 0 0.00219279 1104.35
-0.0307225 -3.38813e-21 0.00235612 1171.62
0.0307226 0 0.00235614 1171.68
-0.0308383 2.71051e-20 0.000320901 879.646
0.0308383 5.42101e-20 0.000320968 879.023
-0.0308116 -2.25875e-21 0.00198356 891.764
0.0308116 1.12938e-21 0.00198362 890.977
-0.0309907 0 0.0010195 590.638
0.0309907 -2.71051e-21 0.00101961 590.06
-0.0309922 0 0.00150595 594.996
0.0309922 4.51751e-21 0.00150605 592.486
-0.0310394 0 9.17162e-08 904.124
0.0310395 0 9.17132e-08 903.525
-0.0310415 0 0.000119361 901.237
0.0310416 0 0.000119404 900.633
-0.030965 0 0.00240008 1130.42
0.030965 0 0.00240009 1130.28
-0.030982 0 0.00237269 1115.16
0.030982 0 0.00237271 1115.02
0.0310104 6.77626e-21 0.00240832 1130.5
-0.0310104 -6.77626e-21 0.00240832 1130.67
0.0310179 6.77626e-21 0.00233587 1031.65
-0.0310179 6.77626e-21 0.00233584 1033.5
-0.0311223 9.03502e-21 0.000639224 724.848
0.0311223 -9.03502e-21 0.000639291 722.601
0.0310526 6.77626e-21 0.00237692 1094.61
-0.0310526 6.77626e-21 0.00237691 1094.78
-0.0311458 1.35525e-20 9.71539e-08 939.635
0.0311459 0 9.71521e-08 939.082
0.031071 0 0.00241931 1102.33
-0.0310711 6.77626e-21 0.00241931 1102.52
-0.0312091 -2.71051e-20 0.00177609 869.136
0.0312091 -2.71051e-20 0.00177613 858.369
-0.0312491 0 0.00122869 652.75
0.0312491 0 0.00122876 646.037
-0.0312857 0 8.40765e-08 919.422
0.0312858 -1.35525e-20 8.4069e-08 918.879
-0.0312916 0 0.000133791 917.992
0.0312917 1.35525e-20 0.000133817 917.449
-0.0313889 9.03502e-21 0.00201496 776.202
0.0313889 2.25875e-21 0.00201499 770.712
-0.0313958 6.77626e-21 0.00247818 1163.05
0.0313958 0 0.00247818 1162.76
-0.0314932 0 0.00040878 820.298
0.0314932 0 0.000408784 817.341
-0.0315059 0 0.000915866 417.842
0.0315059 -6.77626e-21 0.000915906 398.193
-0.0314281 0 0.00241762 1161.74
0.0314281 0 0.00241764 1161.47
-0.0315016 0 0.00151814 404.85
0.0315016 1.12938e-20 0.00151817 383.712
0.0314986 -1.35525e-20 0.00234883 1036.4
-0.0314986 -1.35525e-20 0.00234879 1040.09
0.0315086 0 0.00249863 1280.94
-0.0315086 2.71051e-20 0.00249863 1281.26
0.0316957 1.35525e-20 0.0001271 862.741
-0.0316957 0 0.000127012 863.316
0.0316993 0 1.28441e-08 862.851
-0.0316993 0 1.28327e-08 863.425
-0.0317724 0 0.000610883 595.446
0.0317724 2.71051e-20 0.000610893 584.32
-0.0317679 0 0.00121729 355.223
0.0317679 0 0.0012173 337.372
-0.0317537 0 0.00187022 711.875
0.0317537 2.71051e-20 0.00187023 692.904
0.0317093 2.71051e-20 0.00253502 1452.19
-0.0317093 -2.71051e-20 0.00253502 1452.46
-0.0318341 -1.35525e-20 3.55262e-10 864.86
0.0318342 1.35525e-20 3.5768e-10 864.265
0.0317532 -1.8823e-22 0.00228382 1363.99
-0.0317532 -3.76459e-22 0.00228381 1364.4
-0.0319513 -1.35525e-20 4.55429e-10 850.942
0.0319515 1.35525e-20 4.57735e-10 850.308
-0.0319524 1.35525e-20 0.000127633 850.208
0.0319526 0 0.000127717 849.57
-0.0318828 0 0.00256647 1770.91
0.0318828 0 0.00256647 1770.68
-0.0319995 4.51751e-21 0.0009146 323.482
0.0319996 4.51751e-21 0.000914606 297.907
-0.0320112 0 0.000400505 759.596
0.0320112 0 0.0004005 755.724
0.0320267 -2.25875e-21 0.00227705 1460.08
-0.0320267 -1.12938e-21 0.00227704 1458.86
0.0320296 0 0.00251382 2115.12
-0.0320296 -2.71051e-20 0.00251381 2115.33
-0.0320975 2.25875e-21 0.00153739 303.844
0.0320975 -2.25875e-21 0.0015374 274.431
-0.0320427 1.35525e-20 0.00259543 2242.74
0.0320427 -6.77626e-21 0.00259544 2242.52
-0.0321203 -4.51751e-21 0.00203437 652.829
0.0321203 0 0.00203437 652.854
-0.032135 0 0.00238954 2157.43
0.032135 0 0.00238955 2157.26
0.0322923 1.35525e-20 0.000126387 821.751
-0.0322923 1.35525e-20 0.000126365 822.434
0.0323016 1.35525e-20 2.23457e-09 821.631
-0.0323016 -1.35525e-20 2.23356e-09 822.311
-0.0322103 -6.77626e-21 0.00262582 2314.23
0.0322103 1.35525e-20 0.00262583 2313.98
-0.0322717 0 0.00254335 2196.52
0.0322718 -1.35525e-20 0.00254336 2196.24
-0.032418 0 2.33101e-09 828.169
0.032418 -1.35525e-20 2.33195e-09 827.491
-0.0324263 2.25875e-21 0.000612604 523.886
0.0324263 -4.51751e-21 0.000612601 513.157
-0.0324222 -1.807e-20 0.00112452 214.717
0.0324222 -4.51751e-21 0.00112451 192.944
-0.032412 0 0.00187553 547.712
0.0324121 5.42101e-20 0.00187553 529.116
-0.0323801 0 0.0026566 1831.8
0.0323802 -1.35525e-20 0.00265661 1831.4
-0.0324113 1.69407e-21 0.00229689 1385.47
0.0324113 1.12938e-21 0.0022969 1376.78
-0.032547 1.35525e-20 2.20754e-09 836.375
0.032547 -1.35525e-20 2.20837e-09 835.686
-0.0325489 0 0.000125731 836.371
0.0325489 0 0.00012575 835.682
-0.0326035 -6.77626e-21 0.00269705 1962.21
0.0326035 -6.77626e-21 0.00269706 1961.73
-0.032737 2.71051e-20 0.00030837 842.862
0.032737 0 0.000308358 842.16
-0.0327282 -2.25875e-21 0.00154832 231.364
0.0327282 6.77626e-21 0.00154831 216.662
-0.0326737 -9.03502e-21 0.00254228 1842.27
0.0326738 -9.03502e-21 0.00254228 1841.8
-0.0327075 -1.35525e-20 0.00206775 569.942
0.0327075 -4.51751e-21 0.00206775 528.437
-0.032708 -2.71051e-20 0.002716 1914.85
0.0327081 0 0.00271601 1914.32
-0.0328421 -9.03502e-21 0.000917741 242.124
0.0328421 0 0.000917735 232.597
-0.0328866 0 1.93643e-09 853.194
0.0328867 0 1.93682e-09 852.468
-0.032889 0 0.000149427 853.193
0.032889 1.35525e-20 0.000149442 852.467
-0.0329824 -7.7443e-21 0.000542132 631.496
0.0329824 5.80823e-21 0.00054211 626.456
-0.0330371 -2.71051e-20 1.79015e-09 856.269
0.0330372 -1.35525e-20 1.79044e-09 855.522
-0.0329464 0 0.00275916 1450.28
0.0329464 0 0.00275917 1449.69
-0.0329864 3.38813e-22 0.00235373 1166.56
0.0329864 -1.12938e-22 0.00235373 1149.81
-0.0330505 -2.71051e-20 0.00123121 174.649
0.0330505 0 0.00123119 159.379
-0.03302 -2.71051e-20 0.00190069 447.058
0.03302 2.71051e-20 0.00190069 426.305
-0.0332006 -1.35525e-20 2.0216e-09 860.858
0.0332007 -2.71051e-20 2.02177e-09 860.055
-0.0333521 2.25875e-21 0.000302612 797.969
0.0333521 -9.03502e-21 0.000302604 795.379
-0.0333579 9.03502e-21 0.000916469 244.686
0.0333579 2.25875e-21 0.000916441 227.633
0.0332522 6.77626e-21 0.00281453 1675.02
-0.0332522 2.37169e-20 0.00281452 1675.64
-0.0333432 4.51751e-21 0.00156281 194.188
0.0333432 9.03502e-21 0.0015628 170.679
-0.0332953 0 0.00276394 1709.3
0.0332953 0 0.00276393 1708.7
-0.0333121 1.35525e-20 0.00282536 1679.98
0.0333121 0 0.00282536 1679.36
-0.03334 -1.01644e-20 0.00259806 1623.74
0.03334 -1.12938e-21 0.00259806 1622.41
-0.0333776 -1.12938e-20 0.00214892 508.266
0.0333777 2.25875e-21 0.00214893 481.23
-0.0334909 0 2.97205e-09 868.245
0.0334909 -2.71051e-20 2.97158e-09 867.407
-0.0336619 -2.71051e-20 3.2006e-09 873.017
0.0336619 0 3.20002e-09 872.2
0.0336674 -2.71051e-20 0.000602311 518.127
-0.0336674 0 0.000602349 528.926
0.0336288 -2.71051e-20 0.00191753 358.949
-0.0336288 0 0.00191754 380.639
0.0336642 0 0.00123321 136.587
-0.0336642 -2.71051e-20 0.00123324 160.304
-0.0335885 -2.71051e-20 0.00287539 1475.85
0.0335885 0 0.00287539 1475.22
-0.0336882 0 0.0024221 1064.5
0.0336883 0 0.00242211 1054.56
-0.0338384 -1.35525e-20 2.82155e-09 874.085
0.0338384 1.35525e-20 2.82101e-09 873.247
0.0338129 -2.71051e-20 0.00291608 1383.83
-0.033813 -1.35525e-20 0.00291609 1384.53
-0.0339781 9.03502e-21 0.000302701 807.613
0.0339781 9.03502e-21 0.000302675 804.855
-0.0339808 -4.51751e-21 0.000914761 237.225
0.0339808 -4.51751e-21 0.000914701 220.816
0.0339745 -9.03502e-21 0.00155861 137.091
-0.0339745 -4.51751e-21 0.00155866 161.167
-0.0339481 -4.51751e-22 0.00267579 1385.56
0.0339481 4.51751e-22 0.00267579 1384.31
-0.0339879 -4.51751e-21 0.00215835 440.649
0.0339879 9.03502e-21 0.00215833 409.047
-0.0341105 -1.35525e-20 1.81923e-09 878.429
0.0341105 -1.35525e-20 1.81899e-09 877.591
0.0340317 0 0.00295577 1361.03
-0.0340318 0 0.00295579 1361.71
-0.0342884 -2.71051e-20 1.43984e-09 887.028
0.0342884 -2.71051e-20 1.43965e-09 886.211
-0.0342943 -2.71051e-20 0.000598991 532.196
0.0342943 2.71051e-20 0.000598921 523.63
0.0342171 -1.35525e-20 0.00298939 1419.21
-0.0342172 2.71051e-20 0.0029894 1419.83
0.0342949 0 0.00244804 932.754
-0.0342949 -2.71051e-20 0.00244805 946.797
-0.034362 2.12968e-20 0.00129504 129.781
0.034362 -3.87215e-21 0.00129496 110.414
-0.0343655 9.68038e-21 0.00179159 170.592
0.0343655 1.54886e-20 0.00179153 148.516
0.0343352 1.35525e-20 0.00301088 1162.3
-0.0343353 1.35525e-20 0.00301088 1163.07
-0.0344682 1.35525e-20 1.2842e-09 890.756
0.0344682 2.71051e-20 1.284e-09 889.931
-0.0345084 -4.51751e-21 0.000909454 229.492
0.0345084 -4.51751e-21 0.000909369 215.354
-0.034518 -1.807e-20 0.00215838 351.224
0.034518 -1.35525e-20 0.00215835 332.537
-0.0346072 -6.77626e-21 0.000300821 824.463
0.0346072 9.03502e-21 0.000300778 822.144
0.0346152 0 0.00154283 85.5347
-0.0346152 0 0.00154291 103.231
0.034558 -4.51751e-22 0.00272776 967.036
-0.034558 -2.25875e-22 0.00272775 968.227
0.0345977 1.35525e-20 0.00305919 1173.27
-0.0345978 0 0.0030592 1174.09
-0.0347356 0 9.21309e-10 905.151
0.0347357 1.35525e-20 9.21242e-10 904.334
-0.0346831 1.35525e-20 0.00307472 1317.43
0.0346831 6.77626e-21 0.00307474 1316.84
-0.0349165 2.71051e-20 7.6471e-10 925.057
0.0349166 0 7.64643e-10 924.268
-0.0349264 4.51751e-21 0.000691164 400.776
0.0349264 -9.03502e-21 0.000691082 390.841
0.0349292 -2.25875e-21 0.00121438 116.871
-0.0349292 2.03288e-20 0.00121448 133.999
0.0349324 1.12938e-20 0.00185859 134.861
-0.0349324 -4.51751e-21 0.00185866 161.704
0.0348922 1.35525e-20 0.00311391 1530.17
-0.0348922 -3.38813e-21 0.00311391 1530.74
0.0349975 6.77626e-21 0.00246507 695.047
-0.0349975 -9.03502e-21 0.00246508 711.367
-0.0350985 0 7.01007e-10 932.329
0.0350985 1.35525e-20 7.00941e-10 931.505
-0.035002 0 0.00285808 1483.43
0.035002 0 0.00285808 1480.34
-0.0352406 -1.12938e-20 0.000295905 859.292
0.0352407 6.77626e-21 0.000295859 857.036
-0.0352487 0 0.00089372 167.781
0.0352487 -2.71051e-20 0.000893614 152.67
0.0351342 1.69407e-21 0.00315794 2015.59
-0.0351343 0 0.00315795 2016.13
0.0352503 0 0.00152768 77.1375
-0.0352503 0 0.00152777 99.6788
-0.0351477 1.69407e-21 0.00316042 2023.17
0.0351478 -1.69407e-21 0.00316043 2022.68
0.0351794 0 0.00281731 1536.68
-0.0351794 0 0.00281732 1540.14
-0.035153 0 0.00314568 2019.32
0.035153 -1.69407e-21 0.00314559 2018.81
0.0352564 0 0.00217228 163.391
-0.0352564 -2.71051e-20 0.00217232 204.162
-0.0353734 -1.35525e-20 5.21809e-10 950
0.0353735 0 5.21779e-10 949.154
-0.0352366 -1.69407e-21 0.0031769 2030.17
0.0352373 -3.38813e-21 0.00317703 2029.73
-0.0353097 0 0.00290011 1770.84
0.0353097 1.35525e-20 0.00290013 1770.64
-0.0355532 0 4.57365e-10 983.832
0.0355533 0 4.57336e-10 983.02
0.0355671 -9.03502e-21 0.00119581 115.414
-0.0355671 -2.25875e-21 0.00119592 133.229
0.0355696 9.03502e-21 0.00184838 110.502
-0.0355696 0 0.00184845 137.709
-0.0356124 2.25875e-21 0.000622322 529.212
0.0356125 2.25875e-21 0.000622242 520.85
0.0355744 -4.51751e-21 0.00250427 584.59
-0.0355744 9.03502e-21 0.00250428 610.694
-0.035529 3.38813e-21 0.0032312 2135.08
0.0355292 -3.38813e-21 0.00323122 2134.42
-0.0355423 0 0.00321267 2109.1
0.0355424 0 0.00321273 2108.49
0.0355811 -9.03502e-21 0.00287218 1436.63
-0.0355811 -9.03502e-21 0.00287218 1448.04
-0.035574 3.38813e-21 0.00316175 1918.21
-0.0355672 0 0.0032382 2017.6
0.0355741 0 0.0031619 1914.9
0.0355673 0 0.00323821 2017.11
-0.0357312 -1.35525e-20 4.06834e-10 988.058
0.0357313 -1.35525e-20 4.06801e-10 987.198
-0.0356064 0 0.00321772 2035.93
0.0356064 0 0.00321777 2035.41
0.0356195 3.38813e-21 0.00324783 2037.47
-0.0356195 3.38813e-21 0.00324784 2038.01
-0.0358766 0 0.000193571 996.339
0.0358767 0 0.000193555 995.458
-0.035885 0 0.000875629 172.382
0.035885 -2.71051e-20 0.000875535 158.437
-0.0358906 2.71051e-20 0.00150725 90.0237
0.0358906 -2.71051e-20 0.00150716 70.3859
0.0358881 -2.71051e-20 0.00216694 125.02
-0.0358881 -2.71051e-20 0.00216698 149.505
-0.0358664 0 0.00295102 1372.79
0.0358665 1.35525e-20 0.00295103 1355.31
-0.0360201 -1.35525e-20 2.47881e-10 1006.52
0.0360202 2.71051e-20 2.47868e-10 1005.61
-0.036024 6.77626e-21 0.00332287 1773.17
0.0360241 0 0.00332289 1772.31
-0.0361957 0 1.96858e-10 1053.06
0.0361958 0 1.96841e-10 1052.2
-0.0362011 -6.77626e-21 0.000563546 611.784
0.0362011 4.51751e-21 0.000563484 603.664
-0.03606 0 0.0032685 1726.05
0.0360601 -1.35525e-20 0.00326857 1725.24
-0.036206 0 0.00117895 133.924
0.0362061 0 0.00117887 115.343
0.0362045 2.25875e-21 0.00184383 92.9313
-0.0362045 6.77626e-21 0.00184388 117.683
0.0361888 -2.25875e-21 0.00253169 450.047
-0.0361888 -2.25875e-21 0.0025317 481.996
-0.0361316 0 0.00334265 1557.42
0.0361316 -1.35525e-20 0.00334265 1556.66
0.0361687 -6.77626e-21 0.00293434 1141.43
-0.0361687 9.03502e-21 0.00293434 1158.92
0.0361567 6.77626e-21 0.00314741 1393.66
-0.0361567 0 0.00314727 1404.73
-0.0363723 0 1.67562e-10 1038.78
0.0363723 1.35525e-20 1.67547e-10 1037.87
0.0362562 0 0.00328574 1645.36
-0.0362563 2.71051e-20 0.00328569 1646.21
0.0363065 6.77626e-21 0.00337454 1673
-0.0363067 1.35525e-20 0.00337456 1673.92
-0.0365138 0 0.000190564 1043.78
0.0365138 0 0.000190552 1042.84
-0.0365218 2.71051e-20 0.000861999 181.182
0.0365219 2.71051e-20 0.000861929 163.165
-0.0365244 0 0.00149847 89.0357
0.0365244 0 0.00149841 66.0232
0.0365145 0 0.00218148 106.37
-0.0365145 0 0.00218151 138.074
-0.0364788 0 0.00289752 786.653
0.0364788 1.35525e-20 0.00289755 766.249
-0.0366526 0 8.42588e-11 1051.44
0.0366527 0 8.42553e-11 1050.46
-0.036569 -5.42101e-21 0.00323416 1608.21
0.036569 1.35525e-20 0.00323419 1607.3
-0.0365532 0 0.00341957 1728.98
0.0365533 -1.35525e-20 0.00341959 1728.06
-0.0367898 1.35525e-20 0.000598955 576.598
0.0367898 0 0.000598917 565.736
-0.036834 0 5.5588e-11 1107.61
0.0368341 0 5.55862e-11 1106.65
-0.0368407 -4.51751e-21 0.00116968 137.256
0.0368407 4.51751e-21 0.00116963 116.245
0.0368348 -4.51751e-21 0.00184465 81.9872
-0.0368348 6.77626e-21 0.00184468 110.045
0.0368045 1.35525e-20 0.00255346 381.685
-0.0368045 -1.35525e-20 0.00255346 411.426
0.0367777 -2.71051e-20 0.00346047 1591.8
-0.0367777 2.71051e-20 0.00346047 1592.58
-0.0368393 4.51751e-22 0.00303407 1170.19
0.0368393 1.35525e-21 0.00303408 1154.94
-0.0370199 1.35525e-20 4.78303e-11 1068.72
0.0370199 -1.35525e-20 4.78279e-11 1067.65
-0.0371489 -2.25875e-21 0.000281507 978.147
0.0371489 -9.03502e-21 0.000281494 975.282
0.0371548 0 0.000855626 168.193
-0.0371548 -2.71051e-20 0.000855666 188.4
0.0371549 2.71051e-20 0.00149516 63.3422
-0.0371549 0 0.00149519 86.8119
0.0371441 0 0.00218077 90.078
-0.0371441 0 0.00218078 124.104
0.0370564 6.77626e-21 0.00351129 1455.89
-0.0370564 -2.03288e-20 0.0035113 1456.79
0.03727 0 2.98638e-11 1074.55
-0.03727 0 2.9863e-11 1075.69
-0.0371712 2.71051e-20 0.00278261 341.54
0.0371713 0 0.00278261 307.272
-0.0371159 -1.35525e-20 0.00352215 1468.43
0.037116 -1.69407e-20 0.00352218 1467.56
-0.0371348 4.51751e-21 0.00333173 1602.17
0.0371348 0 0.00333177 1601.35
-0.0374605 0 2.22234e-11 1140.05
0.0374605 0 2.22235e-11 1138.93
-0.0374674 0 0.000637841 487.723
0.0374674 1.35525e-20 0.000637823 473.612
0.0374702 -6.77626e-21 0.00116461 117.363
-0.0374702 4.51751e-21 0.00116464 139.477
0.0374665 -1.12938e-21 0.00183966 72.3937
-0.0374665 0 0.00183967 99.8746
-0.0374682 -3.38813e-21 0.00249666 222.139
0.0374682 1.12938e-21 0.00249666 183.503
-0.0374675 4.51751e-21 0.00307365 1035.39
0.0374675 1.88079e-37 0.00307365 1013.98
-0.0374246 2.71051e-20 0.00357844 1603.46
0.0374247 1.35525e-20 0.00357845 1602.55
-0.0376529 -2.71051e-20 1.86806e-11 1086.21
0.0376529 -1.35525e-20 1.86807e-11 1084.99
-0.0377742 1.12938e-20 0.000280154 995.515
0.0377742 6.77626e-21 0.000280151 992.454
-0.0377819 0 0.000851859 191.734
0.0377819 2.71051e-20 0.00085184 171.625
0.0377838 0 0.00149135 61.0456
-0.0377838 5.42101e-20 0.00149136 86.6607
-0.0376598 6.77626e-21 0.00362112 1090.96
0.0376599 1.35525e-20 0.00362114 1089.59
0.0377819 -2.71051e-20 0.00216934 74.6164
-0.0377819 0 0.00216935 101.324
0.0377773 -5.42101e-20 0.00279682 240.143
-0.0377773 -2.71051e-20 0.00279681 299.519
0.0378849 0 1.07538e-11 1092.78
-0.0378849 0 1.07533e-11 1094.05
-0.0377229 -1.35525e-20 0.00353461 1014.94
0.037723 -6.77626e-21 0.00353476 1013.66
-0.0377797 -1.12938e-21 0.00335602 1117.68
0.0377798 0 0.00335605 1113.09
0.0377789 0 0.00364262 1036.41
-0.037779 -6.77626e-21 0.00364263 1037.72
-0.0380777 2.71051e-20 7.23455e-12 1162.67
0.0380777 0 7.23493e-12 1161.46
-0.0380891 9.03502e-21 0.000630694 504.393
0.0380891 0 0.00063069 487.481
-0.0380959 -2.25875e-21 0.00115829 143.551
0.0380959 4.51751e-21 0.00115829 118.367
0.0380968 3.38813e-21 0.0018338 64.8297
-0.0380968 -2.25875e-21 0.0018338 93.9705
-0.0379952 -1.35525e-20 0.00368181 1195.87
0.0379952 1.35525e-20 0.00368182 1194.72
-0.0380943 1.12938e-21 0.00250862 190.508
0.0380943 -2.25875e-21 0.00250862 149.16
-0.0380787 4.51751e-21 0.0030417 699.997
0.0380786 -4.51751e-21 0.00304173 670.195
-0.0382652 -1.35525e-20 6.08684e-12 1111.48
0.0382652 -1.35525e-20 6.08729e-12 1110.22
-0.0381485 0 0.00370958 950.253
0.0381486 6.77626e-21 0.0037096 948.952
-0.0383423 0 0.000233962 1054.46
0.0383424 -4.51751e-21 0.000233961 1051.94
-0.0384028 0 0.000843267 202.25
0.0384028 -2.71051e-20 0.000843267 175.484
0.03841 -2.71051e-20 0.00148247 59.5464
-0.03841 -2.71051e-20 0.00148247 89.2686
0.0384072 0 0.00217116 64.3338
-0.0384072 -5.42101e-20 0.00217116 98.8246
-0.0383453 4.51751e-22 0.00341218 897.783
0.0383454 3.16226e-21 0.0034122 892.912
0.0385067 -1.35525e-20 3.26257e-12 1133
-0.0385067 1.35525e-20 3.26167e-12 1134.3
-0.0384087 2.71051e-20 0.00283718 245.546
0.0384087 0 0.0028372 202.878
0.0383428 6.77626e-21 0.0037445 991.743
-0.0383428 6.77626e-21 0.0037445 993.022
-0.0384723 -1.35525e-20 0.00376794 1204.95
0.0384723 1.35525e-20 0.00376795 1203.85
0.038689 0 2.10859e-12 1215.26
-0.038689 2.71051e-20 2.10763e-12 1216.56
-0.0387011 2.25875e-21 0.000532365 709.353
0.0387011 2.25875e-21 0.000532366 691.989
-0.0387193 1.12938e-21 0.00114082 153.659
0.0387193 -2.25875e-21 0.00114082 121.39
-0.0387249 0 0.00181992 92.1784
0.0387249 0 0.00181992 59.4958
-0.0387232 2.25875e-21 0.00251541 165.078
0.0387232 -3.38813e-21 0.00251542 123.687
-0.0386563 1.35525e-20 0.00380866 1407.19
0.0386563 6.77626e-21 0.00380867 1406.18
0.0388555 1.35525e-20 1.85497e-12 1189.53
-0.0388555 2.71051e-20 1.85378e-12 1190.9
-0.0386905 0 0.00364409 1411.25
0.0386905 1.35525e-20 0.00364412 1410.24
0.0387735 -2.25875e-21 0.00324313 846.14
-0.0387735 -4.51751e-21 0.00324312 867.849
0.0389089 -2.71051e-21 0.000183068 1192.2
-0.038909 1.35525e-20 0.000183055 1193.57
0.0390203 2.71051e-20 0.000818063 186.292
-0.0390203 0 0.000818062 227.334
0.038876 0 0.00384256 1861.81
-0.038876 0 0.00384255 1862.77
-0.0390393 -2.71051e-20 0.00145448 92.5645
0.0390393 2.71051e-20 0.00145449 58.5535
0.0390375 0 0.00215195 55.7921
-0.0390375 0 0.00215195 88.521
-0.038928 0 0.00385208 1896.39
0.038928 -6.77626e-21 0.0038521 1895.47
-0.0389527 3.38813e-21 0.00379162 1880.9
0.0389528 0 0.00379157 1879.96
-0.0390404 -2.71051e-20 0.00284503 213.891
0.0390404 0 0.00284504 159.288
0.0391596 -1.35525e-20 9.066e-13 1281.49
-0.0391598 1.35525e-20 9.04288e-13 1282.86
0.0391706 0 0.000114816 1283.02
-0.0391707 -1.35525e-20 0.000114772 1284.39
-0.0391098 1.12938e-20 0.00361355 1689.01
0.0391098 9.03502e-21 0.00361357 1684.68
0.0393055 1.35525e-20 6.52206e-13 1398.69
-0.0393056 -1.35525e-20 6.49692e-13 1399.97
0.0393117 -4.51751e-21 0.000500429 804.469
-0.0393117 0 0.000500434 832.731
0.0393492 1.12938e-21 0.00108804 134.2
-0.0393492 2.25875e-21 0.00108803 178.2
-0.0393637 1.12938e-21 0.00177645 89.4936
0.0393637 -3.38813e-21 0.00177646 55.5254
0.0394217 1.35525e-20 8.7629e-05 1429.46
-0.0394218 0 8.75788e-05 1430.69
0.0394266 0 6.05533e-13 1425.68
-0.0394266 0 6.03128e-13 1426.91
-0.0393554 -1.12938e-21 0.00249989 136.858
0.0393554 0 0.00249989 97.3305
-0.0392461 0 0.0039114 1930.78
0.0392465 1.69407e-21 0.00391149 1929.79
-0.0393554 2.71051e-21 0.00323461 711.599
0.0393554 2.25875e-21 0.00323463 673.979
-0.0393295 0 0.00392838 1965.08
0.0393297 0 0.0039284 1963.95
-0.0393343 0 0.00392289 1955.98
0.0393344 -1.69407e-21 0.00392294 1954.88
-0.039341 0 0.00393113 1933.17
0.0393412 0 0.00393114 1932.14
-0.0393435 8.47033e-21 0.00390909 1905.27
0.0393436 -1.69407e-21 0.00390918 1902.83
-0.0393533 0 0.00392488 1934.83
0.0393533 0 0.00392492 1933.79
-0.0393598 0 0.003936 1935.33
0.0393599 0 0.00393599 1934.28
0.0396051 -2.71051e-20 0.000230835 1513
-0.0396052 0 0.000230845 1514.19
0.0396385 -2.71051e-20 0.000745352 229.307
-0.0396385 0 0.000745355 297.617
0.0396943 -2.71051e-20 0.00136783 60.2608
-0.0396943 0 0.00136783 99.0638
-0.0396774 -2.71051e-20 0.0021149 78.6668
0.0396774 2.71051e-20 0.0021149 47.8061
-0.039584 3.87215e-21 0.00366033 1354
0.039584 5.80823e-21 0.00366035 1334.9
-0.0396652 -2.71051e-20 0.0028356 156.768
0.0396652 2.71051e-20 0.0028356 117.944
0.0398974 -7.52918e-21 0.000433584 863.014
-0.0398974 7.52918e-21 0.000433597 884.228
-0.0397723 1.35525e-20 0.00404307 1662.15
0.0397724 1.35525e-20 0.00404309 1660.81
-0.0398261 -1.35525e-20 0.00397859 1586.29
0.0398262 -1.35525e-20 0.00397863 1584.97
-0.0400266 0 5.89696e-14 1180.34
0.0400285 -3.07049e-21 5.87113e-14 1177.26
-0.0400315 0 6.38781e-07 1178.63
-0.0400248 -7.52918e-22 0.000878018 325.809
0.0400248 5.0822e-21 0.000878006 296.278
-0.0400176 -6.58803e-22 0.0017143 95.3486
0.0400177 -5.64689e-22 0.00171429 58.3529
-0.0399832 -2.25875e-21 0.00248314 114.906
0.0399832 -1.12938e-21 0.00248314 77.3262
-0.0399582 0 0.00322758 487.124
0.0399582 0 0.00322761 442.194
-0.0399279 -6.77626e-21 0.00368191 1101.33
0.0399279 -4.51751e-21 0.00368193 1078.01
-0.0399096 -1.35525e-20 0.00407855 1529.93
0.0399096 1.35525e-20 0.00407855 1528.66
0.0400594 1.35525e-20 0.00398559 1404.48
-0.0400595 1.35525e-20 0.00398556 1405.78
0.0403283 2.71051e-20 0.00130595 67.3962
-0.0403283 0 0.00130595 110.774
-0.0403037 -5.42101e-20 0.00209219 78.3184
0.0403037 -2.71051e-20 0.0020922 43.0192
-0.0402835 -2.71051e-20 0.00284183 139.747
0.0402835 0 0.00284185 94.4545
-0.0403926 -3.01167e-21 0.000332751 799.509
0.0403926 2.25875e-21 0.00033272 796.704
-0.0402358 0 0.0035945 725.596
0.0402359 0 0.00359453 697.799
-0.0402062 1.10114e-20 0.0041549 1392.39
0.0402063 1.35525e-20 0.00415492 1390.95
-0.0402146 5.0822e-21 0.00414562 1383.7
0.0402147 -1.69407e-21 0.0041457 1382.31
0.0402234 -8.47033e-22 0.00415933 1379.15
-0.0402234 9.31736e-21 0.00415934 1380.51
-0.0403023 -5.42101e-21 0.00393721 1330.56
0.0403024 1.35525e-20 0.00393724 1329.24
0.0405606 0 2.46956e-14 928.309
-0.0405608 -1.35525e-20 2.42881e-14 930.331
0.0406279 5.64689e-22 0.0017081 54.8664
-0.0406279 -9.03502e-22 0.00170811 94.379
-0.0406701 9.03502e-22 0.000834172 323.255
0.0406701 -9.03502e-22 0.000834157 305.231
-0.0406057 3.38813e-21 0.00247151 104.815
0.0406057 -2.25875e-21 0.00247151 63.8833
-0.0405666 -2.25875e-21 0.0032346 390.104
0.0405666 -2.25875e-21 0.00323462 352.293
0.0407119 1.35525e-20 1.9156e-14 955.554
-0.0407119 1.35525e-20 1.89963e-14 957.82
-0.0404943 -2.71051e-20 0.00422906 1345.81
0.0404943 1.35525e-20 0.00422907 1344.58
-0.0405856 -2.25875e-21 0.00374189 997.233
0.0405857 -4.06576e-21 0.00374191 978.421
-0.0406592 0 0.0042714 1140.99
0.0406593 6.77626e-21 0.00427142 1139.62
-0.0408969 -1.35525e-20 1.55407e-14 884.928
0.040897 0 1.56592e-14 882.77
0.0409487 -2.71051e-20 0.00130362 67.9151
-0.0409487 -2.71051e-20 0.00130362 111.785
0.0409201 2.71051e-20 0.00208464 39.4577
-0.0409201 0 0.00208464 74.8101
0.0410085 0 0.000322013 759.607
-0.0410086 9.03502e-22 0.000321989 761.854
-0.0409146 -2.71051e-20 0.00282743 122.188
0.0409146 -2.71051e-20 0.00282743 74.6584
-0.0408446 2.25875e-21 0.00406262 1175.51
0.0408446 4.51751e-21 0.00406268 1174.3
-0.040841 1.35525e-20 0.00431817 1149.49
0.040841 -6.77626e-21 0.00431818 1148.13
-0.0409362 -2.71051e-20 0.00347644 310.888
0.0409362 0 0.00347646 272.978
0.0411092 0 7.77333e-15 872.947
-0.0411094 1.35525e-20 7.71879e-15 875.107
-0.040987 1.35525e-20 0.00435565 1397.76
0.0409871 -2.71051e-20 0.00435568 1396.58
0.0412469 -5.64689e-23 0.00170084 52.0258
-0.0412469 5.0822e-22 0.00170084 91.7967
0.0413011 0 4.35779e-15 946.846
-0.0413012 2.71051e-20 4.34421e-15 949.288
0.0413201 -1.807e-21 0.000890333 292.824
-0.0413202 7.22801e-21 0.000890341 314.679
0.0412697 8.06698e-22 0.00242837 58.8037
-0.0412697 -5.64689e-22 0.00242836 97.7669
-0.0412342 -2.25875e-21 0.00316528 212.595
0.0412342 -2.25875e-21 0.00316529 157.557
-0.0411643 1.35525e-20 0.00440134 1548.51
0.0411643 0 0.00440136 1547.46
-0.041201 -2.71051e-20 0.00424417 1611.77
0.041201 0 0.00424421 1610.74
-0.0412616 3.76459e-22 0.00386067 1081.18
0.0412616 1.12938e-21 0.00386068 1051.76
0.0415153 0 3.78842e-15 823.155
-0.0415153 -6.77626e-21 3.77685e-15 825.634
-0.0416021 1.6134e-22 0.000359044 703.189
0.0416022 1.6134e-22 0.000359349 699.11
0.0413811 3.38813e-21 0.00445724 1954.95
-0.0413812 -3.38813e-21 0.00445724 1955.93
-0.0415425 -2.71051e-20 0.00282179 99.7621
0.0415425 0 0.0028218 61.5045
0.0416466 0 3.23184e-15 817.972
-0.0416468 -2.03288e-20 3.22113e-15 820.453
-0.0414291 3.38813e-21 0.00446959 1978.09
0.0414291 -3.38813e-21 0.00446961 1977.18
0.0416572 5.42101e-20 0.00147066 55.2415
-0.0416573 0 0.00147065 102.048
-0.0414584 3.38813e-21 0.00440893 1977.62
0.0414585 3.38813e-21 0.00440886 1976.72
-0.0415524 0 0.00348653 297.123
0.0415524 -2.71051e-20 0.00348655 200.176
0.0416533 0 0.00196575 41.1058
-0.0416533 2.71051e-20 0.00196575 72.7089
-0.0416194 -2.25875e-21 0.00422692 1851.38
0.0416194 -4.51751e-21 0.00422695 1845.42
0.0418804 1.35525e-20 2.72775e-15 909.206
-0.0418805 0 2.71867e-15 911.771
0.0418772 2.82344e-22 0.000883258 301.939
-0.0418773 1.8823e-22 0.000883293 327.414
-0.0416429 -1.69407e-21 0.00452468 1965.58
0.0416433 1.69407e-21 0.00452479 1964.53