# p  POINT_DATA 14060
# x  y  z  p
4.06576e-20 0.0106418 6.54156e-08 -0.000303968
-4.06576e-20 -0.0106418 6.54156e-08 0.0205852
0 -0.0106418 0.000314253 0.0205846
1.69407e-21 0.0106418 0.000314436 -0.000303977
-1.01644e-20 -0.0106418 0.000346253 0.0205846
-3.38813e-21 0.0106418 0.000346447 -0.000303977
0 -0.0106418 0.000664285 0.0205859
2.71051e-20 0.0106418 0.000664666 -0.00030396
-1.69407e-21 0.0106696 0.000329843 -0.000303982
0 -0.0106696 0.000329653 0.0205841
-5.0822e-21 -0.0106418 0.000994701 0.0205852
-1.69407e-21 0.0106418 0.000995075 -0.000303971
-1.69407e-21 -0.0106418 0.00102868 0.0205852
1.69407e-21 0.0106418 0.00102909 -0.00030397
-1.35525e-20 -0.0106651 0.00100858 0.0205847
1.86347e-20 0.0106651 0.00100897 -0.000303976
0 -0.0106418 0.00135925 0.0205863
-1.35525e-20 0.0106418 0.00135964 -0.000303954
-3.38813e-21 -0.0106418 0.00170831 0.0205856
0 0.0106418 0.00170849 -0.000303982
-6.77626e-21 -0.0106418 0.00174299 0.0205856
2.20229e-20 0.0106418 0.0017432 -0.000303983
0 -0.0106634 0.00171659 0.0205851
6.77626e-21 0.0106634 0.00171678 -0.000303988
0 0.0106417 0.002087 -0.000303964
0 -0.0106417 0.002087 0.0205871
1.35525e-20 0.0108523 6.905e-08 -0.000304003
2.71051e-20 -0.0108523 6.90492e-08 0.0205819
4.51751e-21 -0.0108537 0.000983441 0.0205818
0 0.0108538 0.000983846 -0.000304005
-7.90564e-21 0.0109302 0.000328664 -0.000304017
-5.64689e-21 -0.0109302 0.000328466 0.0205808
-9.03502e-21 -0.010876 0.00165246 0.0205818
-2.25875e-21 0.010876 0.0016527 -0.000304017
-1.35525e-20 0.0110233 5.24961e-08 -0.000304026
-2.03288e-20 -0.0110233 5.24971e-08 0.0205802
0 -0.0108444 0.00218791 0.0205872
-3.38813e-21 0.0108444 0.00218791 -0.000303977
-6.77626e-21 0.010932 0.00223158 -0.000303988
3.38813e-21 -0.010932 0.00223159 0.0205862
3.38813e-21 -0.0109511 0.00214941 0.020586
-6.77626e-21 0.0109511 0.00214943 -0.00030399
0 0.0111742 4.69561e-08 -0.000304038
0 -0.0111743 4.69564e-08 0.0205795
-2.25875e-21 -0.0111377 0.00125157 0.0205801
-9.03502e-21 0.0111378 0.00125193 -0.000304038
-6.77626e-21 -0.0111894 0.000675227 0.0205795
-1.01644e-20 0.0111894 0.00067554 -0.000304045
1.35525e-20 0.0112788 0.000114381 -0.000304066
-1.35525e-20 -0.0112788 0.000114338 0.0205782
0 0.0112886 3.37067e-08 -0.000304064
1.35525e-20 -0.0112886 3.37059e-08 0.0205784
-6.77626e-21 -0.0111945 0.00167214 0.0205809
0 0.0111945 0.00167239 -0.000304032
2.25875e-21 -0.011163 0.00198697 0.0205813
-5.64689e-21 0.011163 0.00198709 -0.000304029
-2.71051e-20 0.011131 0.00233069 -0.000304039
0 -0.011131 0.00233069 0.0205805
0 0.0114369 0.00031708 -0.000304091
0 -0.0114369 0.00031693 0.0205767
-2.71051e-20 -0.011421 0.000929732 0.0205788
-2.71051e-20 0.011421 0.000930046 -0.000304067
-2.71051e-20 -0.0114038 0.0015068 0.0205775
-2.71051e-20 0.0114039 0.00150708 -0.000304074
-1.35525e-20 -0.0113457 0.00243752 0.0205698
1.35525e-20 0.0113457 0.00243753 -0.000304175
-1.35525e-20 -0.0116364 1.34784e-08 0.0205735
-1.35525e-20 0.0116364 1.34759e-08 -0.000304109
0 -0.0116375 9.54413e-05 0.0205732
0 0.0116376 9.54576e-05 -0.000304111
0 -0.0114303 0.0024797 0.0205678
-6.77626e-21 0.0114304 0.00247971 -0.000304187
5.64689e-21 -0.0115074 0.00225281 0.0205673
4.51751e-21 0.0115075 0.00225288 -0.000304182
-1.35525e-20 -0.0117301 3.25942e-09 0.0205717
0 0.0117301 3.26008e-09 -0.000304115
0 -0.0117195 0.000610229 0.0205721
-6.77626e-21 0.0117195 0.000610449 -0.000304113
4.51751e-21 -0.0117028 0.00122422 0.0205723
-9.03502e-21 0.0117028 0.00122449 -0.000304107
0 0.0118194 8.97007e-05 -0.000304125
-1.35525e-20 -0.0118195 8.9705e-05 0.0205705
0 0.01182 3.03178e-09 -0.000304125
0 -0.01182 3.03111e-09 0.0205705
-4.51751e-21 -0.0116772 0.0018372 0.020572
2.25875e-21 0.0116772 0.00183735 -0.000304109
0 -0.0116033 0.00256579 0.020567
2.71051e-20 0.0116033 0.00256582 -0.000304154
-2.71051e-20 0.0120204 0.00030712 -0.000304147
-2.71051e-20 -0.0120205 0.000307029 0.0205667
0 -0.0117485 0.00263815 0.0205664
-1.35525e-20 0.0117486 0.00263817 -0.000304157
0 -0.0120156 0.000917001 0.0205669
0 0.0120156 0.000917181 -0.000304141
1.50584e-21 -0.0118318 0.00229966 0.0205657
0 0.0118319 0.00229972 -0.000304163
0 -0.0117786 0.00256188 0.0205654
0 0.0117787 0.00256192 -0.000304165
0 -0.0119886 0.00155401 0.0205676
2.71051e-20 0.0119887 0.00155417 -0.000304139
0 -0.012032 0.00210267 0.0205691
0 0.012032 0.00210275 -0.000304113
0 0.0122392 1.95024e-09 -0.000304169
-1.35525e-20 -0.0122393 1.95023e-09 0.020564
1.35525e-20 0.0122409 8.16763e-05 -0.000304169
-1.35525e-20 -0.012241 8.16705e-05 0.0205639
0 -0.011987 0.00253932 0.0205642
-2.71051e-20 0.0119871 0.00253936 -0.000304161
0 0.012321 1.74247e-09 -0.000304179
0 -0.0123211 1.74247e-09 0.0205627
0 -0.0120123 0.00276923 0.0205644
0 0.0120124 0.00276924 -0.000304155
4.51751e-21 -0.0123328 0.00060351 0.0205626
0 0.0123328 0.000603616 -0.000304174
0 -0.0120725 0.00270714 0.0205632
-1.35525e-20 0.0120726 0.00270715 -0.000304163
4.51751e-21 -0.0123288 0.00123239 0.0205621
2.25875e-21 0.0123288 0.00123252 -0.000304173
1.35525e-20 0.0124027 1.58608e-09 -0.000304187
-1.35525e-20 -0.0124029 1.58605e-09 0.0205617
0 0.012405 7.77949e-05 -0.000304187
1.35525e-20 -0.0124051 7.77972e-05 0.0205617
9.03502e-21 -0.0123346 0.00185417 0.0205618
-1.12938e-21 0.0123346 0.00185426 -0.000304172
0 -0.0121505 0.00283802 0.020561
-1.35525e-20 0.0121505 0.00283803 -0.000304173
-1.12938e-21 -0.0123063 0.00240165 0.0205603
3.38813e-21 0.0123064 0.00240169 -0.00030418
-1.35525e-20 -0.0122683 0.00289782 0.0205573
-1.35525e-20 0.0122684 0.00289784 -0.000304201
1.35525e-20 -0.0123167 0.00277203 0.0205569
-1.35525e-20 0.0123167 0.00277205 -0.000304205
0 0.0126427 0.000300471 -0.000304211
0 -0.0126428 0.000300435 0.0205588
2.71051e-20 -0.0126591 0.000913392 0.020558
-2.71051e-20 0.012659 0.000913471 -0.000304198
2.71051e-20 -0.0126618 0.00155274 0.0205562
0 0.0126618 0.00155281 -0.000304216
2.71051e-20 -0.0125263 0.00271731 0.0205538
0 0.0125263 0.00271734 -0.000304223
2.71051e-20 0.0124665 0.00299812 -0.000304244
-1.35525e-20 -0.0124665 0.00299814 0.0205523
0 -0.0126643 0.00218644 0.0205543
2.71051e-20 0.0126643 0.00218649 -0.00030422
6.77626e-21 0.0128706 4.59712e-10 -0.00030425
-6.77626e-21 -0.0128707 4.59687e-10 0.0205558
0 0.0128741 6.76249e-05 -0.000304251
-6.77626e-21 -0.0128742 6.76189e-05 0.0205557
-2.71051e-20 0.0125733 0.00289917 -0.00030426
1.35525e-20 -0.0125733 0.00289922 0.0205504
1.35525e-20 0.0129417 3.22177e-10 -0.000304263
0 -0.0129418 3.22144e-10 0.0205547
-1.35525e-20 0.0125996 0.00306574 -0.000304254
0 -0.0125996 0.00306572 0.0205516
-1.12938e-21 0.0129729 0.000593308 -0.000304245
-2.25875e-21 -0.0129729 0.000593273 0.0205548
0 0.0130097 3.00406e-10 -0.000304275
-6.77626e-21 -0.0130097 3.00375e-10 0.0205539
0 0.0130126 6.19331e-05 -0.000304276
0 -0.0130126 6.19352e-05 0.0205539
1.12938e-21 -0.0129928 0.00122118 0.0205533
1.12938e-21 0.0129928 0.00122123 -0.000304236
0 -0.0127131 0.00312274 0.0205466
0 0.0127131 0.00312278 -0.000304322
-1.35525e-20 -0.0127497 0.00301636 0.0205461
-1.35525e-20 0.0127497 0.00301635 -0.000304322
-2.25875e-21 -0.0129973 0.00187881 0.020552
-2.25875e-21 0.0129973 0.00187885 -0.000304249
-4.96926e-21 -0.0129622 0.00258487 0.0205497
-9.03502e-22 0.0129622 0.0025849 -0.000304272
2.71051e-20 -0.0129338 0.00296499 0.0205402
2.71051e-20 0.0129338 0.00296502 -0.000304372
0 0.0132745 0.000290697 -0.000304319
2.71051e-20 -0.0132746 0.000290697 0.0205505
0 0.0133097 0.000892132 -0.00030425
0 -0.0133098 0.000892103 0.0205519
-6.77626e-21 -0.0129628 0.00324855 0.020543
6.77626e-21 0.0129628 0.00324857 -0.000304352
0 -0.0130138 0.00319442 0.0205422
6.77626e-21 0.0130138 0.00319445 -0.000304355
0 -0.0133311 0.00153426 0.0205472
5.42101e-20 0.0133311 0.0015343 -0.000304281
-1.35525e-20 -0.0130334 0.00328409 0.0205434
0 0.0130335 0.00328412 -0.000304334
0 -0.0133253 0.00221294 0.0205509
-2.71051e-20 0.0133254 0.00221295 -0.000304278
6.77626e-21 -0.0130971 0.00331595 0.0205438
-6.77626e-21 0.0130971 0.00331598 -0.000304334
1.35525e-20 -0.0131128 0.00327452 0.0205432
0 0.0131128 0.00327455 -0.000304338
0 0.0135215 4.37567e-11 -0.000304402
-6.77626e-21 -0.0135215 4.37417e-11 0.0205482
6.77626e-21 0.013525 4.46982e-05 -0.000304402
0 -0.013525 4.46896e-05 0.0205482
7.52918e-22 -0.01322 0.00300113 0.0205445
2.25875e-21 0.01322 0.00300115 -0.000304321
0 -0.0135708 2.7414e-11 0.0205476
0 0.0135708 2.74242e-11 -0.000304417
0 -0.0136156 2.60779e-11 0.0205473
6.77626e-21 0.0136156 2.60872e-11 -0.000304435
6.77626e-21 -0.0136174 3.86816e-05 0.0205473
0 0.0136174 3.86925e-05 -0.000304435
-2.25875e-21 0.013613 0.000567026 -0.000304351
0 -0.0136131 0.000567017 0.0205489
-2.71051e-20 -0.0133842 0.00278357 0.0205521
2.71051e-20 0.0133842 0.00278359 -0.000304246
-2.25875e-21 0.0136535 0.00118312 -0.000304298
-5.64689e-22 -0.0136536 0.00118311 0.0205477
2.71051e-20 -0.0133578 0.00322878 0.0205426
-5.42101e-20 0.0133579 0.00322881 -0.000304339
-2.25875e-21 -0.0136671 0.00185452 0.020544
-4.51751e-21 0.0136672 0.00185453 -0.000304323
1.35525e-20 -0.0134202 0.00347787 0.0205425
0 0.0134203 0.00347791 -0.00030434
0 -0.0134522 0.00343713 0.0205418
0 0.0134523 0.00343717 -0.000304344
0 0.0139 0.000270267 -0.00030452
-2.71051e-20 -0.0139 0.000270258 0.0205446
5.64689e-22 -0.0136756 0.0025133 0.0205425
0 0.0136756 0.00251332 -0.000304326
0 -0.0134921 0.00351385 0.0205404
-1.35525e-20 0.0134922 0.00351387 -0.000304352
-2.71051e-20 0.0139532 0.000842554 -0.000304306
-5.42101e-20 -0.0139532 0.000842545 0.020549
5.64689e-22 -0.0136462 0.00307161 0.02054
-5.64689e-22 0.0136463 0.00307162 -0.000304348
0 -0.0135602 0.00354792 0.0205382
-6.77626e-21 0.0135603 0.00354795 -0.000304377
0 -0.0135939 0.00346713 0.0205378
-1.35525e-20 0.013594 0.00346717 -0.000304378
-2.71051e-20 0.0139954 0.00147861 -0.000304351
0 -0.0139954 0.00147861 0.020543
5.42101e-20 -0.0139994 0.00216676 0.0205355
0 0.0139994 0.00216678 -0.00030438
0 0.0141777 1.4792e-12 -0.00030456
-1.69407e-21 -0.0141778 1.47682e-12 0.0205347
0 0.0141787 1.2541e-05 -0.00030456
0 -0.0141789 1.25123e-05 0.0205347
-1.69407e-21 0.0141923 1.02466e-12 -0.000304563
1.69407e-21 -0.0141924 1.02347e-12 0.0205341
0 0.0142041 9.50757e-06 -0.000304571
0 -0.0142042 9.48552e-06 0.0205337
0 0.0142051 1.0097e-12 -0.000304571
-1.69407e-21 -0.0142052 1.00857e-12 0.0205337
-1.69407e-22 0.0142399 0.000510993 -0.000304423
5.64689e-23 -0.01424 0.000510997 0.0205417
0 -0.0138494 0.00338134 0.0205342
0 0.0138495 0.00338137 -0.000304403
-2.71051e-20 -0.0139915 0.00283632 0.0205318
5.42101e-20 0.0139915 0.00283633 -0.000304402
0 -0.0138215 0.00367867 0.0205307
-1.35525e-20 0.0138216 0.0036787 -0.00030445
0 0.0143091 0.00109617 -0.000304369
2.82344e-22 -0.0143102 0.00109467 0.0205404
-1.35525e-20 -0.013893 0.00360484 0.0205294
0 0.0138931 0.00360489 -0.00030446
0 -0.0143537 7.6488e-13 0.0205339
-1.69407e-21 0.0143541 7.64998e-13 -0.00030443
-1.35525e-20 -0.0139056 0.00372066 0.0205309
0 0.0139057 0.00372068 -0.000304454
1.41172e-21 -0.0143405 0.00177729 0.0205314
-8.47033e-22 0.0143405 0.0017773 -0.000304434
-2.71051e-20 0.014476 0.000224599 -0.000304604
-5.42101e-20 -0.0144761 0.000224598 0.0205237
0 -0.0139819 0.00376071 0.0205277
0 0.013982 0.00376072 -0.000304514
0 -0.0140112 0.00368366 0.0205271
1.35525e-20 0.0140113 0.0036837 -0.000304513
1.12938e-21 -0.0143223 0.00249857 0.0205308
1.69407e-21 0.0143224 0.00249858 -0.000304427
-2.71051e-20 0.014582 0.000746675 -0.000304279
2.71051e-20 -0.0145821 0.000746673 0.0205514
1.807e-21 -0.0142718 0.00323775 0.0205292
-4.51751e-22 0.0142719 0.00323777 -0.000304462
0 -0.0142272 0.00361841 0.0205187
2.71051e-20 0.0142272 0.00361844 -0.000304582
0 0.0146963 0.000425145 -0.000304152
3.01167e-21 -0.0146964 0.000425144 0.0205388
0 0.0146847 0.00134648 -0.000304538
0 -0.0146847 0.00134648 0.0205182
0 0.014768 2.53725e-05 -0.000304106
0 -0.0147681 2.54118e-05 0.020532
0 0.0147706 9.09601e-14 -0.000304106
0 -0.0147706 9.09569e-14 0.0205319
-6.77626e-21 0.0148059 6.69883e-15 -0.000304066
0 -0.014806 6.66559e-15 0.0205336
0 -0.014659 0.00210816 0.0205275
0 0.014659 0.00210816 -0.000304476
-6.77626e-21 -0.0142865 0.00391553 0.0205244
0 0.0142866 0.00391558 -0.000304553
0 -0.0143135 0.00388585 0.020524
-6.77626e-21 0.0143136 0.00388592 -0.000304554
0 0.0148347 4.54511e-05 -0.000304028
0 -0.0148348 4.55279e-05 0.0205344
0 0.0148461 5.76636e-15 -0.000304027
0 -0.0148463 5.73764e-15 0.0205344
0 -0.0143216 0.00393365 0.0205248
0 0.0143217 0.00393369 -0.000304538
-6.77626e-21 -0.0143519 0.00395506 0.0205264
6.77626e-21 0.0143519 0.00395508 -0.000304527
0 -0.014364 0.00393203 0.0205258
0 0.0143641 0.00393207 -0.000304531
-2.71051e-20 -0.014635 0.00283843 0.0205284
0 0.014635 0.00283845 -0.000304455
8.47033e-21 0.0144995 0.00366943 -0.000304525
8.47033e-22 0.0145102 0.00366649 -0.000304522
5.64689e-22 -0.0145197 0.00367384 0.020526
2.71051e-20 0.0150122 0.000330156 -0.000303599
0 -0.0150123 0.000330152 0.0205421
1.69407e-21 0.0145873 0.00370018 -0.000304529
-2.71051e-20 -0.0146766 0.00345532 0.0205353
5.42101e-20 0.0146766 0.00345534 -0.000304444
1.69407e-22 0.0150077 0.00170828 -0.000304556
-5.64689e-22 -0.0150077 0.00170827 0.0205145
6.32451e-21 0.0150925 0.000854694 -0.000304452
9.93852e-21 -0.0150925 0.000854681 0.0205365
5.42101e-20 -0.0146272 0.00391091 0.0205262
0 0.0146272 0.00391095 -0.00030454
1.01644e-21 -0.0149891 0.00242097 0.0205081
-1.24231e-21 0.0149891 0.00242099 -0.000304558
8.47033e-22 -0.0149586 0.00315962 0.020518
-3.76459e-22 0.0149587 0.00315962 -0.000304541
-6.77626e-21 -0.014702 0.00420283 0.0205261
0 0.0147021 0.00420291 -0.000304526
-6.77626e-21 -0.0152975 8.17222e-05 0.0205338
-6.77626e-21 0.0152978 8.14897e-05 -0.000304259
-6.77626e-21 -0.0147323 0.00417569 0.0205252
0 0.0147325 0.0041758 -0.000304532
1.35525e-20 -0.015314 2.16441e-15 0.0205338
1.35525e-20 0.0153142 2.17317e-15 -0.000304255
0 -0.0147475 0.004235 0.0205223
0 0.0147476 0.00423506 -0.000304557
0 -0.014778 0.00425658 0.0205173
-6.77626e-21 0.0147781 0.00425663 -0.000304585
0 -0.014793 0.00422587 0.0205174
6.77626e-21 0.0147931 0.00422594 -0.000304585
0 0.0153882 1.38149e-16 -0.000304425
0 -0.0153882 1.36928e-16 0.0205332
1.35525e-20 0.0154217 0.000114547 -0.000304706
-6.77626e-21 -0.0154218 0.000114884 0.0205284
0 -0.0149638 0.00384024 0.0205202
-9.41148e-22 0.0149638 0.00384027 -0.000304561
-6.77626e-21 0.0154552 2.28099e-16 -0.00030472
-6.77626e-21 -0.0154554 2.28503e-16 0.0205281
0 -0.0148468 0.00430527 0.0205199
6.77626e-21 0.0148469 0.00430529 -0.000304573
0 0.0154606 0.00140664 -0.000304521
-2.71051e-20 -0.0154606 0.00140663 0.0205533
2.71051e-20 -0.0152777 0.00281385 0.0205034
0 0.0152777 0.00281386 -0.000304638
2.71051e-20 0.0154333 0.00193355 -0.000304683
-2.71051e-20 -0.0154333 0.00193355 0.0204674
0 0.0156222 0.00048004 -0.000305518
-2.71051e-20 -0.0156222 0.000480036 0.0205188
2.71051e-20 -0.0152555 0.00350076 0.0205066
2.71051e-20 0.0152556 0.00350079 -0.000304625
-1.35525e-20 -0.0150546 0.00445233 0.0205339
6.77626e-21 0.0150547 0.00445239 -0.000304448
0 0.0157269 1.65675e-16 -0.000305058
6.77626e-21 -0.0157276 1.66089e-16 0.0205177
8.47033e-22 -0.0151604 0.00422301 0.0205372
2.82344e-22 0.0151605 0.00422311 -0.000304416
1.35525e-20 0.0156637 0.00166709 -0.000304689
1.35525e-20 -0.0156637 0.00166709 0.0204968
-3.38813e-22 -0.015616 0.00242546 0.020481
3.38813e-22 0.015616 0.00242547 -0.000304712
-5.64689e-22 0.0157781 0.000921737 -0.000305088
7.52918e-22 -0.0157782 0.000921692 0.0205189
5.64689e-22 -0.0155828 0.00315318 0.0205011
-5.64689e-22 0.0155828 0.00315319 -0.000304673
6.77626e-21 -0.0152441 0.00458644 0.0205173
0 0.0152443 0.00458654 -0.000304648
-6.77626e-21 0.0159533 3.83645e-05 -0.000305482
-6.77626e-21 -0.0159534 3.82981e-05 0.0205092
2.71051e-20 0.015843 0.00192285 -0.000304764
2.71051e-20 -0.015843 0.00192286 0.0204641
0 0.0159594 2.87839e-17 -0.000305482
-6.77626e-21 -0.0159594 2.84889e-17 0.0205092
-2.71051e-20 0.0159064 0.00142308 -0.000304733
2.71051e-20 -0.0159064 0.00142306 0.0205137
-1.12938e-21 -0.0155142 0.00388452 0.0205122
0 0.0155142 0.00388456 -0.000304646
-1.35525e-20 -0.0153266 0.00464478 0.0205147
0 0.0153267 0.00464485 -0.000304696
0 -0.01535 0.0046163 0.0205147
-1.35525e-20 0.0153501 0.00461639 -0.000304696
0 -0.0153665 0.00467306 0.0205182
-1.35525e-20 0.0153666 0.00467311 -0.000304672
-2.71051e-20 0.0160927 0.000505085 -0.000305438
0 -0.0160928 0.000505072 0.020501
-6.77626e-21 -0.0154309 0.00471863 0.0205121
1.35525e-20 0.015431 0.00471864 -0.000304726
6.77626e-21 -0.0161373 9.11538e-18 0.0205078
0 0.0161376 9.31637e-18 -0.000305411
-1.35525e-20 -0.0154622 0.00464659 0.0205127
0 0.0154622 0.00464666 -0.00030472
-7.05861e-22 -0.0155558 0.00433293 0.0205161
2.82344e-22 0.0155559 0.00433296 -0.000304663
0 -0.0159329 0.00276854 0.0204844
0 0.0159329 0.00276855 -0.00030475
5.42101e-20 -0.015876 0.00349495 0.020508
0 0.015876 0.00349497 -0.000304689
2.82344e-22 -0.0163022 0.00169287 0.0204864
1.41172e-22 0.0163022 0.00169287 -0.000304786
5.42101e-20 -0.0158805 0.00413133 0.0205066
-2.71051e-20 0.0158806 0.00413135 -0.00030472
-2.71051e-20 -0.0157464 0.00463062 0.0205103
2.71051e-20 0.0157465 0.00463067 -0.000304748
-1.35525e-20 -0.0156844 0.004898 0.0205027
-1.35525e-20 0.0156845 0.0048981 -0.00030482
0 -0.0164403 0.000192195 0.0205019
0 0.0164404 0.000192073 -0.000305299
-1.35525e-20 -0.0164599 2.18737e-18 0.0205017
1.35525e-20 0.0164599 2.23707e-18 -0.000305303
1.12938e-21 -0.0163055 0.00229239 0.0204864
0 0.0163055 0.00229239 -0.000304759
0 -0.0157621 0.0048391 0.0205019
1.35525e-20 0.0157621 0.00483922 -0.000304827
0 -0.0164587 0.00103727 0.0205046
6.77626e-21 0.0164587 0.00103728 -0.000304974
1.12938e-22 -0.0162201 0.00310503 0.0205013
3.38813e-22 0.0162201 0.00310505 -0.00030473
-2.71051e-20 -0.0157673 0.00495663 0.0205077
0 0.0157673 0.00495668 -0.000304795
1.35525e-20 0.0165552 1.89118e-18 -0.000305137
1.35525e-20 -0.0165552 1.82985e-18 0.0205103
1.35525e-20 0.0158425 0.00500991 -0.000304877
-1.35525e-20 -0.0158425 0.00500989 0.0205035
0 0.0158774 0.00492677 -0.000304873
0 -0.0158775 0.00492671 0.0205027
-2.25875e-21 -0.0161858 0.00381853 0.0205105
5.64689e-22 0.0161859 0.00381855 -0.000304727
0 0.0166929 0.000101665 -0.000305088
1.35525e-20 -0.0166931 0.000101735 0.020505
-1.35525e-20 0.0166941 -1.9757e-18 -0.000305088
1.35525e-20 -0.0166943 -1.99904e-18 0.020505
9.03502e-22 -0.0161388 0.00451629 0.0205082
-1.12938e-21 0.0161388 0.00451633 -0.000304791
0 -0.0165511 0.0027628 0.0205037
0 0.0165511 0.0027628 -0.000304728
2.71051e-20 -0.0160804 0.00488839 0.0204912
0 0.0160804 0.00488844 -0.000304953
-5.42101e-20 -0.0165195 0.00345964 0.0205123
-2.71051e-20 0.0165195 0.00345965 -0.000304746
0 -0.0160927 0.00518691 0.0205028
0 0.0160929 0.00518705 -0.000304919
0 -0.0161328 0.00514885 0.0205022
0 0.0161329 0.00514907 -0.000304919
6.77626e-21 -0.0161376 0.0052187 0.020505
6.77626e-21 0.0161377 0.00521878 -0.000304888
-2.71051e-20 -0.0164852 0.00415081 0.0205148
0 0.0164853 0.00415084 -0.000304756
-6.77626e-21 -0.0161812 0.00524952 0.0205097
-6.77626e-21 0.0161812 0.00524953 -0.000304871
-6.77626e-21 -0.0162 0.00521518 0.0205083
0 0.0162 0.00521526 -0.000304879
0 0.0169483 0.00175217 -0.000304773
-5.42101e-20 -0.0169483 0.00175217 0.0204969
-1.41172e-22 0.0168946 0.00247379 -0.000304793
-2.82344e-22 -0.0168959 0.00247492 0.0204884
0 0.0170685 0.000542394 -0.000304836
-5.42101e-20 -0.0170686 0.000542393 0.0205097
-5.64689e-22 -0.016348 0.00494369 0.0205076
1.41172e-22 0.0163681 0.00495112 -0.000304868
8.47033e-22 -0.0168537 0.00309992 0.0204999
-2.82344e-22 0.0168537 0.00309993 -0.00030479
0 -0.0165271 0.00473647 0.0205222
-2.71051e-20 0.0165271 0.0047365 -0.000304753
5.64689e-22 -0.0168198 0.00379489 0.0205068
0 0.0168198 0.00379489 -0.000304791
0 -0.0164532 0.00518907 0.0205125
0 0.0164532 0.0051891 -0.000304882
-1.35525e-20 -0.0164986 0.00547411 0.0205143
1.35525e-20 0.0164987 0.0054742 -0.000304858
0 -0.0168074 0.0044544 0.0205018
-3.38813e-21 0.0168075 0.00445442 -0.000304824
1.35525e-20 -0.0165401 0.00543882 0.0205127
1.35525e-20 0.0165402 0.00543896 -0.000304867
2.71051e-20 0.0171982 0.00274291 -0.000304866
-2.71051e-20 -0.0171982 0.00274291 0.0204669
0 -0.0165562 0.00551488 0.0205064
0 0.0165562 0.0055149 -0.0003049
0 -0.0171475 0.00343443 0.0205159
5.42101e-20 0.0171475 0.00343443 -0.00030482
0 0.0165954 0.00554259 -0.000304946
-1.35525e-20 -0.0165954 0.00554261 0.0204944
0 0.0166162 0.00550295 -0.000304944
-1.35525e-20 -0.0166162 0.00550291 0.020495
8.47033e-23 -0.0167942 0.00511228 0.0205054
-6.27432e-22 0.0168034 0.00511576 -0.000304878
0 0.0166838 0.00560512 -0.000304925
-6.77626e-21 -0.0166839 0.00560521 0.020501
-5.42101e-20 -0.0171381 0.00410853 0.0204857
0 0.0171382 0.00410853 -0.000304841
6.77626e-21 -0.0176356 5.15747e-05 0.0204961
-6.77626e-21 0.0176356 5.15594e-05 -0.000304882
0 -0.0176365 -8.88394e-19 0.0204961
0 0.0176365 -8.80501e-19 -0.000304882
-1.12938e-21 -0.0176257 0.00114318 0.0204919
0 0.0176257 0.00114318 -0.000304873
-6.77626e-21 0.017701 -1.17471e-20 -0.000304887
0 -0.017701 -1.19998e-20 0.0204944
0 0.0177564 5.70206e-05 -0.000304897
6.77626e-21 -0.0177564 5.70366e-05 0.020493
0 -0.0174948 0.00304299 0.0204898
-7.05861e-23 0.0174948 0.003043 -0.000304878
-2.71051e-20 -0.0171005 0.00478727 0.0204842
2.71051e-20 0.0171005 0.00478729 -0.000304945
0 0.01776 -9.77488e-21 -0.000304897
0 -0.01776 -9.99454e-21 0.0204929
-5.64689e-22 -0.0176226 0.00231708 0.0204822
0 0.0176226 0.00231708 -0.000304886
6.77626e-21 -0.016865 0.00573336 0.0205266
1.35525e-20 0.0168651 0.00573338 -0.000304775
-1.12938e-21 -0.0169917 0.00554745 0.0205392
0 0.0169918 0.00554746 -0.000304705
0 -0.0175404 0.00368248 0.0204959
1.12938e-21 0.0175404 0.00368248 -0.000304897
-5.64689e-22 -0.0174309 0.00445116 0.0204851
5.64689e-22 0.0174309 0.00445117 -0.000304939
1.35525e-20 -0.0170276 0.00584842 0.0205004
0 0.0170278 0.0058485 -0.000304994
-3.38813e-21 -0.0173594 0.00515914 0.0204956
2.25875e-21 0.0173594 0.00515917 -0.00030497
1.35525e-20 -0.0171315 0.00592198 0.0204945
0 0.0171316 0.00592202 -0.000305072
-1.35525e-20 -0.0171628 0.0058861 0.0204951
2.71051e-20 0.0171629 0.00588616 -0.00030507
0 -0.0171821 0.00595789 0.0205045
-1.35525e-20 0.0171822 0.00595791 -0.000305025
2.71051e-20 -0.017769 0.00410415 0.0204862
0 0.017769 0.00410415 -0.000304977
-5.42101e-20 -0.0182634 0.000578943 0.0204797
-1.0842e-19 0.0182634 0.000578939 -0.000304942
0 0.0173972 0.0056105 -0.000305018
0 -0.0173983 0.00561199 0.0205014
0 -0.0172648 0.00601707 0.0204852
0 0.0172648 0.00601705 -0.000305128
-1.35525e-20 -0.0173077 0.00592609 0.0204888
0 0.0173077 0.00592612 -0.000305111
0 0.0182204 0.00175681 -0.000304939
5.42101e-20 -0.0182204 0.00175681 0.0204807
-5.42101e-20 -0.0177285 0.00478169 0.0204837
5.42101e-20 0.0177285 0.0047817 -0.000304996
5.42101e-20 -0.0181282 0.00306192 0.0204924
-5.42101e-20 0.0181282 0.00306192 -0.000304984
9.88205e-22 0.0181211 0.00374048 -0.000304987
-7.05861e-22 -0.0181211 0.00374048 0.0204816
-5.42101e-20 -0.0177324 0.00540771 0.0204884
2.71051e-20 0.0177325 0.00540772 -0.000305068
-2.71051e-20 -0.0174849 0.00617225 0.0204762
1.35525e-20 0.0174849 0.00617229 -0.000305216
0 -0.0175758 0.00590987 0.0204906
0 0.0175758 0.00590988 -0.00030513
-5.64689e-22 -0.0180729 0.00442473 0.0204845
0 0.0180729 0.00442474 -0.00030501
0 -0.0175826 0.00610029 0.0204783
-1.35525e-20 0.0175826 0.00610033 -0.000305215
0 -0.0175873 0.00624642 0.0204911
2.71051e-20 0.0175873 0.00624644 -0.000305159
-1.12938e-21 -0.018047 0.00508937 0.0204973
-1.69407e-21 0.018047 0.00508938 -0.000305024
0 0.017673 0.00632955 -0.000305329
0 -0.017673 0.00632954 0.0204621
-2.71051e-20 0.0177235 0.00621993 -0.000305305
0 -0.0177235 0.00621991 0.0204672
0 0.0188362 3.90693e-05 -0.00030503
-6.77626e-21 -0.0188362 3.90686e-05 0.0204691
-6.77626e-21 -0.0188376 -1.39629e-21 0.0204691
6.77626e-21 0.0188376 -1.37533e-21 -0.00030503
-2.71051e-20 0.0184191 0.00406131 -0.000304986
2.71051e-20 -0.0184191 0.0040613 0.0204707
0 -0.0188782 -3.44889e-23 0.0204686
6.77626e-21 0.0188782 -3.56432e-23 -0.000305036
-5.64689e-22 -0.0188457 0.00115779 0.0204696
5.64689e-22 0.0188457 0.00115779 -0.000305028
-3.61401e-21 -0.017989 0.00579611 0.0204945
-2.71051e-21 0.017989 0.00579611 -0.000305125
0 -0.0189173 3.90222e-05 0.0204679
6.77626e-21 0.0189173 3.90242e-05 -0.000305041
6.77626e-21 -0.0189184 -4.2274e-23 0.0204679
6.77626e-21 0.0189184 -4.34052e-23 -0.000305041
8.47033e-22 -0.0188016 0.00239367 0.0204715
2.82344e-22 0.0188016 0.00239367 -0.000305055
2.71051e-20 -0.0179168 0.00619826 0.0204625
0 0.0179168 0.00619827 -0.000305365
0 -0.0178342 0.00647803 0.0204673
1.35525e-20 0.0178342 0.00647805 -0.000305334
2.71051e-20 -0.0183812 0.00473969 0.0204958
0 0.0183812 0.00473969 -0.000305082
0 -0.0179161 0.00640623 0.0204732
2.71051e-20 0.0179161 0.00640626 -0.000305312
0 -0.0179071 0.00654735 0.0204986
1.35525e-20 0.0179071 0.00654736 -0.00030518
-1.12938e-21 0.0187899 0.00359346 -0.000305064
-2.25875e-21 -0.0187899 0.00359346 0.0204861
-2.71051e-20 -0.0183614 0.0054084 0.02052
2.71051e-20 0.0183614 0.0054084 -0.000304954
1.35525e-20 0.0179797 0.00661798 -0.000305223
0 -0.0179797 0.00661798 0.0204906
0 0.0180436 0.00652848 -0.000305226
0 -0.0180436 0.00652847 0.0204916
1.41172e-22 -0.0187173 0.00436434 0.0204852
-1.27055e-21 0.0187173 0.00436434 -0.000305059
-1.50584e-21 -0.018177 0.00625308 0.0204946
1.50584e-21 0.018177 0.00625308 -0.000305204
0 -0.0181271 0.00676144 0.0204897
1.35525e-20 0.0181271 0.00676146 -0.000305232
2.71051e-20 -0.0183874 0.00602484 0.0205073
-2.71051e-20 0.0183874 0.00602485 -0.000305119
2.71051e-20 -0.0182481 0.00651393 0.0205101
0 0.0182481 0.00651394 -0.000305151
4.94103e-22 0.0187359 0.00501818 -0.000305101
6.35275e-22 -0.0187359 0.00501817 0.0204898
-1.35525e-20 -0.0182332 0.00669844 0.0204905
0 0.0182332 0.00669846 -0.000305236
0 -0.018217 0.00684899 0.0204932
-2.71051e-20 0.0182171 0.00684899 -0.000305206
-5.42101e-20 -0.0194643 0.000581954 0.0204578
-5.42101e-20 0.0194643 0.000581956 -0.000305127
-5.42101e-20 -0.0194401 0.00177497 0.02046
5.42101e-20 0.0194401 0.00177497 -0.000305103
1.12938e-21 -0.0186825 0.00571617 0.0205139
1.12938e-21 0.0186825 0.00571618 -0.000305087
2.71051e-20 0.018308 0.00693726 -0.000305401
1.35525e-20 -0.018308 0.00693726 0.020461
0 0.018365 0.00682515 -0.00030537
-1.35525e-20 -0.018365 0.00682514 0.0204679
0 0.0191534 0.00414674 -0.000305092
0 -0.0191534 0.00414674 0.0205257
0 -0.0194225 0.00303969 0.0204527
0 0.0194225 0.00303969 -0.000305198
0 0.01915 0.0045832 -0.000305111
0 -0.01915 0.0045832 0.0204541
0 -0.0186305 0.00640894 0.0205018
1.807e-21 0.0186305 0.00640895 -0.000305188
1.05879e-22 0.0193894 0.00369515 -0.000305273
-5.13514e-20 -0.0193886 0.00369336 0.0204769
2.71051e-20 -0.0185455 0.00680231 0.0204554
-2.71051e-20 0.0185455 0.00680231 -0.00030543
0 -0.019012 0.00537772 0.0204936
-2.71051e-20 0.019012 0.00537773 -0.000305192
-1.35525e-20 -0.0184497 0.00707482 0.0204597
-2.71051e-20 0.0184497 0.00707483 -0.000305415
1.35525e-20 -0.018538 0.00700337 0.0204658
0 0.018538 0.00700339 -0.000305389
0 -0.0193613 0.00436274 0.0204632
1.35525e-20 0.0193613 0.00436274 -0.000305311
-1.35525e-20 -0.0185249 0.0071478 0.0204894
-1.35525e-20 0.0185249 0.0071478 -0.000305247
2.71051e-20 -0.0189858 0.00603642 0.0205333
0 0.0189858 0.00603643 -0.000305081
0 0.018601 0.00722169 -0.000305301
-1.35525e-20 -0.018601 0.00722169 0.0204833
-1.35525e-20 0.0186688 0.00713006 -0.0003053
0 -0.0186688 0.00713005 0.0204842
0 0.0193578 0.00503068 -0.00030528
-7.05861e-22 -0.0193578 0.00503068 0.0204546
-2.71051e-20 -0.0195829 0.00413333 0.0204537
-2.71051e-20 0.0195829 0.00413333 -0.000305464
6.02335e-21 -0.0188026 0.00685908 0.0204875
0 0.0188026 0.00685908 -0.000305273
-3.38813e-21 0.0200409 2.97531e-05 -0.000305223
-3.38813e-21 -0.0200409 2.97437e-05 0.0204475
-3.38813e-21 0.0200414 5.6205e-24 -0.000305223
-6.77626e-21 -0.0200414 5.63319e-24 0.0204475
-6.77626e-21 -0.020072 -1.60504e-25 0.020447
-6.77626e-21 0.020072 -1.56925e-25 -0.000305228
-1.12938e-21 0.0200566 0.00116432 -0.000305221
-1.12938e-21 -0.0200566 0.00116432 0.0204486
0 -0.0195648 0.00457553 0.0204255
0 0.0195648 0.00457553 -0.000305529
0 -0.020102 2.93804e-05 0.0204465
-6.77626e-21 0.020102 2.93892e-05 -0.000305232
0 -0.0201024 -1.7309e-25 0.0204465
-3.38813e-21 0.0201024 -1.69595e-25 -0.000305232
2.71051e-20 -0.0187404 0.00735707 0.0204808
0 0.0187404 0.00735708 -0.000305311
0 -0.0190162 0.00663681 0.0205013
2.82344e-21 -0.0193208 0.00568921 0.0204959
1.12938e-21 0.0193208 0.00568921 -0.000305194
0 0.0190162 0.00663681 -0.000305187
-2.71051e-20 -0.0188683 0.00711623 0.0205023
-2.71051e-20 0.0188683 0.00711623 -0.00030523
5.64689e-22 0.0200437 0.0023892 -0.000305257
-5.64689e-22 -0.0200437 0.0023892 0.020449
-1.35525e-20 -0.0188522 0.00729488 0.0204811
-1.35525e-20 0.0188522 0.0072949 -0.000305313
1.35525e-20 -0.0188339 0.00744777 0.0204824
-2.71051e-20 0.0188339 0.00744777 -0.000305269
2.25875e-21 -0.0193083 0.00633279 0.0205175
-5.64689e-22 0.0193083 0.00633279 -0.000305147
0 -0.0196626 0.005336 0.0204476
-2.71051e-20 0.0196626 0.005336 -0.000305261
0 0.0189281 0.00753929 -0.000305479
-2.71051e-20 -0.0189281 0.0075393 0.0204474
1.35525e-20 0.018987 0.00742577 -0.000305445
0 -0.018987 0.00742576 0.0204549
-5.64689e-21 0.0200608 0.00364085 -0.00030539
2.25875e-21 -0.0200608 0.00364085 0.0204463
0 -0.0200043 0.00434223 0.0204345
0 0.020005 0.00434221 -0.000305517
-9.03502e-22 -0.0192547 0.00701653 0.0204923
0 0.0192547 0.00701654 -0.000305236
2.71051e-20 -0.0196313 0.0059969 0.0205075
-2.71051e-20 0.0196313 0.0059969 -0.000305243
2.71051e-20 -0.019165 0.00740556 0.0204406
-2.71051e-20 0.019165 0.00740556 -0.000305499
-1.35525e-20 -0.0190666 0.0076737 0.0204444
1.35525e-20 0.0190666 0.00767372 -0.000305481
-1.35525e-20 -0.0191579 0.00760273 0.0204505
-1.35525e-20 0.0191579 0.00760276 -0.000305449
-1.35525e-20 -0.0191443 0.00774911 0.0204739
0 0.0191443 0.00774911 -0.000305287
2.25875e-21 0.0200588 0.00492596 -0.00030543
-4.51751e-21 -0.0200588 0.00492596 0.0204431
5.42101e-20 0.0206698 0.000582857 -0.000305327