# U  POINT_DATA 14060
# x  y  z  U_x  U_y  U_z
4.06576e-20 0.0106418 6.54156e-08 0 0 0
-4.06576e-20 -0.0106418 6.54156e-08 0 0 0
0 -0.0106418 0.000314253 0 0 0
1.69407e-21 0.0106418 0.000314436 0 0 0
-1.01644e-20 -0.0106418 0.000346253 0 0 0
-3.38813e-21 0.0106418 0.000346447 0 0 0
0 -0.0106418 0.000664285 0 0 0
2.71051e-20 0.0106418 0.000664666 0 0 0
-1.69407e-21 0.0106696 0.000329843 -7.83394e-07 3.68797e-07 4.1504e-08
0 -0.0106696 0.000329653 0.000383515 -0.000150228 2.82391e-06
-5.0822e-21 -0.0106418 0.000994701 0 0 0
-1.69407e-21 0.0106418 0.000995075 0 0 0
-1.69407e-21 -0.0106418 0.00102868 0 0 0
1.69407e-21 0.0106418 0.00102909 0 0 0
-1.35525e-20 -0.0106651 0.00100858 0.000652024 -0.000248232 2.10528e-06
1.86347e-20 0.0106651 0.00100897 -7.87683e-06 3.02316e-06 3.85048e-08
0 -0.0106418 0.00135925 0 0 0
-1.35525e-20 0.0106418 0.00135964 0 0 0
-3.38813e-21 -0.0106418 0.00170831 0 0 0
0 0.0106418 0.00170849 0 0 0
-6.77626e-21 -0.0106418 0.00174299 0 0 0
2.20229e-20 0.0106418 0.0017432 0 0 0
0 -0.0106634 0.00171659 0.00056464 -0.000219935 1.40665e-05
6.77626e-21 0.0106634 0.00171678 -7.84947e-06 3.10383e-06 2.22008e-07
0 0.0106417 0.002087 0 0 0
0 -0.0106417 0.002087 0 0 0
1.35525e-20 0.0108523 6.905e-08 0 0 0
2.71051e-20 -0.0108523 6.90492e-08 0 0 0
4.51751e-21 -0.0108537 0.000983441 0.00571162 -0.00217306 1.51306e-05
0 0.0108538 0.000983846 -6.88533e-05 2.65061e-05 2.94357e-07
-7.90564e-21 0.0109302 0.000328664 -1.27801e-05 5.34794e-06 2.77992e-07
-5.64689e-21 -0.0109302 0.000328466 0.00351373 -0.00135262 1.45798e-05
-9.03502e-21 -0.010876 0.00165246 0.00606213 -0.00232957 0.000119997
-2.25875e-21 0.010876 0.0016527 -8.36659e-05 3.29105e-05 1.69584e-06
-1.35525e-20 0.0110233 5.24961e-08 0 0 0
-2.03288e-20 -0.0110233 5.24971e-08 0 0 0
0 -0.0108444 0.00218791 0 0 0
-3.38813e-21 0.0108444 0.00218791 0 0 0
-6.77626e-21 0.010932 0.00223158 0 0 0
3.38813e-21 -0.010932 0.00223159 0 0 0
3.38813e-21 -0.0109511 0.00214941 0.00227898 -0.00077328 4.48731e-05
-6.77626e-21 0.0109511 0.00214943 -2.96337e-05 1.13628e-05 9.0472e-07
0 0.0111742 4.69561e-08 0 0 0
0 -0.0111743 4.69564e-08 0 0 0
-2.25875e-21 -0.0111377 0.00125157 0.0115756 -0.00426867 1.57884e-05
-9.03502e-21 0.0111378 0.00125193 -0.000147363 5.63092e-05 3.44353e-07
-6.77626e-21 -0.0111894 0.000675227 0.00913391 -0.00335314 -3.17304e-05
-1.01644e-20 0.0111894 0.00067554 -7.9078e-05 3.0104e-05 8.1612e-09
1.35525e-20 0.0112788 0.000114381 -2.08909e-06 7.40965e-07 8.69926e-08
-1.35525e-20 -0.0112788 0.000114338 0.00269839 -0.000971279 -3.48103e-05
0 0.0112886 3.37067e-08 0 0 0
1.35525e-20 -0.0112886 3.37059e-08 0 0 0
-6.77626e-21 -0.0111945 0.00167214 0.0122635 -0.00447606 4.59239e-05
0 0.0111945 0.00167239 -0.00016794 6.44742e-05 6.80073e-07
2.25875e-21 -0.011163 0.00198697 0.00849876 -0.00296839 0.000130178
-5.64689e-21 0.011163 0.00198709 -0.000112954 4.32904e-05 2.42966e-06
-2.71051e-20 0.011131 0.00233069 0 0 0
0 -0.011131 0.00233069 0 0 0
0 0.0114369 0.00031708 -5.75328e-06 2.00836e-06 5.86005e-08
0 -0.0114369 0.00031693 0.00723899 -0.00259459 -5.63839e-05
-2.71051e-20 -0.011421 0.000929732 0.0163757 -0.00590628 -5.96748e-05
-2.71051e-20 0.011421 0.000930046 -0.000185515 6.9279e-05 7.91421e-08
-2.71051e-20 -0.0114038 0.0015068 0.0170652 -0.00618256 -2.13786e-05
-2.71051e-20 0.0114039 0.00150708 -0.000236683 8.956e-05 -5.21658e-07
-1.35525e-20 -0.0113457 0.00243752 0 0 0
1.35525e-20 0.0113457 0.00243753 0 0 0
-1.35525e-20 -0.0116364 1.34784e-08 0 0 0
-1.35525e-20 0.0116364 1.34759e-08 0 0 0
0 -0.0116375 9.54413e-05 0.00225279 -0.000810888 -2.90619e-05
0 0.0116376 9.54576e-05 -1.74375e-06 6.18479e-07 7.26122e-08
0 -0.0114303 0.0024797 0 0 0
-6.77626e-21 0.0114304 0.00247971 0 0 0
5.64689e-21 -0.0115074 0.00225281 0.00813386 -0.00308833 0.000222986
4.51751e-21 0.0115075 0.00225288 -0.000124707 5.13736e-05 3.5427e-06
-1.35525e-20 -0.0117301 3.25942e-09 0 0 0
0 0.0117301 3.26008e-09 0 0 0
0 -0.0117195 0.000610229 0.0141613 -0.00515596 -3.10703e-05
-6.77626e-21 0.0117195 0.000610449 -0.000114364 4.23482e-05 5.36787e-07
4.51751e-21 -0.0117028 0.00122422 0.0211405 -0.00769053 -3.60604e-05
-9.03502e-21 0.0117028 0.00122449 -0.000265838 9.92742e-05 9.92945e-07
0 0.0118194 8.97007e-05 -1.69357e-06 6.36314e-07 -2.12188e-08
-1.35525e-20 -0.0118195 8.9705e-05 0.00281334 -0.00103703 -1.39583e-05
0 0.01182 3.03178e-09 0 0 0
0 -0.01182 3.03111e-09 0 0 0
-4.51751e-21 -0.0116772 0.0018372 0.0177307 -0.00651804 5.96728e-05
2.25875e-21 0.0116772 0.00183735 -0.000252534 9.54471e-05 2.07384e-06
0 -0.0116033 0.00256579 0 0 0
2.71051e-20 0.0116033 0.00256582 0 0 0
-2.71051e-20 0.0120204 0.00030712 -5.64365e-06 2.1429e-06 -1.41207e-08
-2.71051e-20 -0.0120205 0.000307029 0.00937395 -0.00347242 -5.08739e-06
0 -0.0117485 0.00263815 0 0 0
-1.35525e-20 0.0117486 0.00263817 0 0 0
0 -0.0120156 0.000917001 0.0241472 -0.00882617 -1.288e-05
0 0.0120156 0.000917181 -0.000268642 9.89966e-05 1.95109e-06
1.50584e-21 -0.0118318 0.00229966 0.0126202 -0.0047505 0.000157659
0 0.0118319 0.00229972 -0.000191068 7.25139e-05 3.25274e-06
0 -0.0117786 0.00256188 0.00389912 -0.00149272 9.81459e-08
0 0.0117787 0.00256192 -5.76424e-05 2.08994e-05 4.35933e-07
0 -0.0119886 0.00155401 0.0273825 -0.00998531 -5.06629e-05
2.71051e-20 0.0119887 0.00155417 -0.00037728 0.000141058 2.57116e-06
0 -0.012032 0.00210267 0.0208435 -0.00769815 2.59394e-05
0 0.012032 0.00210275 -0.000313726 0.000115807 3.31683e-06
0 0.0122392 1.95024e-09 0 0 0
-1.35525e-20 -0.0122393 1.95023e-09 0 0 0
1.35525e-20 0.0122409 8.16763e-05 -1.54209e-06 5.79397e-07 -1.93208e-08
-1.35525e-20 -0.012241 8.16705e-05 0.00256139 -0.000944153 -1.27082e-05
0 -0.011987 0.00253932 0.00896121 -0.00337738 9.31184e-05
-2.71051e-20 0.0119871 0.00253936 -0.000131953 4.78736e-05 2.15124e-06
0 0.012321 1.74247e-09 0 0 0
0 -0.0123211 1.74247e-09 0 0 0
0 -0.0120123 0.00276923 0 0 0
0 0.0120124 0.00276924 0 0 0
4.51751e-21 -0.0123328 0.00060351 0.0185604 -0.00680829 1.47464e-06
0 0.0123328 0.000603616 -0.000155857 5.72634e-05 1.1886e-06
0 -0.0120725 0.00270714 0.00393016 -0.0015046 9.89272e-08
-1.35525e-20 0.0120726 0.00270715 -5.81093e-05 2.10687e-05 4.39464e-07
4.51751e-21 -0.0123288 0.00123239 0.0298104 -0.0109006 -3.79402e-05
2.25875e-21 0.0123288 0.00123252 -0.000381858 0.000141975 3.52626e-06
1.35525e-20 0.0124027 1.58608e-09 0 0 0
-1.35525e-20 -0.0124029 1.58605e-09 0 0 0
0 0.012405 7.77949e-05 -1.55813e-06 6.01845e-07 -9.73699e-09
1.35525e-20 -0.0124051 7.77972e-05 0.00283674 -0.00104826 4.70567e-06
9.03502e-21 -0.0123346 0.00185417 0.0291409 -0.0106582 -5.375e-05
-1.12938e-21 0.0123346 0.00185426 -0.00042546 0.000159703 4.54668e-06
0 -0.0121505 0.00283802 0 0 0
-1.35525e-20 0.0121505 0.00283803 0 0 0
-1.12938e-21 -0.0123063 0.00240165 0.0184438 -0.00677046 3.89031e-05
3.38813e-21 0.0123064 0.00240169 -0.000280959 0.000106502 3.95114e-06
-1.35525e-20 -0.0122683 0.00289782 0 0 0
-1.35525e-20 0.0122684 0.00289784 0 0 0
1.35525e-20 -0.0123167 0.00277203 0.00681371 -0.00241181 4.84721e-05
-1.35525e-20 0.0123167 0.00277205 -0.000107475 4.21204e-05 2.28581e-06
0 0.0126427 0.000300471 -5.95477e-06 2.27543e-06 1.60755e-09
0 -0.0126428 0.000300435 0.0107516 -0.00396669 2.65425e-05
2.71051e-20 -0.0126591 0.000913392 0.0304506 -0.0111424 -8.04786e-06
-2.71051e-20 0.012659 0.000913471 -0.000351486 0.000128663 2.832e-06
2.71051e-20 -0.0126618 0.00155274 0.0374648 -0.0137218 -8.06243e-05
0 0.0126618 0.00155281 -0.000533971 0.000200684 6.82544e-06
2.71051e-20 -0.0125263 0.00271731 0.0140893 -0.00512511 0.00012399
0 0.0125263 0.00271734 -0.000217772 8.67326e-05 4.75511e-06
2.71051e-20 0.0124665 0.00299812 0 0 0
-1.35525e-20 -0.0124665 0.00299814 0 0 0
0 -0.0126643 0.00218644 0.0316417 -0.0115008 -0.000114671
2.71051e-20 0.0126643 0.00218649 -0.000487706 0.000185614 5.65623e-06
6.77626e-21 0.0128706 4.59712e-10 0 0 0
-6.77626e-21 -0.0128707 4.59687e-10 0 0 0
0 0.0128741 6.76249e-05 -1.35446e-06 5.23174e-07 -8.4642e-09
-6.77626e-21 -0.0128742 6.76189e-05 0.00246564 -0.000911124 4.09008e-06
-2.71051e-20 0.0125733 0.00289917 -0.000109457 4.28973e-05 2.32797e-06
1.35525e-20 -0.0125733 0.00289922 0.00693673 -0.00245536 4.93473e-05
1.35525e-20 0.0129417 3.22177e-10 0 0 0
0 -0.0129418 3.22144e-10 0 0 0
-1.35525e-20 0.0125996 0.00306574 0 0 0
0 -0.0125996 0.00306572 0 0 0
-1.12938e-21 0.0129729 0.000593308 -0.000192977 7.00953e-05 1.10742e-06
-2.25875e-21 -0.0129729 0.000593273 0.021769 -0.00799936 1.36079e-05
0 0.0130097 3.00406e-10 0 0 0
-6.77626e-21 -0.0130097 3.00375e-10 0 0 0
0 0.0130126 6.19331e-05 -1.33955e-06 6.00921e-07 3.22527e-08
0 -0.0130126 6.19352e-05 0.00249858 -0.000926679 5.83012e-06
1.12938e-21 -0.0129928 0.00122118 0.0370577 -0.0135811 -5.64657e-05
1.12938e-21 0.0129928 0.00122123 -0.000495531 0.000184153 5.0731e-06
0 -0.0127131 0.00312274 0 0 0
0 0.0127131 0.00312278 0 0 0
-1.35525e-20 -0.0127497 0.00301636 0.00598606 -0.0021818 0.00010392
-1.35525e-20 0.0127497 0.00301635 -0.000105639 4.40157e-05 2.83025e-06
-2.25875e-21 -0.0129973 0.00187881 0.0394028 -0.0143539 -0.000145831
-2.25875e-21 0.0129973 0.00187885 -0.000599583 0.000227577 7.24043e-06
-4.96926e-21 -0.0129622 0.00258487 0.0251343 -0.00913634 3.03393e-05
-9.03502e-22 0.0129622 0.0025849 -0.000410547 0.000158314 6.1155e-06
2.71051e-20 -0.0129338 0.00296499 0.012473 -0.00453154 0.000280448
2.71051e-20 0.0129338 0.00296502 -0.000221405 8.92129e-05 5.85394e-06
0 0.0132745 0.000290697 -6.24049e-06 2.71457e-06 1.72592e-07
2.71051e-20 -0.0132746 0.000290697 0.0115417 -0.00425544 1.16837e-05
0 0.0133097 0.000892132 -0.000417589 0.000150057 1.42025e-06
0 -0.0133098 0.000892103 0.034865 -0.0128281 2.23782e-05
-6.77626e-21 -0.0129628 0.00324855 0 0 0
6.77626e-21 0.0129628 0.00324857 0 0 0
0 -0.0130138 0.00319442 0.00382777 -0.00139514 6.64511e-05
6.77626e-21 0.0130138 0.00319445 -6.75195e-05 2.81329e-05 1.80897e-06
0 -0.0133311 0.00153426 0.0455869 -0.0166824 -0.000162745
5.42101e-20 0.0133311 0.0015343 -0.000682463 0.000258519 9.24937e-06
-1.35525e-20 -0.0130334 0.00328409 0 0 0
0 0.0130335 0.00328412 0 0 0
0 -0.0133253 0.00221294 0.0432417 -0.0156284 -0.000227025
-2.71051e-20 0.0133254 0.00221295 -0.000698499 0.000267103 7.24088e-06
6.77626e-21 -0.0130971 0.00331595 0 0 0
-6.77626e-21 0.0130971 0.00331598 0 0 0
1.35525e-20 -0.0131128 0.00327452 0.00277185 -0.00103402 -2.0854e-05
0 0.0131128 0.00327455 -4.61253e-05 1.71697e-05 3.38845e-07
0 0.0135215 4.37567e-11 0 0 0
-6.77626e-21 -0.0135215 4.37417e-11 0 0 0
6.77626e-21 0.013525 4.46982e-05 -9.6678e-07 4.33696e-07 2.32774e-08
0 -0.013525 4.46896e-05 0.00180286 -0.000668652 4.20676e-06
7.52918e-22 -0.01322 0.00300113 0.017571 -0.00640477 0.00013808
2.25875e-21 0.01322 0.00300115 -0.00030357 0.000116537 5.95718e-06
0 -0.0135708 2.7414e-11 0 0 0
0 0.0135708 2.74242e-11 0 0 0
0 -0.0136156 2.60779e-11 0 0 0
6.77626e-21 0.0136156 2.60872e-11 0 0 0
6.77626e-21 -0.0136174 3.86816e-05 0.00163508 -0.000684857 -2.15835e-05
0 0.0136174 3.86925e-05 -9.2677e-07 4.17659e-07 1.6557e-08
-2.25875e-21 0.013613 0.000567026 -0.000217093 7.48577e-05 7.80789e-07
0 -0.0136131 0.000567017 0.023551 -0.00881031 -3.73585e-05
-2.71051e-20 -0.0133842 0.00278357 0.0289443 -0.0105725 1.39568e-05
2.71051e-20 0.0133842 0.00278359 -0.000501037 0.000190257 7.68924e-06
-2.25875e-21 0.0136535 0.00118312 -0.000587364 0.000216589 6.1696e-06
-5.64689e-22 -0.0136536 0.00118311 0.0424112 -0.0156186 -0.000109629
2.71051e-20 -0.0133578 0.00322878 0.0118325 -0.00430895 0.000110472
-5.42101e-20 0.0133579 0.00322881 -0.000197294 7.39225e-05 4.58516e-06
-2.25875e-21 -0.0136671 0.00185452 0.0490377 -0.017847 -0.000242464
-4.51751e-21 0.0136672 0.00185453 -0.00077788 0.000298156 9.84107e-06
1.35525e-20 -0.0134202 0.00347787 0 0 0
0 0.0134203 0.00347791 0 0 0
0 -0.0134522 0.00343713 0.0031889 -0.0011896 -2.39916e-05
0 0.0134523 0.00343717 -5.30623e-05 1.97519e-05 3.89807e-07
0 0.0139 0.000270267 -6.48059e-06 2.53091e-06 2.73897e-07
-2.71051e-20 -0.0139 0.000270258 0.0112866 -0.00470284 -0.000171509
5.64689e-22 -0.0136756 0.0025133 0.0420577 -0.0151821 -0.000197723
0 0.0136756 0.00251332 -0.000709697 0.000272274 8.59441e-06
0 -0.0134921 0.00351385 0 0 0
-1.35525e-20 0.0134922 0.00351387 0 0 0
-2.71051e-20 0.0139532 0.000842554 -0.000449476 0.00014809 1.2482e-06
-5.42101e-20 -0.0139532 0.000842545 0.0371689 -0.013681 -7.08252e-06
5.64689e-22 -0.0136462 0.00307161 0.0246412 -0.00889805 -3.05565e-05
-5.64689e-22 0.0136463 0.00307162 -0.000425535 0.00016462 7.11239e-06
0 -0.0135602 0.00354792 0 0 0
-6.77626e-21 0.0135603 0.00354795 0 0 0
0 -0.0135939 0.00346713 0.0055824 -0.00189234 -1.01362e-05
-1.35525e-20 0.013594 0.00346717 -0.000100007 3.92852e-05 1.87567e-06
-2.71051e-20 0.0139954 0.00147861 -0.000804157 0.000311474 1.28649e-05
0 -0.0139954 0.00147861 0.0521817 -0.0193394 -0.000293417
5.42101e-20 -0.0139994 0.00216676 0.0550852 -0.0197307 -0.000286796
0 0.0139994 0.00216678 -0.000924729 0.00035499 1.00942e-05
0 0.0141777 1.4792e-12 0 0 0
-1.69407e-21 -0.0141778 1.47682e-12 0 0 0
0 0.0141787 1.2541e-05 -3.00385e-07 1.35372e-07 5.36645e-09
0 -0.0141789 1.25123e-05 0.000528899 -0.000221531 -6.98162e-06
-1.69407e-21 0.0141923 1.02466e-12 0 0 0
1.69407e-21 -0.0141924 1.02347e-12 0 0 0
0 0.0142041 9.50757e-06 -1.20424e-07 -3.89492e-08 5.19758e-08
0 -0.0142042 9.48552e-06 0.000396097 -0.00014778 -3.09707e-05
0 0.0142051 1.0097e-12 0 0 0
-1.69407e-21 -0.0142052 1.00857e-12 0 0 0
-1.69407e-22 0.0142399 0.000510993 -0.000208884 6.01357e-05 6.11708e-06
5.64689e-23 -0.01424 0.000510997 0.023025 -0.00864906 -0.000235092
0 -0.0138494 0.00338134 0.0178184 -0.00626848 2.21933e-05
0 0.0138495 0.00338137 -0.000310516 0.000125431 7.03976e-06
-2.71051e-20 -0.0139915 0.00283632 0.042667 -0.0153912 -0.000311351
5.42101e-20 0.0139915 0.00283633 -0.000741775 0.000287132 9.45517e-06
0 -0.0138215 0.00367867 0 0 0
-1.35525e-20 0.0138216 0.0036787 0 0 0
0 0.0143091 0.00109617 -0.000623917 0.000216651 1.31367e-05
2.82344e-22 -0.0143102 0.00109467 0.044792 -0.0165836 -0.00016019
-1.35525e-20 -0.013893 0.00360484 0.00626747 -0.00212457 -1.13801e-05
0 0.0138931 0.00360489 -0.000112272 4.41032e-05 2.1057e-06
0 -0.0143537 7.6488e-13 0 0 0
-1.69407e-21 0.0143541 7.64998e-13 0 0 0
-1.35525e-20 -0.0139056 0.00372066 0 0 0
0 0.0139057 0.00372068 0 0 0
1.41172e-21 -0.0143405 0.00177729 0.0573723 -0.0209049 -0.000389756
-8.47033e-22 0.0143405 0.0017773 -0.000929231 0.000356773 1.04355e-05
-2.71051e-20 0.014476 0.000224599 -2.82332e-06 -5.91229e-08 1.03798e-06
-5.42101e-20 -0.0144761 0.000224598 0.00922802 -0.00339795 -0.000710873
0 -0.0139819 0.00376071 0 0 0
0 0.013982 0.00376072 0 0 0
0 -0.0140112 0.00368366 0.00556255 -0.00191473 2.73985e-05
1.35525e-20 0.0140113 0.0036837 -0.000109216 4.578e-05 2.18693e-06
1.12938e-21 -0.0143223 0.00249857 0.0555161 -0.0199677 -0.000397791
1.69407e-21 0.0143224 0.00249858 -0.000955248 0.000370506 7.07239e-06
-2.71051e-20 0.014582 0.000746675 -0.000409353 0.000101212 2.20008e-05
2.71051e-20 -0.0145821 0.000746673 0.0361176 -0.0134522 4.69187e-06
1.807e-21 -0.0142718 0.00323775 0.0328449 -0.0117067 -0.000169379
-4.51751e-22 0.0142719 0.00323777 -0.000597834 0.00023383 7.23513e-06
0 -0.0142272 0.00361841 0.0155652 -0.0053361 0.000187261
2.71051e-20 0.0142272 0.00361844 -0.000308904 0.000126071 7.2745e-06
0 0.0146963 0.000425145 -0.000131412 3.24778e-05 5.06952e-06
3.01167e-21 -0.0146964 0.000425144 0.0209221 -0.00783551 -0.000340556
0 0.0146847 0.00134648 -0.000857058 0.000318004 1.62432e-05
0 -0.0146847 0.00134648 0.0546427 -0.0202058 -0.000356303
0 0.014768 2.53725e-05 -3.16598e-07 8.73715e-08 9.65201e-08
0 -0.0147681 2.54118e-05 0.0010276 -0.000373389 -7.79746e-05
0 0.0147706 9.09601e-14 0 0 0
0 -0.0147706 9.09569e-14 0 0 0
-6.77626e-21 0.0148059 6.69883e-15 0 0 0
0 -0.014806 6.66559e-15 0 0 0
0 -0.014659 0.00210816 0.0670399 -0.024145 -0.000604372
0 0.014659 0.00210816 -0.00112206 0.000438067 2.96497e-06
-6.77626e-21 -0.0142865 0.00391553 0 0 0
0 0.0142866 0.00391558 0 0 0
0 -0.0143135 0.00388585 0.00262612 -0.000903956 1.2935e-05
-6.77626e-21 0.0143136 0.00388592 -5.15389e-05 2.16036e-05 1.03201e-06
0 0.0148347 4.54511e-05 1.24412e-08 -7.38078e-07 -9.91158e-07
0 -0.0148348 4.55279e-05 0.00250328 -0.000959514 -3.29714e-05
0 0.0148461 5.76636e-15 0 0 0
0 -0.0148463 5.73764e-15 0 0 0
0 -0.0143216 0.00393365 0 0 0
0 0.0143217 0.00393369 0 0 0
-6.77626e-21 -0.0143519 0.00395506 0 0 0
6.77626e-21 0.0143519 0.00395508 0 0 0
0 -0.014364 0.00393203 0.00200666 -0.00074247 -2.27044e-05
0 0.0143641 0.00393207 -3.58016e-05 1.42986e-05 3.97357e-07
-2.71051e-20 -0.014635 0.00283843 0.0578887 -0.0208269 -0.000400542
0 0.014635 0.00283845 -0.00104095 0.000405427 5.45906e-06
8.47033e-21 0.0144995 0.00366943 -0.000423658 0.000165525 7.47716e-06
8.47033e-22 0.0145102 0.00366649 -0.000427733 0.000166892 7.41819e-06
5.64689e-22 -0.0145197 0.00367384 0.0226037 -0.00800911 -4.0737e-05
2.71051e-20 0.0150122 0.000330156 -1.02575e-07 4.86823e-08 -6.73082e-06
0 -0.0150123 0.000330152 0.0184352 -0.00704173 -0.000288694
1.69407e-21 0.0145873 0.00370018 -0.000449489 0.000174046 7.19131e-06
-2.71051e-20 -0.0146766 0.00345532 0.0369673 -0.0131161 -0.000450702
5.42101e-20 0.0146766 0.00345534 -0.000703228 0.000268718 7.06905e-06
1.69407e-22 0.0150077 0.00170828 -0.0010285 0.000395611 -4.39036e-06
-5.64689e-22 -0.0150077 0.00170827 0.0630662 -0.023089 -0.000392873
6.32451e-21 0.0150925 0.000854694 -0.000421366 0.000149086 3.78725e-06
9.93852e-21 -0.0150925 0.000854681 0.0379535 -0.0142259 -0.000236007
5.42101e-20 -0.0146272 0.00391091 0.0149018 -0.00545026 0.000152203
0 0.0146272 0.00391095 -0.000273473 0.000107042 8.23241e-06
1.01644e-21 -0.0149891 0.00242097 0.0661716 -0.0239962 -0.000502035
-1.24231e-21 0.0149891 0.00242099 -0.00116268 0.000451624 -2.92476e-06
8.47033e-22 -0.0149586 0.00315962 0.0543297 -0.019479 -0.00055966
-3.76459e-22 0.0149587 0.00315962 -0.00100603 0.00038707 9.21269e-07
-6.77626e-21 -0.014702 0.00420283 0 0 0
0 0.0147021 0.00420291 0 0 0
-6.77626e-21 -0.0152975 8.17222e-05 0.00449337 -0.00172232 -5.91834e-05
-6.77626e-21 0.0152978 8.14897e-05 2.2306e-08 -1.32331e-06 -1.77706e-06
-6.77626e-21 -0.0147323 0.00417569 0.00308461 -0.00114131 -3.49009e-05
0 0.0147325 0.0041758 -5.50354e-05 2.19803e-05 6.1083e-07
1.35525e-20 -0.015314 2.16441e-15 0 0 0
1.35525e-20 0.0153142 2.17317e-15 0 0 0
0 -0.0147475 0.004235 0 0 0
0 0.0147476 0.00423506 0 0 0
0 -0.014778 0.00425658 0 0 0
-6.77626e-21 0.0147781 0.00425663 0 0 0
0 -0.014793 0.00422587 0.00214046 -0.000748684 3.42712e-05
6.77626e-21 0.0147931 0.00422594 -4.7874e-05 1.80627e-05 1.14154e-06
0 0.0153882 1.38149e-16 0 0 0
0 -0.0153882 1.36928e-16 0 0 0
1.35525e-20 0.0154217 0.000114547 -6.74464e-06 3.86337e-06 6.26081e-06
-6.77626e-21 -0.0154218 0.000114884 0.00568055 -0.00234799 -0.000113949
0 -0.0149638 0.00384024 0.0282789 -0.00995544 -0.00022665
-9.41148e-22 0.0149638 0.00384027 -0.000547232 0.000206143 5.18214e-06
-6.77626e-21 0.0154552 2.28099e-16 0 0 0
-6.77626e-21 -0.0154554 2.28503e-16 0 0 0
0 -0.0148468 0.00430527 0 0 0
6.77626e-21 0.0148469 0.00430529 0 0 0
0 0.0154606 0.00140664 -0.000963469 0.000372433 -3.17079e-05
-2.71051e-20 -0.0154606 0.00140663 0.0623762 -0.0229392 -0.000211896
2.71051e-20 -0.0152777 0.00281385 0.0721205 -0.0261792 -0.000631915
0 0.0152777 0.00281386 -0.0013303 0.000513199 -6.80591e-06
2.71051e-20 0.0154333 0.00193355 -0.00124066 0.000479927 -1.87961e-05
-2.71051e-20 -0.0154333 0.00193355 0.0721495 -0.0265971 -0.000349591
0 0.0156222 0.00048004 -1.8921e-05 1.1114e-05 1.92311e-05
-2.71051e-20 -0.0156222 0.000480036 0.0248809 -0.0100133 -0.000423171
2.71051e-20 -0.0152555 0.00350076 0.0548258 -0.0193907 -0.000838921
2.71051e-20 0.0152556 0.00350079 -0.00104206 0.000396188 -2.41101e-06
-1.35525e-20 -0.0150546 0.00445233 0 0 0
6.77626e-21 0.0150547 0.00445239 0 0 0
0 0.0157269 1.65675e-16 0 0 0
6.77626e-21 -0.0157276 1.66089e-16 0 0 0
8.47033e-22 -0.0151604 0.00422301 0.0186548 -0.00640958 9.38755e-05
2.82344e-22 0.0151605 0.00422311 -0.000366668 0.000129048 1.00771e-05
1.35525e-20 0.0156637 0.00166709 -0.00113464 0.000439668 -2.93183e-05
1.35525e-20 -0.0156637 0.00166709 0.0683367 -0.0252003 -0.000284531
-3.38813e-22 -0.015616 0.00242546 0.0757843 -0.0276659 -0.000560372
3.38813e-22 0.015616 0.00242547 -0.00140703 0.000537403 -1.83421e-05
-5.64689e-22 0.0157781 0.000921737 -0.000469408 0.000185935 -1.18676e-05
7.52918e-22 -0.0157782 0.000921692 0.0426067 -0.016143 -0.000250652
5.64689e-22 -0.0155828 0.00315318 0.0705854 -0.0253767 -0.000815099
-5.64689e-22 0.0155828 0.00315319 -0.00135994 0.000513744 -1.14569e-05
6.77626e-21 -0.0152441 0.00458644 0 0 0
0 0.0152443 0.00458654 0 0 0
-6.77626e-21 0.0159533 3.83645e-05 3.56308e-07 -1.26863e-07 1.35933e-07
-6.77626e-21 -0.0159534 3.82981e-05 0.00221371 -0.000839294 -2.31847e-05
2.71051e-20 0.015843 0.00192285 -0.00133325 0.000508129 -2.60134e-05
2.71051e-20 -0.015843 0.00192286 0.0745637 -0.0273523 -0.000418296
0 0.0159594 2.87839e-17 0 0 0
-6.77626e-21 -0.0159594 2.84889e-17 0 0 0
-2.71051e-20 0.0159064 0.00142308 -0.00100554 0.000396849 -3.65194e-05
2.71051e-20 -0.0159064 0.00142306 0.0643859 -0.0239743 -0.000194277
-1.12938e-21 -0.0155142 0.00388452 0.0457531 -0.0160615 -0.000591184
0 0.0155142 0.00388456 -0.000898083 0.000334703 -1.99175e-06
-1.35525e-20 -0.0153266 0.00464478 0 0 0
0 0.0153267 0.00464485 0 0 0
0 -0.01535 0.0046163 0.00290545 -0.00106109 7.51171e-05
-1.35525e-20 0.0153501 0.00461639 -5.63813e-05 2.1194e-05 2.55994e-06
0 -0.0153665 0.00467306 0 0 0
-1.35525e-20 0.0153666 0.00467311 0 0 0
-2.71051e-20 0.0160927 0.000505085 -9.78401e-06 3.08737e-06 8.84171e-06
0 -0.0160928 0.000505072 0.0279693 -0.0110984 -0.000322153
-6.77626e-21 -0.0154309 0.00471863 0 0 0
1.35525e-20 0.015431 0.00471864 0 0 0
6.77626e-21 -0.0161373 9.11538e-18 0 0 0
0 0.0161376 9.31637e-18 0 0 0
-1.35525e-20 -0.0154622 0.00464659 0.00615418 -0.00195924 -0.000115388
0 0.0154622 0.00464666 -0.000122394 4.3807e-05 -2.83907e-07
-7.05861e-22 -0.0155558 0.00433293 0.0280533 -0.00970355 -0.000235629
2.82344e-22 0.0155559 0.00433296 -0.000551922 0.000203907 2.62553e-06
0 -0.0159329 0.00276854 0.0829767 -0.0302254 -0.000752474
0 0.0159329 0.00276855 -0.00163686 0.000613669 -2.46119e-05
5.42101e-20 -0.015876 0.00349495 0.0727804 -0.0258655 -0.00103291
0 0.015876 0.00349497 -0.00143896 0.000534987 -1.28655e-05
2.82344e-22 -0.0163022 0.00169287 0.0711776 -0.026353 -0.00023396
1.41172e-22 0.0163022 0.00169287 -0.00125047 0.000486291 -3.07644e-05
5.42101e-20 -0.0158805 0.00413133 0.0513029 -0.0179475 -0.000795593
-2.71051e-20 0.0158806 0.00413135 -0.00100122 0.000372926 -9.2892e-06
-2.71051e-20 -0.0157464 0.00463062 0.0208475 -0.00689075 -0.000299907
2.71051e-20 0.0157465 0.00463067 -0.000399193 0.000146764 6.22703e-07
-1.35525e-20 -0.0156844 0.004898 0 0 0
-1.35525e-20 0.0156845 0.0048981 0 0 0
0 -0.0164403 0.000192195 0.0104785 -0.00422727 -0.000124791
0 0.0164404 0.000192073 -5.66464e-06 1.813e-06 4.30941e-06
-1.35525e-20 -0.0164599 2.18737e-18 0 0 0
1.35525e-20 0.0164599 2.23707e-18 0 0 0
1.12938e-21 -0.0163055 0.00229239 0.0815431 -0.0298738 -0.000506436
0 0.0163055 0.00229239 -0.00160054 0.00060623 -2.53394e-05
0 -0.0157621 0.0048391 0.00744322 -0.00236962 -0.000139557
1.35525e-20 0.0157621 0.00483922 -0.000148044 5.29875e-05 -3.43404e-07
0 -0.0164587 0.00103727 0.0489109 -0.0185397 -0.000175728
6.77626e-21 0.0164587 0.00103728 -0.000577857 0.000226121 -1.27023e-05
1.12938e-22 -0.0162201 0.00310503 0.0833674 -0.0301004 -0.000755187
3.38813e-22 0.0162201 0.00310505 -0.00170412 0.000635305 -2.37479e-05
-2.71051e-20 -0.0157673 0.00495663 0 0 0
0 0.0157673 0.00495668 0 0 0
1.35525e-20 0.0165552 1.89118e-18 0 0 0
1.35525e-20 -0.0165552 1.82985e-18 0 0 0
1.35525e-20 0.0158425 0.00500991 0 0 0
-1.35525e-20 -0.0158425 0.00500989 0 0 0
0 0.0158774 0.00492677 -0.000150568 5.78582e-05 -1.29299e-07
0 -0.0158775 0.00492671 0.00739338 -0.00237227 -6.82324e-05
-2.25875e-21 -0.0161858 0.00381853 0.0710217 -0.0251543 -0.000830637
5.64689e-22 0.0161859 0.00381855 -0.0014336 0.000527353 -1.80531e-05
0 0.0166929 0.000101665 -9.97853e-07 -2.1337e-07 7.23917e-07
1.35525e-20 -0.0166931 0.000101735 0.00609247 -0.00243718 7.8475e-06
-1.35525e-20 0.0166941 -1.9757e-18 0 0 0
1.35525e-20 -0.0166943 -1.99904e-18 0 0 0
9.03502e-22 -0.0161388 0.00451629 0.040937 -0.0141296 -0.000445721
-1.12938e-21 0.0161388 0.00451633 -0.000812248 0.000295901 -7.37561e-06
0 -0.0165511 0.0027628 0.0901261 -0.032929 -0.000551694
0 0.0165511 0.0027628 -0.00190169 0.000714414 -2.57779e-05
2.71051e-20 -0.0160804 0.00488839 0.0189177 -0.00597067 -2.20654e-05
0 0.0160804 0.00488844 -0.000394907 0.000147615 1.26609e-06
-5.42101e-20 -0.0165195 0.00345964 0.0876687 -0.0313105 -0.000749676
-2.71051e-20 0.0165195 0.00345965 -0.00185441 0.000682008 -3.09377e-05
0 -0.0160927 0.00518691 0 0 0
0 0.0160929 0.00518705 0 0 0
0 -0.0161328 0.00514885 0.00455103 -0.00146026 -4.20007e-05
0 0.0161329 0.00514907 -9.25578e-05 3.55668e-05 -7.94833e-08
6.77626e-21 -0.0161376 0.0052187 0 0 0
6.77626e-21 0.0161377 0.00521878 0 0 0
-2.71051e-20 -0.0164852 0.00415081 0.073677 -0.0259871 -0.000741361
0 0.0164853 0.00415084 -0.00147249 0.000531399 -2.00015e-05
-6.77626e-21 -0.0161812 0.00524952 0 0 0
-6.77626e-21 0.0161812 0.00524953 0 0 0
-6.77626e-21 -0.0162 0.00521518 0.00397758 -0.00146149 -3.25472e-05
0 0.0162 0.00521526 -6.85688e-05 2.52109e-05 -4.63562e-07
0 0.0169483 0.00175217 -0.00143393 0.000557311 -2.3313e-05
-5.42101e-20 -0.0169483 0.00175217 0.0751209 -0.0279165 -0.000140728
-1.41172e-22 0.0168946 0.00247379 -0.00191085 0.000726104 -3.59133e-05
-2.82344e-22 -0.0168959 0.00247492 0.0880765 -0.0322527 -0.000370927
0 0.0170685 0.000542394 -4.00562e-06 -8.87414e-07 3.60092e-06
-5.42101e-20 -0.0170686 0.000542393 0.0329278 -0.0129075 -4.46277e-05
-5.64689e-22 -0.016348 0.00494369 0.0289666 -0.0099886 -0.000104298
1.41172e-22 0.0163681 0.00495112 -0.000589831 0.000211373 -3.12129e-06
8.47033e-22 -0.0168537 0.00309992 0.0921946 -0.0333409 -0.000474542
-2.82344e-22 0.0168537 0.00309993 -0.00204321 0.00076313 -4.13301e-05
0 -0.0165271 0.00473647 0.0485078 -0.0169268 -0.000526029
-2.71051e-20 0.0165271 0.0047365 -0.000964535 0.000341699 -1.22257e-05
5.64689e-22 -0.0168198 0.00379489 0.08782 -0.0313122 -0.000491773
0 0.0168198 0.00379489 -0.00189336 0.000689936 -3.99639e-05
0 -0.0164532 0.00518907 0.0201969 -0.0073478 0.000212751
0 0.0164532 0.0051891 -0.00036274 0.000131465 4.3127e-06
-1.35525e-20 -0.0164986 0.00547411 0 0 0
1.35525e-20 0.0164987 0.0054742 0 0 0
0 -0.0168074 0.0044544 0.0711779 -0.02518 -0.000502124
-3.38813e-21 0.0168075 0.00445442 -0.00145708 0.000519085 -3.00335e-05
1.35525e-20 -0.0165401 0.00543882 0.00539431 -0.00198205 -4.41399e-05
1.35525e-20 0.0165402 0.00543896 -9.30501e-05 3.4212e-05 -6.29069e-07
2.71051e-20 0.0171982 0.00274291 -0.00217922 0.000830264 -5.20313e-05
-2.71051e-20 -0.0171982 0.00274291 0.0931664 -0.034006 -0.000320356
0 -0.0165562 0.00551488 0 0 0
0 0.0165562 0.0055149 0 0 0
0 -0.0171475 0.00343443 0.0975671 -0.0350238 -0.000289039
5.42101e-20 0.0171475 0.00343443 -0.00223225 0.000824182 -5.65416e-05
0 0.0165954 0.00554259 0 0 0
-1.35525e-20 -0.0165954 0.00554261 0 0 0
0 0.0166162 0.00550295 -8.19761e-05 2.75259e-05 -4.39656e-07
-1.35525e-20 -0.0166162 0.00550291 0.00364572 -0.00122541 0.000102934
8.47033e-23 -0.0167942 0.00511228 0.0390463 -0.0137394 -2.40757e-05
-6.27432e-22 0.0168034 0.00511576 -0.000783569 0.000270299 -1.15778e-05
0 0.0166838 0.00560512 0 0 0
-6.77626e-21 -0.0166839 0.00560521 0 0 0
-5.42101e-20 -0.0171381 0.00410853 0.0921288 -0.0328382 -0.000192859
0 0.0171382 0.00410853 -0.00200926 0.000720618 -5.21907e-05
6.77626e-21 -0.0176356 5.15747e-05 0.0030886 -0.00123554 3.97832e-06
-6.77626e-21 0.0176356 5.15594e-05 -5.06063e-07 -1.08211e-07 3.67136e-07
0 -0.0176365 -8.88394e-19 0 0 0
0 0.0176365 -8.80501e-19 0 0 0
-1.12938e-21 -0.0176257 0.00114318 0.0552196 -0.020712 -2.80529e-05
0 0.0176257 0.00114318 -0.00077391 0.000305446 -1.27694e-05
-6.77626e-21 0.017701 -1.17471e-20 0 0 0
0 -0.017701 -1.19998e-20 0 0 0
0 0.0177564 5.70206e-05 -1.64719e-06 5.98787e-07 3.82902e-07
6.77626e-21 -0.0177564 5.70366e-05 0.00358708 -0.00140607 6.68575e-07
0 -0.0174948 0.00304299 0.0954234 -0.034481 -3.05493e-05
-7.05861e-23 0.0174948 0.003043 -0.00228228 0.000862106 -6.15319e-05
-2.71051e-20 -0.0171005 0.00478727 0.0734271 -0.0260685 -0.00052101
2.71051e-20 0.0171005 0.00478729 -0.00145402 0.000508251 -3.85074e-05
0 0.01776 -9.77488e-21 0 0 0
0 -0.01776 -9.99454e-21 0 0 0
-5.64689e-22 -0.0176226 0.00231708 0.0871708 -0.0317752 5.22917e-05
0 0.0176226 0.00231708 -0.00201132 0.000776607 -5.02843e-05
6.77626e-21 -0.016865 0.00573336 0 0 0
1.35525e-20 0.0168651 0.00573338 0 0 0
-1.12938e-21 -0.0169917 0.00554745 0.0243385 -0.00852669 0.000565389
0 0.0169918 0.00554746 -0.000467261 0.000145754 1.56648e-06
0 -0.0175404 0.00368248 0.0984362 -0.035258 0.000161627
1.12938e-21 0.0175404 0.00368248 -0.00231467 0.000845488 -7.06419e-05
-5.64689e-22 -0.0174309 0.00445116 0.0912344 -0.0325673 6.11627e-05
5.64689e-22 0.0174309 0.00445117 -0.0019953 0.00070386 -6.53257e-05
1.35525e-20 -0.0170276 0.00584842 0 0 0
0 0.0170278 0.0058485 0 0 0
-3.38813e-21 -0.0173594 0.00515914 0.0624853 -0.0222403 8.62799e-05
2.25875e-21 0.0173594 0.00515917 -0.0012725 0.000431231 -4.22268e-05
1.35525e-20 -0.0171315 0.00592198 0 0 0
0 0.0171316 0.00592202 0 0 0
-1.35525e-20 -0.0171628 0.0058861 0.00530919 -0.00202184 0.000267554
2.71051e-20 0.0171629 0.00588616 -9.70792e-05 3.27558e-05 1.98495e-06
0 -0.0171821 0.00595789 0 0 0
-1.35525e-20 0.0171822 0.00595791 0 0 0
2.71051e-20 -0.017769 0.00410415 0.103937 -0.0373101 0.000572513
0 0.017769 0.00410415 -0.0024725 0.000882902 -8.99849e-05
-5.42101e-20 -0.0182634 0.000578943 0.036731 -0.0142447 -2.73483e-05
-1.0842e-19 0.0182634 0.000578939 -1.78187e-05 6.45175e-06 3.33831e-06
0 0.0173972 0.0056105 -0.000777614 0.000255778 -2.32568e-05
0 -0.0173983 0.00561199 0.0398778 -0.0143185 0.000375487
0 -0.0172648 0.00601707 0 0 0
0 0.0172648 0.00601705 0 0 0
-1.35525e-20 -0.0173077 0.00592609 0.0113813 -0.00413271 0.000237212