# Moment      
# CofR        : (0.000000e+00 0.000000e+00 0.000000e+00)
#
# Time        	(total_x total_y total_z)	(pressure_x pressure_y pressure_z)	(viscous_x viscous_y viscous_z)
1             	(-4.913325e-01 4.830981e-01 5.956150e-03)	(-4.913485e-01 4.822975e-01 5.940580e-03)	(1.607198e-05 8.005491e-04 1.557009e-05)
2             	(-4.991063e-01 4.842044e-01 -1.181774e-02)	(-4.993976e-01 4.838597e-01 -1.181046e-02)	(2.913277e-04 3.446659e-04 -7.279697e-06)
3             	(-3.825616e-01 3.652435e-01 -5.039091e-02)	(-3.830461e-01 3.652150e-01 -5.036579e-02)	(4.845702e-04 2.842804e-05 -2.511915e-05)
4             	(-1.949716e-01 1.815838e-01 -9.855247e-02)	(-1.955272e-01 1.816922e-01 -9.848896e-02)	(5.556027e-04 -1.083020e-04 -6.351001e-05)
5             	(-3.144199e-03 -8.598639e-03 -1.525414e-01)	(-3.661554e-03 -8.503437e-03 -1.523859e-01)	(5.173553e-04 -9.520173e-05 -1.554896e-04)
6             	(1.321934e-01 -1.426340e-01 -1.813217e-01)	(1.318035e-01 -1.426416e-01 -1.810843e-01)	(3.898834e-04 7.551534e-06 -2.374656e-04)
7             	(1.836005e-01 -1.922597e-01 -1.740637e-01)	(1.833723e-01 -1.924073e-01 -1.737382e-01)	(2.282047e-04 1.476334e-04 -3.254736e-04)
8             	(1.732366e-01 -1.795192e-01 -1.388003e-01)	(1.731585e-01 -1.797966e-01 -1.384325e-01)	(7.808434e-05 2.774658e-04 -3.677965e-04)
9             	(1.225890e-01 -1.278406e-01 -8.454792e-02)	(1.226124e-01 -1.282014e-01 -8.416842e-02)	(-2.337821e-05 3.608278e-04 -3.795051e-04)
10            	(4.885438e-02 -5.201108e-02 -3.172107e-02)	(4.892174e-02 -5.239532e-02 -3.136945e-02)	(-6.735910e-05 3.842356e-04 -3.516201e-04)
11            	(-1.955398e-02 1.795170e-02 2.843903e-03)	(-1.949007e-02 1.759842e-02 3.131359e-03)	(-6.390918e-05 3.532830e-04 -2.874560e-04)
12            	(-6.319949e-02 6.245910e-02 1.282552e-02)	(-6.317103e-02 6.217163e-02 1.302771e-02)	(-2.845291e-05 2.874670e-04 -2.021884e-04)
13            	(-8.071656e-02 7.986796e-02 7.957373e-04)	(-8.073879e-02 7.965606e-02 9.132371e-04)	(2.222320e-05 2.119032e-04 -1.174998e-04)
14            	(-7.777088e-02 7.641354e-02 -2.447410e-02)	(-7.784048e-02 7.626767e-02 -2.442795e-02)	(6.959980e-05 1.458767e-04 -4.615704e-05)
15            	(-6.105445e-02 5.710955e-02 -5.489853e-02)	(-6.115493e-02 5.701100e-02 -5.488507e-02)	(1.004779e-04 9.854527e-05 -1.346732e-05)
16            	(-3.837678e-02 3.237287e-02 -8.194158e-02)	(-3.848852e-02 3.229878e-02 -8.192565e-02)	(1.117337e-04 7.408873e-05 -1.592639e-05)
17            	(-1.707248e-02 9.404215e-03 -9.738426e-02)	(-1.717842e-02 9.336086e-03 -9.734818e-02)	(1.059354e-04 6.812875e-05 -3.608455e-05)
18            	(-2.570292e-03 -5.442400e-03 -1.006537e-01)	(-2.659949e-03 -5.516268e-03 -1.005940e-01)	(8.965744e-05 7.386731e-05 -5.970700e-05)
19            	(3.498132e-03 -1.143137e-02 -9.380953e-02)	(3.428021e-03 -1.151580e-02 -9.373215e-02)	(7.011084e-05 8.442973e-05 -7.738004e-05)
20            	(3.119640e-03 -1.101404e-02 -8.077276e-02)	(3.067596e-03 -1.110792e-02 -8.069104e-02)	(5.204401e-05 9.387995e-05 -8.171849e-05)
21            	(-2.000276e-03 -4.751282e-03 -6.668706e-02)	(-2.038784e-03 -4.851017e-03 -6.661727e-02)	(3.850794e-05 9.973517e-05 -6.978948e-05)
22            	(-9.515054e-03 3.613204e-03 -5.553326e-02)	(-9.544876e-03 3.513029e-03 -5.548944e-02)	(2.982202e-05 1.001751e-04 -4.381925e-05)
23            	(-1.754168e-02 1.224617e-02 -4.930019e-02)	(-1.756744e-02 1.214967e-02 -4.928768e-02)	(2.575479e-05 9.650696e-05 -1.250461e-05)
24            	(-2.371465e-02 1.861140e-02 -4.853422e-02)	(-2.373933e-02 1.852127e-02 -4.854998e-02)	(2.468185e-05 9.012616e-05 1.576099e-05)
25            	(-2.684470e-02 2.163021e-02 -5.129586e-02)	(-2.686957e-02 2.154738e-02 -5.133231e-02)	(2.486152e-05 8.283312e-05 3.644951e-05)
26            	(-2.792075e-02 2.251742e-02 -5.647360e-02)	(-2.794600e-02 2.244083e-02 -5.652099e-02)	(2.524604e-05 7.659123e-05 4.739188e-05)
27            	(-2.690798e-02 2.108319e-02 -6.057916e-02)	(-2.693329e-02 2.101127e-02 -6.062814e-02)	(2.531075e-05 7.191747e-05 4.897880e-05)
28            	(-2.502726e-02 1.875958e-02 -6.535544e-02)	(-2.505167e-02 1.869056e-02 -6.539959e-02)	(2.440462e-05 6.902271e-05 4.414917e-05)
29            	(-2.212915e-02 1.596513e-02 -7.023548e-02)	(-2.215174e-02 1.589709e-02 -7.027024e-02)	(2.258839e-05 6.804420e-05 3.475816e-05)
30            	(-1.938410e-02 1.353021e-02 -7.255347e-02)	(-1.940447e-02 1.346200e-02 -7.257568e-02)	(2.036909e-05 6.820883e-05 2.221204e-05)
31            	(-1.711430e-02 1.156367e-02 -7.235569e-02)	(-1.713250e-02 1.149519e-02 -7.236507e-02)	(1.820037e-05 6.847626e-05 9.380527e-06)
32            	(-1.647839e-02 1.141272e-02 -7.168250e-02)	(-1.649480e-02 1.134439e-02 -7.168056e-02)	(1.641643e-05 6.833692e-05 -1.938471e-06)
33            	(-1.631625e-02 1.159760e-02 -6.997470e-02)	(-1.633168e-02 1.153008e-02 -6.996414e-02)	(1.542582e-05 6.752016e-05 -1.055942e-05)
34            	(-1.665875e-02 1.242735e-02 -6.751755e-02)	(-1.667408e-02 1.236132e-02 -6.750067e-02)	(1.533230e-05 6.603292e-05 -1.687879e-05)
35            	(-1.729627e-02 1.341378e-02 -6.532809e-02)	(-1.731207e-02 1.334996e-02 -6.530691e-02)	(1.579295e-05 6.382191e-05 -2.118390e-05)
36            	(-1.809149e-02 1.430827e-02 -6.316410e-02)	(-1.810829e-02 1.424696e-02 -6.313984e-02)	(1.680085e-05 6.130573e-05 -2.425924e-05)
37            	(-1.887826e-02 1.500975e-02 -6.146396e-02)	(-1.889645e-02 1.495085e-02 -6.143771e-02)	(1.818690e-05 5.889779e-05 -2.624582e-05)
38            	(-1.960725e-02 1.551910e-02 -6.023117e-02)	(-1.962704e-02 1.546209e-02 -6.020358e-02)	(1.979340e-05 5.700779e-05 -2.759591e-05)
39            	(-2.023799e-02 1.580101e-02 -5.959540e-02)	(-2.025968e-02 1.574504e-02 -5.956631e-02)	(2.168878e-05 5.597316e-05 -2.908672e-05)
40            	(-2.085207e-02 1.605173e-02 -5.951775e-02)	(-2.087583e-02 1.599579e-02 -5.948701e-02)	(2.376089e-05 5.593580e-05 -3.073259e-05)
41            	(-2.145852e-02 1.632073e-02 -5.998124e-02)	(-2.148446e-02 1.626385e-02 -5.994918e-02)	(2.593815e-05 5.687684e-05 -3.205993e-05)
42            	(-2.205344e-02 1.658934e-02 -6.075168e-02)	(-2.208151e-02 1.653068e-02 -6.071902e-02)	(2.806824e-05 5.865211e-05 -3.266074e-05)
43            	(-2.258560e-02 1.689370e-02 -6.176896e-02)	(-2.261560e-02 1.683289e-02 -6.173583e-02)	(2.999807e-05 6.080903e-05 -3.313471e-05)
44            	(-2.302459e-02 1.719819e-02 -6.286339e-02)	(-2.305615e-02 1.713530e-02 -6.282998e-02)	(3.155625e-05 6.288938e-05 -3.340770e-05)
45            	(-2.338026e-02 1.749418e-02 -6.394641e-02)	(-2.341276e-02 1.742977e-02 -6.391315e-02)	(3.249320e-05 6.441114e-05 -3.326081e-05)
46            	(-2.365025e-02 1.740045e-02 -6.534344e-02)	(-2.368306e-02 1.733534e-02 -6.531084e-02)	(3.280946e-05 6.511415e-05 -3.260299e-05)
47            	(-2.376604e-02 1.725286e-02 -6.632178e-02)	(-2.379891e-02 1.718755e-02 -6.629040e-02)	(3.286551e-05 6.531104e-05 -3.138045e-05)
48            	(-2.375190e-02 1.712787e-02 -6.679414e-02)	(-2.378476e-02 1.706266e-02 -6.676456e-02)	(3.285847e-05 6.521216e-05 -2.958083e-05)
49            	(-2.373115e-02 1.718033e-02 -6.693423e-02)	(-2.376410e-02 1.711524e-02 -6.690690e-02)	(3.294562e-05 6.509248e-05 -2.733735e-05)
50            	(-2.365402e-02 1.712921e-02 -6.678117e-02)	(-2.368706e-02 1.706434e-02 -6.675622e-02)	(3.303174e-05 6.486424e-05 -2.495536e-05)
51            	(-2.362481e-02 1.702935e-02 -6.658551e-02)	(-2.365774e-02 1.696503e-02 -6.656272e-02)	(3.292507e-05 6.431978e-05 -2.279309e-05)
52            	(-2.361128e-02 1.690362e-02 -6.630605e-02)	(-2.364380e-02 1.684025e-02 -6.628499e-02)	(3.252229e-05 6.337549e-05 -2.105929e-05)
53            	(-2.361902e-02 1.675493e-02 -6.598968e-02)	(-2.365078e-02 1.669292e-02 -6.596979e-02)	(3.175332e-05 6.201531e-05 -1.989908e-05)
54            	(-2.364585e-02 1.658890e-02 -6.566659e-02)	(-2.367650e-02 1.652858e-02 -6.564715e-02)	(3.064917e-05 6.032658e-05 -1.943578e-05)
55            	(-2.370095e-02 1.630367e-02 -6.539096e-02)	(-2.373014e-02 1.624535e-02 -6.537126e-02)	(2.919140e-05 5.831320e-05 -1.969991e-05)
56            	(-2.376836e-02 1.614510e-02 -6.512061e-02)	(-2.379588e-02 1.608894e-02 -6.510003e-02)	(2.752056e-05 5.616349e-05 -2.058303e-05)
57            	(-2.383374e-02 1.600485e-02 -6.489221e-02)	(-2.385938e-02 1.595095e-02 -6.487020e-02)	(2.564130e-05 5.389336e-05 -2.200790e-05)
58            	(-2.389587e-02 1.589170e-02 -6.473315e-02)	(-2.391945e-02 1.584020e-02 -6.470945e-02)	(2.358164e-05 5.149622e-05 -2.370737e-05)
59            	(-2.396009e-02 1.581745e-02 -6.466648e-02)	(-2.398148e-02 1.576845e-02 -6.464099e-02)	(2.138659e-05 4.900049e-05 -2.548999e-05)
60            	(-2.402672e-02 1.578660e-02 -6.471694e-02)	(-2.404585e-02 1.574013e-02 -6.468978e-02)	(1.913151e-05 4.646962e-05 -2.715641e-05)
61            	(-2.409461e-02 1.580277e-02 -6.488233e-02)	(-2.411158e-02 1.575870e-02 -6.485380e-02)	(1.697325e-05 4.406873e-05 -2.853517e-05)
62            	(-2.416140e-02 1.586070e-02 -6.513832e-02)	(-2.417647e-02 1.581876e-02 -6.510883e-02)	(1.507343e-05 4.194218e-05 -2.949140e-05)
63            	(-2.421578e-02 1.595828e-02 -6.544787e-02)	(-2.422935e-02 1.591808e-02 -6.541792e-02)	(1.356963e-05 4.019898e-05 -2.995721e-05)
64            	(-2.432002e-02 1.612541e-02 -6.581942e-02)	(-2.433257e-02 1.608651e-02 -6.578958e-02)	(1.254950e-05 3.889966e-05 -2.984815e-05)
65            	(-2.446011e-02 1.639993e-02 -6.620093e-02)	(-2.447216e-02 1.636183e-02 -6.617161e-02)	(1.205508e-05 3.810518e-05 -2.932077e-05)
66            	(-2.458481e-02 1.668483e-02 -6.655229e-02)	(-2.459684e-02 1.664711e-02 -6.652400e-02)	(1.202554e-05 3.772243e-05 -2.829276e-05)
67            	(-2.470009e-02 1.697430e-02 -6.680085e-02)	(-2.471246e-02 1.693662e-02 -6.677384e-02)	(1.237295e-05 3.768050e-05 -2.701049e-05)
68            	(-2.479074e-02 1.720592e-02 -6.698026e-02)	(-2.480367e-02 1.716816e-02 -6.695491e-02)	(1.292838e-05 3.776025e-05 -2.535589e-05)
69            	(-2.485896e-02 1.738862e-02 -6.714279e-02)	(-2.487255e-02 1.735070e-02 -6.711902e-02)	(1.359491e-05 3.791654e-05 -2.376680e-05)
70            	(-2.486724e-02 1.741589e-02 -6.721518e-02)	(-2.488145e-02 1.737794e-02 -6.719305e-02)	(1.421820e-05 3.795070e-05 -2.213201e-05)
71            	(-2.486721e-02 1.742291e-02 -6.722369e-02)	(-2.488197e-02 1.738505e-02 -6.720310e-02)	(1.475999e-05 3.785934e-05 -2.058068e-05)
72            	(-2.484851e-02 1.741220e-02 -6.714503e-02)	(-2.486367e-02 1.737461e-02 -6.712605e-02)	(1.515530e-05 3.758539e-05 -1.898489e-05)
73            	(-2.481684e-02 1.738934e-02 -6.699201e-02)	(-2.483223e-02 1.735217e-02 -6.697448e-02)	(1.538934e-05 3.717183e-05 -1.752831e-05)
74            	(-2.477255e-02 1.735965e-02 -6.677316e-02)	(-2.478799e-02 1.732305e-02 -6.675704e-02)	(1.543648e-05 3.660040e-05 -1.612302e-05)
75            	(-2.471256e-02 1.732778e-02 -6.649475e-02)	(-2.472789e-02 1.729185e-02 -6.647988e-02)	(1.532530e-05 3.592840e-05 -1.487242e-05)
76            	(-2.464596e-02 1.729808e-02 -6.618043e-02)	(-2.466105e-02 1.726290e-02 -6.616686e-02)	(1.509274e-05 3.518092e-05 -1.357036e-05)
77            	(-2.458883e-02 1.727946e-02 -6.585087e-02)	(-2.460359e-02 1.724507e-02 -6.583860e-02)	(1.476135e-05 3.438670e-05 -1.226123e-05)
78            	(-2.453654e-02 1.727652e-02 -6.550815e-02)	(-2.455089e-02 1.724296e-02 -6.549718e-02)	(1.434821e-05 3.356039e-05 -1.097427e-05)
79            	(-2.450791e-02 1.734267e-02 -6.516159e-02)	(-2.452177e-02 1.730995e-02 -6.515186e-02)	(1.386597e-05 3.271517e-05 -9.726530e-06)
80            	(-2.448270e-02 1.741774e-02 -6.480338e-02)	(-2.449602e-02 1.738588e-02 -6.479477e-02)	(1.332159e-05 3.185705e-05 -8.615490e-06)
81            	(-2.446416e-02 1.749336e-02 -6.443384e-02)	(-2.447690e-02 1.746237e-02 -6.442617e-02)	(1.273802e-05 3.099584e-05 -7.671299e-06)
82            	(-2.445329e-02 1.758249e-02 -6.404856e-02)	(-2.446544e-02 1.755233e-02 -6.404169e-02)	(1.215219e-05 3.015972e-05 -6.871359e-06)
83            	(-2.444982e-02 1.768256e-02 -6.365522e-02)	(-2.446143e-02 1.765317e-02 -6.364902e-02)	(1.161275e-05 2.939258e-05 -6.202475e-06)
84            	(-2.445228e-02 1.779044e-02 -6.326252e-02)	(-2.446344e-02 1.776170e-02 -6.325688e-02)	(1.116568e-05 2.873498e-05 -5.643538e-06)
85            	(-2.445868e-02 1.790252e-02 -6.287917e-02)	(-2.446952e-02 1.787431e-02 -6.287401e-02)	(1.083967e-05 2.821343e-05 -5.163130e-06)
86            	(-2.446693e-02 1.801537e-02 -6.250946e-02)	(-2.447756e-02 1.798754e-02 -6.250470e-02)	(1.063392e-05 2.783040e-05 -4.761272e-06)
87            	(-2.447574e-02 1.812498e-02 -6.215418e-02)	(-2.448626e-02 1.809743e-02 -6.214977e-02)	(1.051588e-05 2.755363e-05 -4.418103e-06)
88            	(-2.448413e-02 1.822753e-02 -6.181125e-02)	(-2.449459e-02 1.820018e-02 -6.180715e-02)	(1.045312e-05 2.734864e-05 -4.099994e-06)
89            	(-2.449115e-02 1.832135e-02 -6.147256e-02)	(-2.450157e-02 1.829417e-02 -6.146880e-02)	(1.041418e-05 2.718020e-05 -3.765771e-06)
90            	(-2.449557e-02 1.840435e-02 -6.113092e-02)	(-2.450592e-02 1.837736e-02 -6.112756e-02)	(1.035311e-05 2.699626e-05 -3.366065e-06)
91            	(-2.449883e-02 1.848052e-02 -6.078310e-02)	(-2.450906e-02 1.845376e-02 -6.078021e-02)	(1.023439e-05 2.676393e-05 -2.898116e-06)
92            	(-2.450101e-02 1.855123e-02 -6.042660e-02)	(-2.451104e-02 1.852478e-02 -6.042424e-02)	(1.002527e-05 2.644967e-05 -2.364009e-06)
93            	(-2.450219e-02 1.861756e-02 -6.006461e-02)	(-2.451191e-02 1.859151e-02 -6.006281e-02)	(9.725484e-06 2.605426e-05 -1.802937e-06)
94            	(-2.450209e-02 1.868036e-02 -5.970389e-02)	(-2.451142e-02 1.865478e-02 -5.970262e-02)	(9.333834e-06 2.557700e-05 -1.262971e-06)
95            	(-2.450063e-02 1.874114e-02 -5.934875e-02)	(-2.450948e-02 1.871612e-02 -5.934797e-02)	(8.847220e-06 2.501559e-05 -7.869597e-07)
96            	(-2.449646e-02 1.880031e-02 -5.900499e-02)	(-2.450475e-02 1.877592e-02 -5.900456e-02)	(8.282912e-06 2.438792e-05 -4.219219e-07)
97            	(-2.448869e-02 1.885924e-02 -5.867271e-02)	(-2.449638e-02 1.883550e-02 -5.867250e-02)	(7.689940e-06 2.374626e-05 -2.097352e-07)
98            	(-2.447698e-02 1.891927e-02 -5.834715e-02)	(-2.448410e-02 1.889613e-02 -5.834698e-02)	(7.119359e-06 2.314321e-05 -1.693893e-07)
99            	(-2.446168e-02 1.898191e-02 -5.801899e-02)	(-2.446828e-02 1.895930e-02 -5.801870e-02)	(6.599911e-06 2.260761e-05 -2.918622e-07)
100           	(-2.444387e-02 1.904842e-02 -5.767902e-02)	(-2.445002e-02 1.902626e-02 -5.767845e-02)	(6.151834e-06 2.215816e-05 -5.684376e-07)
101           	(-2.442527e-02 1.912036e-02 -5.731864e-02)	(-2.443104e-02 1.909857e-02 -5.731766e-02)	(5.777016e-06 2.179389e-05 -9.738918e-07)
102           	(-2.440783e-02 1.919990e-02 -5.692988e-02)	(-2.441330e-02 1.917840e-02 -5.692840e-02)	(5.464217e-06 2.150059e-05 -1.481458e-06)
103           	(-2.439332e-02 1.928861e-02 -5.650856e-02)	(-2.439852e-02 1.926735e-02 -5.650649e-02)	(5.203794e-06 2.126685e-05 -2.071079e-06)
104           	(-2.438221e-02 1.938761e-02 -5.605019e-02)	(-2.438720e-02 1.936652e-02 -5.604746e-02)	(4.985852e-06 2.108259e-05 -2.728813e-06)
105           	(-2.437534e-02 1.949598e-02 -5.556636e-02)	(-2.438015e-02 1.947504e-02 -5.556291e-02)	(4.809182e-06 2.094662e-05 -3.451356e-06)
106           	(-2.437276e-02 1.961280e-02 -5.506638e-02)	(-2.437744e-02 1.959193e-02 -5.506214e-02)	(4.680037e-06 2.086413e-05 -4.240182e-06)
107           	(-2.437480e-02 1.973997e-02 -5.456819e-02)	(-2.437941e-02 1.971912e-02 -5.456309e-02)	(4.611254e-06 2.084727e-05 -5.100333e-06)
108           	(-2.437977e-02 1.987351e-02 -5.407364e-02)	(-2.438439e-02 1.985260e-02 -5.406761e-02)	(4.620753e-06 2.091287e-05 -6.035393e-06)
109           	(-2.438743e-02 2.001357e-02 -5.358657e-02)	(-2.439216e-02 1.999249e-02 -5.357952e-02)	(4.734617e-06 2.108666e-05 -7.046257e-06)
110           	(-2.435224e-02 2.006814e-02 -5.315123e-02)	(-2.435720e-02 2.004678e-02 -5.314307e-02)	(4.958505e-06 2.135324e-05 -8.162517e-06)
111           	(-2.436929e-02 2.024265e-02 -5.267153e-02)	(-2.437462e-02 2.022087e-02 -5.266224e-02)	(5.330075e-06 2.178074e-05 -9.291300e-06)
112           	(-2.438444e-02 2.041903e-02 -5.219333e-02)	(-2.439028e-02 2.039668e-02 -5.218291e-02)	(5.840204e-06 2.235467e-05 -1.042302e-05)
113           	(-2.434308e-02 2.047863e-02 -5.175309e-02)	(-2.434954e-02 2.045561e-02 -5.174149e-02)	(6.460056e-06 2.301703e-05 -1.160107e-05)
114           	(-2.436291e-02 2.068817e-02 -5.130169e-02)	(-2.437012e-02 2.066434e-02 -5.128894e-02)	(7.212023e-06 2.382937e-05 -1.275061e-05)
115           	(-2.432071e-02 2.074891e-02 -5.079557e-02)	(-2.432874e-02 2.072422e-02 -5.078165e-02)	(8.022855e-06 2.468305e-05 -1.392348e-05)
116           	(-2.434876e-02 2.096331e-02 -5.027916e-02)	(-2.435766e-02 2.093770e-02 -5.026411e-02)	(8.897756e-06 2.561520e-05 -1.504361e-05)
117           	(-2.435553e-02 2.119389e-02 -4.969398e-02)	(-2.436535e-02 2.116728e-02 -4.967788e-02)	(9.816078e-06 2.660172e-05 -1.610922e-05)
118           	(-2.433271e-02 2.123937e-02 -4.914200e-02)	(-2.434341e-02 2.121186e-02 -4.912480e-02)	(1.069408e-05 2.750792e-05 -1.720694e-05)
119           	(-2.431203e-02 2.128359e-02 -4.858101e-02)	(-2.432354e-02 2.125527e-02 -4.856268e-02)	(1.151719e-05 2.832149e-05 -1.833254e-05)
120           	(-2.428982e-02 2.132834e-02 -4.801802e-02)	(-2.430209e-02 2.129932e-02 -4.799854e-02)	(1.226399e-05 2.902759e-05 -1.947738e-05)
121           	(-2.427578e-02 2.139957e-02 -4.744199e-02)	(-2.428869e-02 2.136995e-02 -4.742136e-02)	(1.291490e-05 2.961592e-05 -2.062850e-05)
122           	(-2.429691e-02 2.154033e-02 -4.697311e-02)	(-2.431037e-02 2.151025e-02 -4.695131e-02)	(1.345593e-05 3.008530e-05 -2.179561e-05)
123           	(-2.427198e-02 2.160045e-02 -4.643508e-02)	(-2.428583e-02 2.157007e-02 -4.641211e-02)	(1.384348e-05 3.037372e-05 -2.297104e-05)
124           	(-2.427468e-02 2.172312e-02 -4.598684e-02)	(-2.428875e-02 2.169263e-02 -4.596269e-02)	(1.407268e-05 3.049100e-05 -2.414879e-05)
125           	(-2.424613e-02 2.174714e-02 -4.550369e-02)	(-2.426024e-02 2.171676e-02 -4.547837e-02)	(1.410753e-05 3.038420e-05 -2.531980e-05)
126           	(-2.421517e-02 2.177030e-02 -4.501415e-02)	(-2.422912e-02 2.174023e-02 -4.498770e-02)	(1.395684e-05 3.006703e-05 -2.645707e-05)
127           	(-2.418014e-02 2.179555e-02 -4.450829e-02)	(-2.419377e-02 2.176600e-02 -4.448075e-02)	(1.362846e-05 2.955537e-05 -2.753381e-05)
128           	(-2.415722e-02 2.191639e-02 -4.399241e-02)	(-2.417037e-02 2.188748e-02 -4.396390e-02)	(1.315744e-05 2.890830e-05 -2.851222e-05)
129           	(-2.413145e-02 2.201910e-02 -4.346317e-02)	(-2.414399e-02 2.199098e-02 -4.343379e-02)	(1.254477e-05 2.812328e-05 -2.938668e-05)
130           	(-2.410835e-02 2.204148e-02 -4.295638e-02)	(-2.412014e-02 2.201430e-02 -4.292620e-02)	(1.178689e-05 2.717744e-05 -3.017820e-05)
131           	(-2.407213e-02 2.211568e-02 -4.239566e-02)	(-2.408306e-02 2.208954e-02 -4.236482e-02)	(1.093467e-05 2.613345e-05 -3.084397e-05)
132           	(-2.404101e-02 2.218696e-02 -4.185309e-02)	(-2.405102e-02 2.216195e-02 -4.182173e-02)	(1.000257e-05 2.500766e-05 -3.136634e-05)
133           	(-2.402049e-02 2.221415e-02 -4.135566e-02)	(-2.402948e-02 2.219036e-02 -4.132390e-02)	(8.995364e-06 2.379228e-05 -3.175300e-05)
134           	(-2.398229e-02 2.228761e-02 -4.084387e-02)	(-2.399025e-02 2.226507e-02 -4.081189e-02)	(7.953853e-06 2.253728e-05 -3.198670e-05)
135           	(-2.393868e-02 2.236009e-02 -4.034599e-02)	(-2.394558e-02 2.233882e-02 -4.031390e-02)	(6.900505e-06 2.126799e-05 -3.208244e-05)
136           	(-2.388691e-02 2.242894e-02 -3.986438e-02)	(-2.389277e-02 2.240893e-02 -3.983230e-02)	(5.858969e-06 2.000789e-05 -3.207761e-05)
137           	(-2.384157e-02 2.246221e-02 -3.937655e-02)	(-2.384641e-02 2.244344e-02 -3.934454e-02)	(4.845029e-06 1.876637e-05 -3.200832e-05)
138           	(-2.376397e-02 2.253764e-02 -3.896109e-02)	(-2.376787e-02 2.252005e-02 -3.892916e-02)	(3.901024e-06 1.759695e-05 -3.192857e-05)
139           	(-2.370350e-02 2.258352e-02 -3.851153e-02)	(-2.370653e-02 2.256702e-02 -3.847967e-02)	(3.026383e-06 1.650094e-05 -3.186673e-05)
140           	(-2.360086e-02 2.248227e-02 -3.820331e-02)	(-2.360306e-02 2.246686e-02 -3.817141e-02)	(2.196102e-06 1.541536e-05 -3.190364e-05)
141           	(-2.351118e-02 2.246546e-02 -3.790133e-02)	(-2.351263e-02 2.245104e-02 -3.786936e-02)	(1.446698e-06 1.441314e-05 -3.197772e-05)
142           	(-2.331417e-02 2.223939e-02 -3.755632e-02)	(-2.331487e-02 2.222602e-02 -3.752421e-02)	(6.967574e-07 1.337023e-05 -3.210592e-05)
143           	(-2.320822e-02 2.221239e-02 -3.725658e-02)	(-2.320821e-02 2.220000e-02 -3.722437e-02)	(-9.076924e-09 1.239011e-05 -3.221079e-05)
144           	(-2.309316e-02 2.218524e-02 -3.688703e-02)	(-2.309245e-02 2.217381e-02 -3.685479e-02)	(-7.099464e-07 1.143064e-05 -3.224757e-05)
145           	(-2.297382e-02 2.216229e-02 -3.643345e-02)	(-2.297240e-02 2.215182e-02 -3.640125e-02)	(-1.417766e-06 1.047290e-05 -3.220358e-05)
146           	(-2.284469e-02 2.215743e-02 -3.589775e-02)	(-2.284256e-02 2.214792e-02 -3.586568e-02)	(-2.134917e-06 9.513440e-06 -3.206697e-05)
147           	(-2.271378e-02 2.215115e-02 -3.536120e-02)	(-2.271092e-02 2.214259e-02 -3.532934e-02)	(-2.856900e-06 8.555209e-06 -3.185541e-05)
148           	(-2.263013e-02 2.219126e-02 -3.478167e-02)	(-2.262656e-02 2.218365e-02 -3.475009e-02)	(-3.577555e-06 7.608745e-06 -3.157584e-05)
149           	(-2.261445e-02 2.222285e-02 -3.418841e-02)	(-2.261015e-02 2.221619e-02 -3.415715e-02)	(-4.308655e-06 6.655748e-06 -3.125886e-05)
150           	(-2.264060e-02 2.233529e-02 -3.365698e-02)	(-2.263557e-02 2.232955e-02 -3.362604e-02)	(-5.023117e-06 5.732552e-06 -3.093700e-05)
151           	(-2.268966e-02 2.245205e-02 -3.316657e-02)	(-2.268394e-02 2.244722e-02 -3.313593e-02)	(-5.724622e-06 4.832497e-06 -3.064561e-05)
152           	(-2.273886e-02 2.256149e-02 -3.269283e-02)	(-2.273245e-02 2.255754e-02 -3.266241e-02)	(-6.410436e-06 3.950298e-06 -3.041617e-05)
153           	(-2.277453e-02 2.266121e-02 -3.223756e-02)	(-2.276746e-02 2.265812e-02 -3.220729e-02)	(-7.076619e-06 3.086367e-06 -3.026752e-05)
154           	(-2.278903e-02 2.274986e-02 -3.179726e-02)	(-2.278132e-02 2.274761e-02 -3.176705e-02)	(-7.719757e-06 2.244850e-06 -3.020527e-05)
155           	(-2.278032e-02 2.282393e-02 -3.135752e-02)	(-2.277198e-02 2.282250e-02 -3.132731e-02)	(-8.339996e-06 1.425979e-06 -3.021848e-05)
156           	(-2.276602e-02 2.285387e-02 -3.093176e-02)	(-2.275707e-02 2.285326e-02 -3.090146e-02)	(-8.950619e-06 6.108097e-07 -3.029621e-05)
157           	(-2.271746e-02 2.293173e-02 -3.053117e-02)	(-2.270794e-02 2.293189e-02 -3.050076e-02)	(-9.519850e-06 -1.542084e-07 -3.040849e-05)
158           	(-2.265981e-02 2.300830e-02 -3.013105e-02)	(-2.264976e-02 2.300916e-02 -3.010051e-02)	(-1.005181e-05 -8.683214e-07 -3.053233e-05)
159           	(-2.261040e-02 2.304919e-02 -2.967533e-02)	(-2.259983e-02 2.305075e-02 -2.964468e-02)	(-1.056635e-05 -1.560993e-06 -3.065446e-05)
160           	(-2.254911e-02 2.309066e-02 -2.923035e-02)	(-2.253806e-02 2.309288e-02 -2.919958e-02)	(-1.105343e-05 -2.222745e-06 -3.077142e-05)
161           	(-2.247576e-02 2.313167e-02 -2.880239e-02)	(-2.246425e-02 2.313452e-02 -2.877152e-02)	(-1.150911e-05 -2.847149e-06 -3.087902e-05)
162           	(-2.237949e-02 2.318138e-02 -2.841204e-02)	(-2.236757e-02 2.318480e-02 -2.838106e-02)	(-1.192151e-05 -3.421114e-06 -3.097648e-05)
163           	(-2.228129e-02 2.322790e-02 -2.802492e-02)	(-2.226900e-02 2.323185e-02 -2.799386e-02)	(-1.229497e-05 -3.949421e-06 -3.105742e-05)
164           	(-2.218698e-02 2.326884e-02 -2.764721e-02)	(-2.217435e-02 2.327328e-02 -2.761609e-02)	(-1.263689e-05 -4.442778e-06 -3.111556e-05)
165           	(-2.209555e-02 2.330537e-02 -2.726175e-02)	(-2.208260e-02 2.331028e-02 -2.723061e-02)	(-1.295292e-05 -4.909054e-06 -3.114482e-05)
166           	(-2.200670e-02 2.333837e-02 -2.686416e-02)	(-2.199345e-02 2.334372e-02 -2.683301e-02)	(-1.324895e-05 -5.354914e-06 -3.114349e-05)
167           	(-2.192189e-02 2.336828e-02 -2.646430e-02)	(-2.190835e-02 2.337407e-02 -2.643319e-02)	(-1.353451e-05 -5.789376e-06 -3.111496e-05)
168           	(-2.183276e-02 2.339985e-02 -2.609279e-02)	(-2.181895e-02 2.340607e-02 -2.606173e-02)	(-1.381262e-05 -6.212964e-06 -3.106506e-05)
169           	(-2.175318e-02 2.343495e-02 -2.572991e-02)	(-2.173909e-02 2.344158e-02 -2.569891e-02)	(-1.409073e-05 -6.629860e-06 -3.100162e-05)
170           	(-2.168786e-02 2.347581e-02 -2.537341e-02)	(-2.167348e-02 2.348285e-02 -2.534248e-02)	(-1.437647e-05 -7.046140e-06 -3.093075e-05)
171           	(-2.165174e-02 2.352529e-02 -2.502389e-02)	(-2.163706e-02 2.353276e-02 -2.499304e-02)	(-1.468070e-05 -7.471283e-06 -3.085565e-05)
172           	(-2.161822e-02 2.344737e-02 -2.471747e-02)	(-2.160316e-02 2.345536e-02 -2.468667e-02)	(-1.505355e-05 -7.985370e-06 -3.079769e-05)
173           	(-2.159880e-02 2.350429e-02 -2.443262e-02)	(-2.158336e-02 2.351279e-02 -2.440188e-02)	(-1.543837e-05 -8.494481e-06 -3.074007e-05)
174           	(-2.157950e-02 2.355105e-02 -2.417213e-02)	(-2.156365e-02 2.356006e-02 -2.414145e-02)	(-1.584927e-05 -9.009888e-06 -3.068350e-05)
175           	(-2.154256e-02 2.345783e-02 -2.394031e-02)	(-2.152622e-02 2.346745e-02 -2.390968e-02)	(-1.633717e-05 -9.618724e-06 -3.063615e-05)
176           	(-2.148265e-02 2.348224e-02 -2.368175e-02)	(-2.146582e-02 2.349246e-02 -2.365118e-02)	(-1.683299e-05 -1.021859e-05 -3.057477e-05)
177           	(-2.141324e-02 2.349572e-02 -2.337527e-02)	(-2.139590e-02 2.350653e-02 -2.334478e-02)	(-1.734255e-05 -1.081389e-05 -3.048993e-05)
178           	(-2.134681e-02 2.349903e-02 -2.302973e-02)	(-2.132894e-02 2.351044e-02 -2.299934e-02)	(-1.786841e-05 -1.141589e-05 -3.038524e-05)
179           	(-2.126906e-02 2.350595e-02 -2.271915e-02)	(-2.125067e-02 2.351796e-02 -2.268887e-02)	(-1.839736e-05 -1.201391e-05 -3.028150e-05)
180           	(-2.119611e-02 2.351633e-02 -2.240986e-02)	(-2.117719e-02 2.352894e-02 -2.237967e-02)	(-1.892340e-05 -1.260519e-05 -3.018799e-05)
181           	(-2.113209e-02 2.353161e-02 -2.211014e-02)	(-2.111265e-02 2.354480e-02 -2.208003e-02)	(-1.943935e-05 -1.318687e-05 -3.011364e-05)
182           	(-2.107875e-02 2.355124e-02 -2.182945e-02)	(-2.105881e-02 2.356499e-02 -2.179938e-02)	(-1.994152e-05 -1.375822e-05 -3.006905e-05)
183           	(-2.103678e-02 2.357191e-02 -2.155922e-02)	(-2.101635e-02 2.358623e-02 -2.152916e-02)	(-2.042862e-05 -1.432087e-05 -3.005858e-05)
184           	(-2.100973e-02 2.358674e-02 -2.131906e-02)	(-2.098883e-02 2.360162e-02 -2.128897e-02)	(-2.090269e-05 -1.487939e-05 -3.008773e-05)
185           	(-2.098007e-02 2.360039e-02 -2.111580e-02)	(-2.095871e-02 2.361581e-02 -2.108564e-02)	(-2.135944e-05 -1.542824e-05 -3.015710e-05)
186           	(-2.094123e-02 2.361176e-02 -2.093382e-02)	(-2.091944e-02 2.362772e-02 -2.090356e-02)	(-2.179527e-05 -1.596010e-05 -3.026225e-05)
187           	(-2.089479e-02 2.361878e-02 -2.077892e-02)	(-2.087258e-02 2.363526e-02 -2.074852e-02)	(-2.221013e-05 -1.647365e-05 -3.039251e-05)
188           	(-2.083874e-02 2.362095e-02 -2.063762e-02)	(-2.081614e-02 2.363791e-02 -2.060709e-02)	(-2.260231e-05 -1.696516e-05 -3.053427e-05)
189           	(-2.077665e-02 2.361809e-02 -2.050844e-02)	(-2.075368e-02 2.363553e-02 -2.047776e-02)	(-2.297221e-05 -1.743366e-05 -3.067733e-05)
190           	(-2.071170e-02 2.361114e-02 -2.038743e-02)	(-2.068838e-02 2.362902e-02 -2.035662e-02)	(-2.332002e-05 -1.787839e-05 -3.081235e-05)
191           	(-2.065088e-02 2.360024e-02 -2.028007e-02)	(-2.062723e-02 2.361854e-02 -2.024913e-02)	(-2.364819e-05 -1.830140e-05 -3.093349e-05)
192           	(-2.058307e-02 2.358722e-02 -2.015152e-02)	(-2.055912e-02 2.360591e-02 -2.012048e-02)	(-2.395213e-05 -1.869718e-05 -3.103917e-05)
193           	(-2.050777e-02 2.357346e-02 -1.999610e-02)	(-2.048354e-02 2.359252e-02 -1.996496e-02)	(-2.422795e-05 -1.906160e-05 -3.113081e-05)
194           	(-2.041803e-02 2.356139e-02 -1.979715e-02)	(-2.039356e-02 2.358077e-02 -1.976594e-02)	(-2.446697e-05 -1.938529e-05 -3.121661e-05)
195           	(-2.033178e-02 2.355288e-02 -1.959752e-02)	(-2.030711e-02 2.357254e-02 -1.956621e-02)	(-2.466655e-05 -1.966444e-05 -3.131411e-05)
196           	(-2.025352e-02 2.355005e-02 -1.941116e-02)	(-2.022869e-02 2.356994e-02 -1.937972e-02)	(-2.482362e-05 -1.989562e-05 -3.143702e-05)
197           	(-2.018607e-02 2.355389e-02 -1.925208e-02)	(-2.016114e-02 2.357397e-02 -1.922048e-02)	(-2.493673e-05 -2.007740e-05 -3.159483e-05)
198           	(-2.012391e-02 2.356601e-02 -1.912260e-02)	(-2.009891e-02 2.358622e-02 -1.909081e-02)	(-2.500203e-05 -2.020553e-05 -3.179102e-05)
199           	(-2.007201e-02 2.358367e-02 -1.904597e-02)	(-2.004699e-02 2.360395e-02 -1.901394e-02)	(-2.502126e-05 -2.028171e-05 -3.202728e-05)
200           	(-2.004127e-02 2.349659e-02 -1.913058e-02)	(-2.001623e-02 2.351697e-02 -1.909827e-02)	(-2.503933e-05 -2.037925e-05 -3.231907e-05)
201           	(-1.998773e-02 2.350509e-02 -1.910656e-02)	(-1.996272e-02 2.352551e-02 -1.907395e-02)	(-2.500627e-05 -2.041931e-05 -3.260999e-05)
202           	(-1.993019e-02 2.350249e-02 -1.910206e-02)	(-1.990526e-02 2.352290e-02 -1.906917e-02)	(-2.492807e-05 -2.040473e-05 -3.288908e-05)
203           	(-1.987211e-02 2.348882e-02 -1.910741e-02)	(-1.984729e-02 2.350918e-02 -1.907426e-02)	(-2.481899e-05 -2.035460e-05 -3.315281e-05)
204           	(-1.980876e-02 2.346758e-02 -1.911006e-02)	(-1.978407e-02 2.348785e-02 -1.907666e-02)	(-2.468107e-05 -2.027294e-05 -3.340058e-05)
205           	(-1.974195e-02 2.344183e-02 -1.910408e-02)	(-1.971743e-02 2.346200e-02 -1.907045e-02)	(-2.451773e-05 -2.016348e-05 -3.363723e-05)
206           	(-1.967410e-02 2.341399e-02 -1.908845e-02)	(-1.964976e-02 2.343402e-02 -1.905457e-02)	(-2.433165e-05 -2.002844e-05 -3.387083e-05)
207           	(-1.960773e-02 2.338572e-02 -1.906649e-02)	(-1.958361e-02 2.340559e-02 -1.903238e-02)	(-2.412604e-05 -1.987042e-05 -3.411094e-05)