# Moment bins 
# bins        : 20
# start       : -1.847449e-01
# end         : 1.847814e-01
# delta       : 1.847631e-02
# direction   : (1.000000e+00 0.000000e+00 0.000000e+00)
# x co-ords  :	-1.662685e-01	-1.477922e-01	-1.293159e-01	-1.108396e-01	-9.236330e-02	-7.388699e-02	-5.541068e-02	-3.693437e-02	-1.845806e-02	1.825545e-05	1.849457e-02	3.697088e-02	5.544719e-02	7.392350e-02	9.239981e-02	1.108761e-01	1.293524e-01	1.478287e-01	1.663051e-01	1.847814e-01
# y co-ords  :	-0.000000e+00	-0.000000e+00	-0.000000e+00	-0.000000e+00	-0.000000e+00	-0.000000e+00	-0.000000e+00	-0.000000e+00	-0.000000e+00	0.000000e+00	0.000000e+00	0.000000e+00	0.000000e+00	0.000000e+00	0.000000e+00	0.000000e+00	0.000000e+00	0.000000e+00	0.000000e+00	0.000000e+00
# z co-ords  :	-0.000000e+00	-0.000000e+00	-0.000000e+00	-0.000000e+00	-0.000000e+00	-0.000000e+00	-0.000000e+00	-0.000000e+00	-0.000000e+00	0.000000e+00	0.000000e+00	0.000000e+00	0.000000e+00	0.000000e+00	0.000000e+00	0.000000e+00	0.000000e+00	0.000000e+00	0.000000e+00	0.000000e+00
#
# Time        	0:(total_x total_y total_z)	0:(pressure_x pressure_y pressure_z)	0:(viscous_x viscous_y viscous_z)	1:(total_x total_y total_z)	1:(pressure_x pressure_y pressure_z)	1:(viscous_x viscous_y viscous_z)	2:(total_x total_y total_z)	2:(pressure_x pressure_y pressure_z)	2:(viscous_x viscous_y viscous_z)	3:(total_x total_y total_z)	3:(pressure_x pressure_y pressure_z)	3:(viscous_x viscous_y viscous_z)	4:(total_x total_y total_z)	4:(pressure_x pressure_y pressure_z)	4:(viscous_x viscous_y viscous_z)	5:(total_x total_y total_z)	5:(pressure_x pressure_y pressure_z)	5:(viscous_x viscous_y viscous_z)	6:(total_x total_y total_z)	6:(pressure_x pressure_y pressure_z)	6:(viscous_x viscous_y viscous_z)	7:(total_x total_y total_z)	7:(pressure_x pressure_y pressure_z)	7:(viscous_x viscous_y viscous_z)	8:(total_x total_y total_z)	8:(pressure_x pressure_y pressure_z)	8:(viscous_x viscous_y viscous_z)	9:(total_x total_y total_z)	9:(pressure_x pressure_y pressure_z)	9:(viscous_x viscous_y viscous_z)	10:(total_x total_y total_z)	10:(pressure_x pressure_y pressure_z)	10:(viscous_x viscous_y viscous_z)	11:(total_x total_y total_z)	11:(pressure_x pressure_y pressure_z)	11:(viscous_x viscous_y viscous_z)	12:(total_x total_y total_z)	12:(pressure_x pressure_y pressure_z)	12:(viscous_x viscous_y viscous_z)	13:(total_x total_y total_z)	13:(pressure_x pressure_y pressure_z)	13:(viscous_x viscous_y viscous_z)	14:(total_x total_y total_z)	14:(pressure_x pressure_y pressure_z)	14:(viscous_x viscous_y viscous_z)	15:(total_x total_y total_z)	15:(pressure_x pressure_y pressure_z)	15:(viscous_x viscous_y viscous_z)	16:(total_x total_y total_z)	16:(pressure_x pressure_y pressure_z)	16:(viscous_x viscous_y viscous_z)	17:(total_x total_y total_z)	17:(pressure_x pressure_y pressure_z)	17:(viscous_x viscous_y viscous_z)	18:(total_x total_y total_z)	18:(pressure_x pressure_y pressure_z)	18:(viscous_x viscous_y viscous_z)	19:(total_x total_y total_z)	19:(pressure_x pressure_y pressure_z)	19:(viscous_x viscous_y viscous_z)
3901          	(-1.038878e+00 -4.586483e+00 2.188710e+01)	(-1.038856e+00 -4.586462e+00 2.188713e+01)	(-2.190089e-05 -2.111593e-05 -3.152061e-05)	(-4.123878e+00 -1.067900e+01 3.962019e+01)	(-4.123843e+00 -1.067897e+01 3.962025e+01)	(-3.514546e-05 -3.157869e-05 -6.254036e-05)	(-7.768268e+00 -1.430774e+01 3.457188e+01)	(-7.768230e+00 -1.430771e+01 3.457194e+01)	(-3.730925e-05 -3.498216e-05 -5.854584e-05)	(-1.084908e+01 -1.738918e+01 2.964146e+01)	(-1.084904e+01 -1.738914e+01 2.964152e+01)	(-3.749706e-05 -3.623063e-05 -5.457455e-05)	(-1.350423e+01 -2.004292e+01 2.467571e+01)	(-1.350419e+01 -2.004289e+01 2.467576e+01)	(-3.682137e-05 -3.660269e-05 -5.063527e-05)	(-1.563091e+01 -2.216749e+01 1.973626e+01)	(-1.563087e+01 -2.216745e+01 1.973630e+01)	(-3.560473e-05 -3.648843e-05 -4.675468e-05)	(-1.732090e+01 -2.385249e+01 1.476553e+01)	(-1.732087e+01 -2.385245e+01 1.476557e+01)	(-3.383973e-05 -3.590744e-05 -4.290254e-05)	(-1.850516e+01 -2.502156e+01 9.797374e+00)	(-1.850513e+01 -2.502153e+01 9.797413e+00)	(-3.145963e-05 -3.484932e-05 -3.904970e-05)	(-1.922994e+01 -2.574218e+01 4.844365e+00)	(-1.922991e+01 -2.574214e+01 4.844400e+00)	(-2.831676e-05 -3.318087e-05 -3.515893e-05)	(-1.946621e+01 -2.597425e+01 -9.760279e-02)	(-1.946619e+01 -2.597422e+01 -9.757155e-02)	(-2.425386e-05 -3.077884e-05 -3.124631e-05)	(-1.923104e+01 -2.574303e+01 -5.041427e+00)	(-1.923102e+01 -2.574300e+01 -5.041399e+00)	(-1.910798e-05 -2.747890e-05 -2.730945e-05)	(-1.850553e+01 -2.502312e+01 -1.000610e+01)	(-1.850552e+01 -2.502310e+01 -1.000608e+01)	(-1.274581e-05 -2.312801e-05 -2.331867e-05)	(-1.732463e+01 -2.384324e+01 -1.494336e+01)	(-1.732462e+01 -2.384323e+01 -1.494334e+01)	(-5.003694e-06 -1.755516e-05 -1.928065e-05)	(-1.563966e+01 -2.215577e+01 -1.989648e+01)	(-1.563967e+01 -2.215576e+01 -1.989647e+01)	(4.422916e-06 -1.044823e-05 -1.501069e-05)	(-1.351129e+01 -2.002118e+01 -2.480931e+01)	(-1.351131e+01 -2.002118e+01 -2.480930e+01)	(1.581339e-05 -1.536166e-06 -1.049465e-05)	(-1.086684e+01 -1.737114e+01 -2.974591e+01)	(-1.086687e+01 -1.737115e+01 -2.974591e+01)	(2.965852e-05 9.696740e-06 -5.298152e-06)	(-7.758495e+00 -1.425549e+01 -3.466155e+01)	(-7.758542e+00 -1.425552e+01 -3.466156e+01)	(4.696839e-05 2.420439e-05 1.177116e-06)	(-4.218622e+00 -1.072684e+01 -3.965782e+01)	(-4.218687e+00 -1.072688e+01 -3.965784e+01)	(6.491121e-05 4.034802e-05 1.208333e-05)	(-1.057147e+00 -4.553084e+00 -2.192211e+01)	(-1.057215e+00 -4.553126e+00 -2.192212e+01)	(6.751570e-05 4.256328e-05 1.086959e-05)	(-1.964797e-02 2.641390e-02 -6.711467e-02)	(-1.971632e-02 2.637073e-02 -6.712279e-02)	(6.834464e-05 4.317580e-05 8.116972e-06)
3902          	(-1.038878e+00 -4.586483e+00 2.188710e+01)	(-1.038856e+00 -4.586462e+00 2.188713e+01)	(-2.190382e-05 -2.112050e-05 -3.151587e-05)	(-4.123878e+00 -1.067900e+01 3.962019e+01)	(-4.123843e+00 -1.067897e+01 3.962025e+01)	(-3.515155e-05 -3.159029e-05 -6.252336e-05)	(-7.768267e+00 -1.430774e+01 3.457188e+01)	(-7.768230e+00 -1.430771e+01 3.457194e+01)	(-3.731840e-05 -3.499795e-05 -5.852386e-05)	(-1.084907e+01 -1.738918e+01 2.964146e+01)	(-1.084904e+01 -1.738914e+01 2.964152e+01)	(-3.750784e-05 -3.624880e-05 -5.454991e-05)	(-1.350423e+01 -2.004292e+01 2.467571e+01)	(-1.350419e+01 -2.004288e+01 2.467576e+01)	(-3.683303e-05 -3.662267e-05 -5.060688e-05)	(-1.563090e+01 -2.216748e+01 1.973626e+01)	(-1.563087e+01 -2.216745e+01 1.973631e+01)	(-3.561689e-05 -3.650953e-05 -4.672399e-05)	(-1.732090e+01 -2.385249e+01 1.476553e+01)	(-1.732086e+01 -2.385245e+01 1.476558e+01)	(-3.385290e-05 -3.592987e-05 -4.286984e-05)	(-1.850516e+01 -2.502156e+01 9.797381e+00)	(-1.850513e+01 -2.502153e+01 9.797420e+00)	(-3.147484e-05 -3.487346e-05 -3.901573e-05)	(-1.922993e+01 -2.574217e+01 4.844372e+00)	(-1.922991e+01 -2.574214e+01 4.844407e+00)	(-2.833303e-05 -3.320617e-05 -3.512398e-05)	(-1.946621e+01 -2.597425e+01 -9.759557e-02)	(-1.946619e+01 -2.597422e+01 -9.756435e-02)	(-2.427095e-05 -3.080516e-05 -3.121100e-05)	(-1.923104e+01 -2.574303e+01 -5.041420e+00)	(-1.923102e+01 -2.574300e+01 -5.041392e+00)	(-1.912651e-05 -2.750672e-05 -2.727374e-05)	(-1.850553e+01 -2.502312e+01 -1.000610e+01)	(-1.850552e+01 -2.502310e+01 -1.000607e+01)	(-1.276656e-05 -2.315778e-05 -2.328224e-05)	(-1.732462e+01 -2.384324e+01 -1.494336e+01)	(-1.732462e+01 -2.384323e+01 -1.494334e+01)	(-5.026742e-06 -1.758708e-05 -1.924372e-05)	(-1.563966e+01 -2.215577e+01 -1.989648e+01)	(-1.563966e+01 -2.215576e+01 -1.989646e+01)	(4.398112e-06 -1.048203e-05 -1.497383e-05)	(-1.351129e+01 -2.002118e+01 -2.480931e+01)	(-1.351130e+01 -2.002118e+01 -2.480930e+01)	(1.578715e-05 -1.571800e-06 -1.045820e-05)	(-1.086684e+01 -1.737114e+01 -2.974592e+01)	(-1.086687e+01 -1.737115e+01 -2.974591e+01)	(2.963089e-05 9.659045e-06 -5.262122e-06)	(-7.758490e+00 -1.425549e+01 -3.466156e+01)	(-7.758537e+00 -1.425552e+01 -3.466156e+01)	(4.693970e-05 2.416501e-05 1.213258e-06)	(-4.218616e+00 -1.072684e+01 -3.965784e+01)	(-4.218681e+00 -1.072688e+01 -3.965785e+01)	(6.488162e-05 4.030722e-05 1.212080e-05)	(-1.057141e+00 -4.553086e+00 -2.192213e+01)	(-1.057209e+00 -4.553128e+00 -2.192214e+01)	(6.749106e-05 4.252396e-05 1.088771e-05)	(-1.964189e-02 2.641184e-02 -6.713026e-02)	(-1.971022e-02 2.636871e-02 -6.713834e-02)	(6.832132e-05 4.312864e-05 8.082467e-06)
3903          	(-1.038879e+00 -4.586483e+00 2.188710e+01)	(-1.038857e+00 -4.586462e+00 2.188713e+01)	(-2.190069e-05 -2.111930e-05 -3.150188e-05)	(-4.123878e+00 -1.067900e+01 3.962018e+01)	(-4.123843e+00 -1.067897e+01 3.962025e+01)	(-3.514641e-05 -3.158977e-05 -6.249997e-05)	(-7.768266e+00 -1.430774e+01 3.457188e+01)	(-7.768228e+00 -1.430771e+01 3.457194e+01)	(-3.731507e-05 -3.500000e-05 -5.850000e-05)	(-1.084907e+01 -1.738918e+01 2.964147e+01)	(-1.084904e+01 -1.738914e+01 2.964152e+01)	(-3.750515e-05 -3.625183e-05 -5.452759e-05)	(-1.350422e+01 -2.004292e+01 2.467572e+01)	(-1.350419e+01 -2.004288e+01 2.467577e+01)	(-3.683082e-05 -3.662666e-05 -5.058385e-05)	(-1.563090e+01 -2.216748e+01 1.973627e+01)	(-1.563087e+01 -2.216745e+01 1.973632e+01)	(-3.561480e-05 -3.651383e-05 -4.670127e-05)	(-1.732089e+01 -2.385249e+01 1.476555e+01)	(-1.732086e+01 -2.385245e+01 1.476559e+01)	(-3.385110e-05 -3.593441e-05 -4.284731e-05)	(-1.850516e+01 -2.502156e+01 9.797394e+00)	(-1.850513e+01 -2.502152e+01 9.797433e+00)	(-3.147463e-05 -3.487910e-05 -3.899248e-05)	(-1.922993e+01 -2.574217e+01 4.844387e+00)	(-1.922990e+01 -2.574214e+01 4.844422e+00)	(-2.833333e-05 -3.321216e-05 -3.510044e-05)	(-1.946621e+01 -2.597425e+01 -9.758031e-02)	(-1.946618e+01 -2.597422e+01 -9.754913e-02)	(-2.427154e-05 -3.081120e-05 -3.118753e-05)	(-1.923103e+01 -2.574303e+01 -5.041405e+00)	(-1.923101e+01 -2.574300e+01 -5.041378e+00)	(-1.912820e-05 -2.751357e-05 -2.724992e-05)	(-1.850552e+01 -2.502312e+01 -1.000608e+01)	(-1.850551e+01 -2.502310e+01 -1.000606e+01)	(-1.277000e-05 -2.316581e-05 -2.325779e-05)	(-1.732462e+01 -2.384324e+01 -1.494335e+01)	(-1.732461e+01 -2.384323e+01 -1.494333e+01)	(-5.032101e-06 -1.759660e-05 -1.921819e-05)	(-1.563965e+01 -2.215577e+01 -1.989647e+01)	(-1.563966e+01 -2.215576e+01 -1.989646e+01)	(4.391016e-06 -1.049323e-05 -1.494737e-05)	(-1.351128e+01 -2.002118e+01 -2.480931e+01)	(-1.351130e+01 -2.002118e+01 -2.480929e+01)	(1.577856e-05 -1.584710e-06 -1.043115e-05)	(-1.086683e+01 -1.737114e+01 -2.974592e+01)	(-1.086686e+01 -1.737115e+01 -2.974591e+01)	(2.962113e-05 9.644574e-06 -5.234117e-06)	(-7.758480e+00 -1.425549e+01 -3.466157e+01)	(-7.758527e+00 -1.425552e+01 -3.466157e+01)	(4.692903e-05 2.414917e-05 1.242544e-06)	(-4.218605e+00 -1.072684e+01 -3.965785e+01)	(-4.218670e+00 -1.072688e+01 -3.965786e+01)	(6.487018e-05 4.029019e-05 1.215222e-05)	(-1.057129e+00 -4.553086e+00 -2.192214e+01)	(-1.057197e+00 -4.553128e+00 -2.192215e+01)	(6.748456e-05 4.250873e-05 1.090170e-05)	(-1.962961e-02 2.641272e-02 -6.714010e-02)	(-1.969792e-02 2.636962e-02 -6.714815e-02)	(6.831483e-05 4.310525e-05 8.048863e-06)
3904          	(-1.038879e+00 -4.586483e+00 2.188709e+01)	(-1.038857e+00 -4.586462e+00 2.188712e+01)	(-2.190391e-05 -2.112407e-05 -3.149753e-05)	(-4.123878e+00 -1.067900e+01 3.962018e+01)	(-4.123843e+00 -1.067897e+01 3.962024e+01)	(-3.515253e-05 -3.160124e-05 -6.248290e-05)	(-7.768264e+00 -1.430774e+01 3.457188e+01)	(-7.768227e+00 -1.430771e+01 3.457194e+01)	(-3.732293e-05 -3.501346e-05 -5.848632e-05)	(-1.084907e+01 -1.738917e+01 2.964147e+01)	(-1.084903e+01 -1.738914e+01 2.964153e+01)	(-3.751344e-05 -3.626579e-05 -5.451723e-05)	(-1.350422e+01 -2.004292e+01 2.467573e+01)	(-1.350418e+01 -2.004288e+01 2.467578e+01)	(-3.683946e-05 -3.664119e-05 -5.057433e-05)	(-1.563090e+01 -2.216748e+01 1.973629e+01)	(-1.563086e+01 -2.216745e+01 1.973633e+01)	(-3.562341e-05 -3.652827e-05 -4.669340e-05)	(-1.732089e+01 -2.385248e+01 1.476556e+01)	(-1.732086e+01 -2.385245e+01 1.476561e+01)	(-3.385974e-05 -3.594861e-05 -4.284081e-05)	(-1.850515e+01 -2.502156e+01 9.797412e+00)	(-1.850512e+01 -2.502152e+01 9.797451e+00)	(-3.148457e-05 -3.489398e-05 -3.898572e-05)	(-1.922992e+01 -2.574217e+01 4.844405e+00)	(-1.922990e+01 -2.574214e+01 4.844440e+00)	(-2.834342e-05 -3.322683e-05 -3.509390e-05)	(-1.946620e+01 -2.597425e+01 -9.756089e-02)	(-1.946618e+01 -2.597422e+01 -9.752971e-02)	(-2.428158e-05 -3.082529e-05 -3.118141e-05)	(-1.923102e+01 -2.574303e+01 -5.041386e+00)	(-1.923101e+01 -2.574300e+01 -5.041358e+00)	(-1.913903e-05 -2.752783e-05 -2.724356e-05)	(-1.850552e+01 -2.502312e+01 -1.000607e+01)	(-1.850550e+01 -2.502310e+01 -1.000604e+01)	(-1.278211e-05 -2.318046e-05 -2.325087e-05)	(-1.732461e+01 -2.384324e+01 -1.494333e+01)	(-1.732460e+01 -2.384323e+01 -1.494331e+01)	(-5.045623e-06 -1.761197e-05 -1.920980e-05)	(-1.563965e+01 -2.215578e+01 -1.989646e+01)	(-1.563965e+01 -2.215577e+01 -1.989644e+01)	(4.375974e-06 -1.050985e-05 -1.493718e-05)	(-1.351127e+01 -2.002119e+01 -2.480930e+01)	(-1.351129e+01 -2.002118e+01 -2.480929e+01)	(1.576221e-05 -1.602582e-06 -1.041932e-05)	(-1.086682e+01 -1.737114e+01 -2.974592e+01)	(-1.086685e+01 -1.737115e+01 -2.974591e+01)	(2.960405e-05 9.625929e-06 -5.219965e-06)	(-7.758469e+00 -1.425550e+01 -3.466158e+01)	(-7.758516e+00 -1.425552e+01 -3.466158e+01)	(4.691150e-05 2.412987e-05 1.259185e-06)	(-4.218592e+00 -1.072684e+01 -3.965786e+01)	(-4.218657e+00 -1.072688e+01 -3.965788e+01)	(6.485221e-05 4.027019e-05 1.217213e-05)	(-1.057115e+00 -4.553085e+00 -2.192215e+01)	(-1.057183e+00 -4.553128e+00 -2.192216e+01)	(6.747088e-05 4.249069e-05 1.090846e-05)	(-1.961520e-02 2.641457e-02 -6.714423e-02)	(-1.968351e-02 2.637149e-02 -6.715223e-02)	(6.830331e-05 4.308044e-05 8.002230e-06)
3905          	(-1.038879e+00 -4.586484e+00 2.188709e+01)	(-1.038858e+00 -4.586462e+00 2.188712e+01)	(-2.190080e-05 -2.112293e-05 -3.148320e-05)	(-4.123878e+00 -1.067900e+01 3.962018e+01)	(-4.123842e+00 -1.067897e+01 3.962024e+01)	(-3.514708e-05 -3.160079e-05 -6.245551e-05)	(-7.768264e+00 -1.430774e+01 3.457189e+01)	(-7.768226e+00 -1.430771e+01 3.457195e+01)	(-3.731855e-05 -3.501421e-05 -5.846368e-05)	(-1.084907e+01 -1.738917e+01 2.964148e+01)	(-1.084903e+01 -1.738914e+01 2.964154e+01)	(-3.750979e-05 -3.626723e-05 -5.449823e-05)	(-1.350422e+01 -2.004292e+01 2.467574e+01)	(-1.350418e+01 -2.004288e+01 2.467579e+01)	(-3.683625e-05 -3.664317e-05 -5.055660e-05)	(-1.563089e+01 -2.216748e+01 1.973630e+01)	(-1.563086e+01 -2.216744e+01 1.973635e+01)	(-3.562017e-05 -3.653012e-05 -4.667751e-05)	(-1.732089e+01 -2.385248e+01 1.476558e+01)	(-1.732085e+01 -2.385245e+01 1.476562e+01)	(-3.385661e-05 -3.595025e-05 -4.282652e-05)	(-1.850515e+01 -2.502156e+01 9.797429e+00)	(-1.850512e+01 -2.502152e+01 9.797468e+00)	(-3.148266e-05 -3.489621e-05 -3.897134e-05)	(-1.922992e+01 -2.574217e+01 4.844423e+00)	(-1.922989e+01 -2.574214e+01 4.844458e+00)	(-2.834154e-05 -3.322873e-05 -3.507986e-05)	(-1.946620e+01 -2.597425e+01 -9.754282e-02)	(-1.946617e+01 -2.597422e+01 -9.751165e-02)	(-2.427964e-05 -3.082662e-05 -3.116776e-05)	(-1.923102e+01 -2.574303e+01 -5.041368e+00)	(-1.923100e+01 -2.574300e+01 -5.041340e+00)	(-1.913780e-05 -2.752912e-05 -2.722971e-05)	(-1.850551e+01 -2.502312e+01 -1.000605e+01)	(-1.850550e+01 -2.502310e+01 -1.000603e+01)	(-1.278198e-05 -2.318185e-05 -2.323628e-05)	(-1.732460e+01 -2.384325e+01 -1.494332e+01)	(-1.732460e+01 -2.384323e+01 -1.494330e+01)	(-5.046594e-06 -1.761363e-05 -1.919347e-05)	(-1.563964e+01 -2.215578e+01 -1.989645e+01)	(-1.563964e+01 -2.215577e+01 -1.989643e+01)	(4.373759e-06 -1.051228e-05 -1.491854e-05)	(-1.351126e+01 -2.002119e+01 -2.480929e+01)	(-1.351128e+01 -2.002119e+01 -2.480928e+01)	(1.575903e-05 -1.605656e-06 -1.039822e-05)	(-1.086681e+01 -1.737115e+01 -2.974591e+01)	(-1.086684e+01 -1.737116e+01 -2.974591e+01)	(2.960066e-05 9.622932e-06 -5.195473e-06)	(-7.758460e+00 -1.425550e+01 -3.466158e+01)	(-7.758507e+00 -1.425552e+01 -3.466158e+01)	(4.690827e-05 2.412708e-05 1.287224e-06)	(-4.218582e+00 -1.072685e+01 -3.965787e+01)	(-4.218647e+00 -1.072689e+01 -3.965788e+01)	(6.484927e-05 4.026767e-05 1.220458e-05)	(-1.057104e+00 -4.553084e+00 -2.192215e+01)	(-1.057171e+00 -4.553127e+00 -2.192216e+01)	(6.747260e-05 4.249138e-05 1.093321e-05)	(-1.960325e-02 2.641721e-02 -6.713960e-02)	(-1.967155e-02 2.637414e-02 -6.714758e-02)	(6.830746e-05 4.307621e-05 7.981292e-06)
3906          	(-1.038880e+00 -4.586484e+00 2.188709e+01)	(-1.038858e+00 -4.586463e+00 2.188712e+01)	(-2.190398e-05 -2.112760e-05 -3.147915e-05)	(-4.123878e+00 -1.067900e+01 3.962018e+01)	(-4.123842e+00 -1.067897e+01 3.962024e+01)	(-3.515165e-05 -3.161009e-05 -6.244187e-05)	(-7.768263e+00 -1.430774e+01 3.457189e+01)	(-7.768225e+00 -1.430771e+01 3.457195e+01)	(-3.732450e-05 -3.502481e-05 -5.845586e-05)	(-1.084907e+01 -1.738917e+01 2.964149e+01)	(-1.084903e+01 -1.738914e+01 2.964155e+01)	(-3.751690e-05 -3.627889e-05 -5.449363e-05)	(-1.350422e+01 -2.004292e+01 2.467575e+01)	(-1.350418e+01 -2.004288e+01 2.467580e+01)	(-3.684395e-05 -3.665549e-05 -5.055315e-05)	(-1.563089e+01 -2.216748e+01 1.973631e+01)	(-1.563086e+01 -2.216744e+01 1.973636e+01)	(-3.562784e-05 -3.654236e-05 -4.667563e-05)	(-1.732088e+01 -2.385248e+01 1.476559e+01)	(-1.732085e+01 -2.385245e+01 1.476564e+01)	(-3.386454e-05 -3.596241e-05 -4.282613e-05)	(-1.850515e+01 -2.502156e+01 9.797445e+00)	(-1.850511e+01 -2.502152e+01 9.797484e+00)	(-3.149169e-05 -3.490892e-05 -3.897091e-05)	(-1.922992e+01 -2.574217e+01 4.844440e+00)	(-1.922989e+01 -2.574214e+01 4.844476e+00)	(-2.835050e-05 -3.324112e-05 -3.507971e-05)	(-1.946619e+01 -2.597425e+01 -9.752483e-02)	(-1.946617e+01 -2.597422e+01 -9.749366e-02)	(-2.428855e-05 -3.083865e-05 -3.116795e-05)	(-1.923102e+01 -2.574303e+01 -5.041350e+00)	(-1.923100e+01 -2.574300e+01 -5.041322e+00)	(-1.914737e-05 -2.754112e-05 -2.722979e-05)	(-1.850551e+01 -2.502312e+01 -1.000603e+01)	(-1.850549e+01 -2.502310e+01 -1.000601e+01)	(-1.279259e-05 -2.319396e-05 -2.323553e-05)	(-1.732460e+01 -2.384325e+01 -1.494330e+01)	(-1.732459e+01 -2.384323e+01 -1.494328e+01)	(-5.058141e-06 -1.762583e-05 -1.919102e-05)	(-1.563963e+01 -2.215578e+01 -1.989643e+01)	(-1.563964e+01 -2.215577e+01 -1.989642e+01)	(4.361241e-06 -1.052486e-05 -1.491381e-05)	(-1.351126e+01 -2.002119e+01 -2.480928e+01)	(-1.351128e+01 -2.002119e+01 -2.480927e+01)	(1.574590e-05 -1.618369e-06 -1.039076e-05)	(-1.086680e+01 -1.737115e+01 -2.974590e+01)	(-1.086683e+01 -1.737116e+01 -2.974590e+01)	(2.958772e-05 9.610867e-06 -5.184263e-06)	(-7.758453e+00 -1.425550e+01 -3.466157e+01)	(-7.758500e+00 -1.425552e+01 -3.466157e+01)	(4.689609e-05 2.411602e-05 1.302456e-06)	(-4.218574e+00 -1.072685e+01 -3.965787e+01)	(-4.218639e+00 -1.072689e+01 -3.965788e+01)	(6.483819e-05 4.025794e-05 1.222498e-05)	(-1.057094e+00 -4.553083e+00 -2.192215e+01)	(-1.057162e+00 -4.553126e+00 -2.192216e+01)	(6.746715e-05 4.248649e-05 1.094979e-05)	(-1.959326e-02 2.642026e-02 -6.712583e-02)	(-1.966157e-02 2.637719e-02 -6.713378e-02)	(6.830721e-05 4.306899e-05 7.949498e-06)
3907          	(-1.038880e+00 -4.586484e+00 2.188709e+01)	(-1.038858e+00 -4.586463e+00 2.188712e+01)	(-2.190075e-05 -2.112622e-05 -3.146533e-05)	(-4.123877e+00 -1.067900e+01 3.962018e+01)	(-4.123842e+00 -1.067897e+01 3.962024e+01)	(-3.514475e-05 -3.160757e-05 -6.241779e-05)	(-7.768262e+00 -1.430774e+01 3.457190e+01)	(-7.768225e+00 -1.430771e+01 3.457195e+01)	(-3.731906e-05 -3.502375e-05 -5.843677e-05)	(-1.084907e+01 -1.738917e+01 2.964150e+01)	(-1.084903e+01 -1.738914e+01 2.964155e+01)	(-3.751295e-05 -3.627923e-05 -5.447709e-05)	(-1.350421e+01 -2.004292e+01 2.467576e+01)	(-1.350418e+01 -2.004288e+01 2.467581e+01)	(-3.684076e-05 -3.665664e-05 -5.053752e-05)	(-1.563089e+01 -2.216748e+01 1.973633e+01)	(-1.563085e+01 -2.216744e+01 1.973637e+01)	(-3.562463e-05 -3.654347e-05 -4.666139e-05)	(-1.732088e+01 -2.385248e+01 1.476561e+01)	(-1.732085e+01 -2.385245e+01 1.476565e+01)	(-3.386168e-05 -3.596351e-05 -4.281343e-05)	(-1.850514e+01 -2.502156e+01 9.797461e+00)	(-1.850511e+01 -2.502152e+01 9.797500e+00)	(-3.148978e-05 -3.491050e-05 -3.895824e-05)	(-1.922991e+01 -2.574217e+01 4.844457e+00)	(-1.922988e+01 -2.574214e+01 4.844492e+00)	(-2.834841e-05 -3.324240e-05 -3.506736e-05)	(-1.946619e+01 -2.597425e+01 -9.750781e-02)	(-1.946617e+01 -2.597422e+01 -9.747665e-02)	(-2.428638e-05 -3.083975e-05 -3.115593e-05)	(-1.923101e+01 -2.574303e+01 -5.041333e+00)	(-1.923099e+01 -2.574300e+01 -5.041305e+00)	(-1.914577e-05 -2.754223e-05 -2.721781e-05)	(-1.850550e+01 -2.502312e+01 -1.000601e+01)	(-1.850549e+01 -2.502310e+01 -1.000599e+01)	(-1.279201e-05 -2.319529e-05 -2.322276e-05)	(-1.732459e+01 -2.384325e+01 -1.494328e+01)	(-1.732459e+01 -2.384323e+01 -1.494326e+01)	(-5.058417e-06 -1.762726e-05 -1.917685e-05)	(-1.563963e+01 -2.215578e+01 -1.989642e+01)	(-1.563963e+01 -2.215577e+01 -1.989640e+01)	(4.360246e-06 -1.052640e-05 -1.489782e-05)	(-1.351125e+01 -2.002119e+01 -2.480926e+01)	(-1.351127e+01 -2.002119e+01 -2.480925e+01)	(1.574462e-05 -1.619696e-06 -1.037236e-05)	(-1.086680e+01 -1.737115e+01 -2.974589e+01)	(-1.086683e+01 -1.737116e+01 -2.974589e+01)	(2.958684e-05 9.610413e-06 -5.162529e-06)	(-7.758448e+00 -1.425550e+01 -3.466156e+01)	(-7.758495e+00 -1.425552e+01 -3.466156e+01)	(4.689645e-05 2.411713e-05 1.327904e-06)	(-4.218568e+00 -1.072685e+01 -3.965786e+01)	(-4.218633e+00 -1.072689e+01 -3.965787e+01)	(6.484031e-05 4.026120e-05 1.225564e-05)	(-1.057087e+00 -4.553082e+00 -2.192213e+01)	(-1.057155e+00 -4.553124e+00 -2.192215e+01)	(6.747658e-05 4.249671e-05 1.097899e-05)	(-1.958539e-02 2.642363e-02 -6.710484e-02)	(-1.965371e-02 2.638056e-02 -6.711278e-02)	(6.832215e-05 4.307909e-05 7.940358e-06)
3908          	(-1.038880e+00 -4.586484e+00 2.188709e+01)	(-1.038858e+00 -4.586463e+00 2.188712e+01)	(-2.190380e-05 -2.113057e-05 -3.146203e-05)	(-4.123877e+00 -1.067900e+01 3.962018e+01)	(-4.123842e+00 -1.067897e+01 3.962024e+01)	(-3.515049e-05 -3.161787e-05 -6.240377e-05)	(-7.768261e+00 -1.430774e+01 3.457190e+01)	(-7.768224e+00 -1.430771e+01 3.457196e+01)	(-3.732621e-05 -3.503539e-05 -5.842732e-05)	(-1.084906e+01 -1.738917e+01 2.964151e+01)	(-1.084903e+01 -1.738914e+01 2.964156e+01)	(-3.752173e-05 -3.629243e-05 -5.446953e-05)	(-1.350421e+01 -2.004292e+01 2.467577e+01)	(-1.350417e+01 -2.004288e+01 2.467582e+01)	(-3.685042e-05 -3.667076e-05 -5.053072e-05)	(-1.563089e+01 -2.216748e+01 1.973634e+01)	(-1.563085e+01 -2.216744e+01 1.973639e+01)	(-3.563423e-05 -3.655753e-05 -4.665593e-05)	(-1.732088e+01 -2.385248e+01 1.476562e+01)	(-1.732084e+01 -2.385245e+01 1.476567e+01)	(-3.387168e-05 -3.597755e-05 -4.280966e-05)	(-1.850514e+01 -2.502156e+01 9.797478e+00)	(-1.850511e+01 -2.502152e+01 9.797517e+00)	(-3.150055e-05 -3.492486e-05 -3.895466e-05)	(-1.922991e+01 -2.574217e+01 4.844475e+00)	(-1.922988e+01 -2.574214e+01 4.844510e+00)	(-2.835883e-05 -3.325640e-05 -3.506418e-05)	(-1.946619e+01 -2.597425e+01 -9.748925e-02)	(-1.946616e+01 -2.597422e+01 -9.745810e-02)	(-2.429659e-05 -3.085361e-05 -3.115316e-05)	(-1.923101e+01 -2.574303e+01 -5.041314e+00)	(-1.923099e+01 -2.574300e+01 -5.041287e+00)	(-1.915638e-05 -2.755607e-05 -2.721532e-05)	(-1.850550e+01 -2.502312e+01 -1.000600e+01)	(-1.850549e+01 -2.502310e+01 -1.000597e+01)	(-1.280350e-05 -2.320933e-05 -2.321970e-05)	(-1.732459e+01 -2.384325e+01 -1.494327e+01)	(-1.732458e+01 -2.384323e+01 -1.494325e+01)	(-5.070590e-06 -1.764134e-05 -1.917289e-05)	(-1.563963e+01 -2.215578e+01 -1.989640e+01)	(-1.563963e+01 -2.215577e+01 -1.989638e+01)	(4.347685e-06 -1.054030e-05 -1.489275e-05)	(-1.351125e+01 -2.002119e+01 -2.480925e+01)	(-1.351127e+01 -2.002119e+01 -2.480924e+01)	(1.573215e-05 -1.633057e-06 -1.036557e-05)	(-1.086679e+01 -1.737115e+01 -2.974588e+01)	(-1.086682e+01 -1.737116e+01 -2.974587e+01)	(2.957504e-05 9.598076e-06 -5.153349e-06)	(-7.758442e+00 -1.425550e+01 -3.466155e+01)	(-7.758489e+00 -1.425553e+01 -3.466155e+01)	(4.688628e-05 2.410671e-05 1.339887e-06)	(-4.218561e+00 -1.072685e+01 -3.965785e+01)	(-4.218626e+00 -1.072689e+01 -3.965786e+01)	(6.483254e-05 4.025364e-05 1.227204e-05)	(-1.057079e+00 -4.553080e+00 -2.192212e+01)	(-1.057147e+00 -4.553122e+00 -2.192213e+01)	(6.747651e-05 4.249670e-05 1.099434e-05)	(-1.957702e-02 2.642764e-02 -6.707902e-02)	(-1.964535e-02 2.638456e-02 -6.708693e-02)	(6.833000e-05 4.308094e-05 7.913998e-06)
3909          	(-1.038880e+00 -4.586484e+00 2.188709e+01)	(-1.038858e+00 -4.586463e+00 2.188712e+01)	(-2.190037e-05 -2.112887e-05 -3.144846e-05)	(-4.123877e+00 -1.067900e+01 3.962018e+01)	(-4.123842e+00 -1.067896e+01 3.962024e+01)	(-3.514360e-05 -3.161503e-05 -6.238012e-05)	(-7.768259e+00 -1.430774e+01 3.457190e+01)	(-7.768222e+00 -1.430770e+01 3.457196e+01)	(-3.732068e-05 -3.503396e-05 -5.840656e-05)	(-1.084906e+01 -1.738917e+01 2.964152e+01)	(-1.084902e+01 -1.738914e+01 2.964157e+01)	(-3.751767e-05 -3.629244e-05 -5.445035e-05)	(-1.350421e+01 -2.004292e+01 2.467579e+01)	(-1.350417e+01 -2.004288e+01 2.467584e+01)	(-3.684724e-05 -3.667162e-05 -5.051255e-05)	(-1.563088e+01 -2.216748e+01 1.973636e+01)	(-1.563085e+01 -2.216744e+01 1.973641e+01)	(-3.563092e-05 -3.655816e-05 -4.663939e-05)	(-1.732087e+01 -2.385248e+01 1.476565e+01)	(-1.732084e+01 -2.385245e+01 1.476569e+01)	(-3.386865e-05 -3.597793e-05 -4.279528e-05)	(-1.850513e+01 -2.502156e+01 9.797503e+00)	(-1.850510e+01 -2.502152e+01 9.797542e+00)	(-3.149797e-05 -3.492521e-05 -3.894083e-05)	(-1.922990e+01 -2.574217e+01 4.844501e+00)	(-1.922987e+01 -2.574214e+01 4.844536e+00)	(-2.835552e-05 -3.325599e-05 -3.505114e-05)	(-1.946618e+01 -2.597425e+01 -9.746289e-02)	(-1.946615e+01 -2.597422e+01 -9.743175e-02)	(-2.429264e-05 -3.085269e-05 -3.114089e-05)	(-1.923100e+01 -2.574303e+01 -5.041288e+00)	(-1.923098e+01 -2.574301e+01 -5.041260e+00)	(-1.915232e-05 -2.755465e-05 -2.720381e-05)	(-1.850549e+01 -2.502313e+01 -1.000597e+01)	(-1.850548e+01 -2.502310e+01 -1.000595e+01)	(-1.279981e-05 -2.320767e-05 -2.320814e-05)	(-1.732458e+01 -2.384325e+01 -1.494324e+01)	(-1.732458e+01 -2.384323e+01 -1.494322e+01)	(-5.067040e-06 -1.763923e-05 -1.916120e-05)	(-1.563962e+01 -2.215578e+01 -1.989638e+01)	(-1.563962e+01 -2.215577e+01 -1.989636e+01)	(4.351519e-06 -1.053739e-05 -1.488086e-05)	(-1.351124e+01 -2.002119e+01 -2.480923e+01)	(-1.351126e+01 -2.002119e+01 -2.480922e+01)	(1.573676e-05 -1.628982e-06 -1.035286e-05)	(-1.086678e+01 -1.737115e+01 -2.974586e+01)	(-1.086681e+01 -1.737116e+01 -2.974585e+01)	(2.958093e-05 9.603667e-06 -5.139538e-06)	(-7.758432e+00 -1.425550e+01 -3.466153e+01)	(-7.758479e+00 -1.425553e+01 -3.466153e+01)	(4.689448e-05 2.411482e-05 1.355159e-06)	(-4.218550e+00 -1.072685e+01 -3.965783e+01)	(-4.218615e+00 -1.072689e+01 -3.965785e+01)	(6.484386e-05 4.026527e-05 1.229035e-05)	(-1.057066e+00 -4.553076e+00 -2.192209e+01)	(-1.057133e+00 -4.553118e+00 -2.192211e+01)	(6.749656e-05 4.251680e-05 1.101050e-05)	(-1.956279e-02 2.643432e-02 -6.704575e-02)	(-1.963114e-02 2.639121e-02 -6.705365e-02)	(6.835759e-05 4.310402e-05 7.896346e-06)
3910          	(-1.038881e+00 -4.586484e+00 2.188709e+01)	(-1.038859e+00 -4.586463e+00 2.188712e+01)	(-2.190317e-05 -2.113289e-05 -3.144519e-05)	(-4.123876e+00 -1.067899e+01 3.962017e+01)	(-4.123841e+00 -1.067896e+01 3.962024e+01)	(-3.514772e-05 -3.162366e-05 -6.236522e-05)	(-7.768258e+00 -1.430774e+01 3.457191e+01)	(-7.768220e+00 -1.430770e+01 3.457197e+01)	(-3.732654e-05 -3.504453e-05 -5.839296e-05)	(-1.084906e+01 -1.738917e+01 2.964153e+01)	(-1.084902e+01 -1.738913e+01 2.964158e+01)	(-3.752471e-05 -3.630417e-05 -5.443846e-05)	(-1.350420e+01 -2.004291e+01 2.467580e+01)	(-1.350417e+01 -2.004288e+01 2.467585e+01)	(-3.685511e-05 -3.668403e-05 -5.050225e-05)	(-1.563088e+01 -2.216748e+01 1.973638e+01)	(-1.563084e+01 -2.216744e+01 1.973642e+01)	(-3.563860e-05 -3.657017e-05 -4.663128e-05)	(-1.732087e+01 -2.385248e+01 1.476567e+01)	(-1.732083e+01 -2.385245e+01 1.476571e+01)	(-3.387652e-05 -3.598941e-05 -4.279001e-05)	(-1.850513e+01 -2.502156e+01 9.797527e+00)	(-1.850510e+01 -2.502152e+01 9.797566e+00)	(-3.150599e-05 -3.493625e-05 -3.893665e-05)	(-1.922990e+01 -2.574217e+01 4.844526e+00)	(-1.922987e+01 -2.574214e+01 4.844561e+00)	(-2.836241e-05 -3.326581e-05 -3.504826e-05)	(-1.946617e+01 -2.597425e+01 -9.743696e-02)	(-1.946615e+01 -2.597422e+01 -9.740582e-02)	(-2.429839e-05 -3.086148e-05 -3.113926e-05)	(-1.923099e+01 -2.574303e+01 -5.041262e+00)	(-1.923097e+01 -2.574301e+01 -5.041235e+00)	(-1.915742e-05 -2.756238e-05 -2.720343e-05)	(-1.850548e+01 -2.502313e+01 -1.000595e+01)	(-1.850547e+01 -2.502310e+01 -1.000592e+01)	(-1.280474e-05 -2.321460e-05 -2.320826e-05)	(-1.732457e+01 -2.384325e+01 -1.494322e+01)	(-1.732457e+01 -2.384323e+01 -1.494320e+01)	(-5.071567e-06 -1.764522e-05 -1.916190e-05)	(-1.563961e+01 -2.215578e+01 -1.989636e+01)	(-1.563961e+01 -2.215577e+01 -1.989634e+01)	(4.347900e-06 -1.054201e-05 -1.488211e-05)	(-1.351123e+01 -2.002119e+01 -2.480921e+01)	(-1.351125e+01 -2.002119e+01 -2.480920e+01)	(1.573453e-05 -1.631874e-06 -1.035419e-05)	(-1.086677e+01 -1.737115e+01 -2.974584e+01)	(-1.086680e+01 -1.737116e+01 -2.974584e+01)	(2.958053e-05 9.602706e-06 -5.140897e-06)	(-7.758421e+00 -1.425550e+01 -3.466152e+01)	(-7.758467e+00 -1.425552e+01 -3.466152e+01)	(4.689696e-05 2.411684e-05 1.354017e-06)	(-4.218537e+00 -1.072684e+01 -3.965782e+01)	(-4.218602e+00 -1.072688e+01 -3.965784e+01)	(6.485000e-05 4.027124e-05 1.229082e-05)	(-1.057051e+00 -4.553070e+00 -2.192207e+01)	(-1.057119e+00 -4.553113e+00 -2.192209e+01)	(6.751221e-05 4.253164e-05 1.100607e-05)	(-1.954730e-02 2.644225e-02 -6.701330e-02)	(-1.961568e-02 2.639913e-02 -6.702115e-02)	(6.838239e-05 4.312288e-05 7.854486e-06)