# k  POINT_DATA 14923
# x  y  z  k
1.35525e-20 -0.014142 8.4025e-08 2.45535e-06
-1.35525e-20 0.014142 8.4025e-08 4.58949e-11
0 -0.014142 0.000246012 2.40179e-06
-6.77626e-21 0.014142 0.000246009 4.58852e-11
-1.69407e-20 -0.014142 0.000413826 2.649e-06
6.77626e-21 0.014142 0.00041383 5.57752e-11
-1.35525e-20 -0.014142 0.000659755 3.42601e-06
-1.35525e-20 0.014142 0.000659755 8.51165e-11
0 0.014142 0.000918785 1.15446e-10
3.38813e-21 -0.014142 0.000918783 4.01768e-06
1.35525e-20 0.014142 0.00109555 1.25509e-10
3.38813e-21 -0.014142 0.00109556 4.18925e-06
1.35525e-20 0.014142 0.00135458 1.25024e-10
0 -0.014142 0.00135458 4.09953e-06
0 0.014142 0.00162762 1.24292e-10
-6.77626e-21 -0.014142 0.00162761 3.69546e-06
0 -0.014253 0.00012398 2.4294e-06
0 0.014253 0.000123977 4.5584e-11
0 -0.0142541 8.84505e-08 2.4292e-06
-1.35525e-20 0.0142541 8.84502e-08 4.55861e-11
-3.38813e-21 0.014142 0.00181395 1.29833e-10
-6.77626e-21 -0.014142 0.00181396 3.89684e-06
0 -0.014253 0.000533539 3.03272e-06
0 0.014253 0.000533544 6.97205e-11
0 0.0142487 0.00077903 1.00494e-10
0 -0.0142487 0.000779034 3.73682e-06
-1.35525e-20 0.014142 0.002087 1.55205e-10
1.35525e-20 -0.014142 0.002087 5.00473e-06
-1.35525e-20 0.0142487 0.00120328 1.24647e-10
1.35525e-20 -0.0142487 0.00120328 4.14858e-06
0 0.014243 0.00144974 1.24024e-10
1.35525e-20 -0.014243 0.00144974 3.88173e-06
0 0.014243 0.00188498 1.36967e-10
1.35525e-20 -0.014243 0.00188498 4.35209e-06
-2.71051e-20 -0.014375 9.00163e-08 3.68577e-06
1.35525e-20 0.014375 9.00164e-08 9.41604e-11
1.35525e-20 0.014375 0.0006466 9.85635e-11
-2.71051e-20 -0.014375 0.0006466 3.58861e-06
-6.77626e-21 0.0142627 0.00213224 1.53098e-10
-6.77626e-21 -0.0142627 0.00213225 5.49107e-06
0 0.0142992 0.00204049 1.50551e-10
1.35525e-20 -0.0142992 0.00204049 5.29191e-06
0 0.014391 0.00158911 1.22837e-10
0 -0.014391 0.00158911 3.76772e-06
-6.77626e-21 -0.014375 0.00187841 4.01628e-06
0 0.014375 0.0018784 1.20191e-10
0 0.0144892 0.000865926 1.21914e-10
5.42101e-21 -0.0144892 0.000865928 4.34403e-06
0 0.0144694 0.00125569 9.34561e-11
-4.51751e-21 -0.0144694 0.0012557 3.19788e-06
1.35525e-20 0.014375 0.00217431 1.84348e-10
2.71051e-20 -0.014375 0.00217431 5.50946e-06
-2.25875e-21 -0.0145461 0.000325602 3.5188e-06
-2.25875e-21 0.0145461 0.000325595 8.92995e-11
2.71051e-20 -0.0145532 9.53759e-08 3.79701e-06
1.35525e-20 0.0145533 9.53758e-08 9.64394e-11
2.71051e-20 0.0145143 0.00222654 1.89526e-10
0 -0.0145144 0.00222654 5.56854e-06
-1.93608e-21 0.0146051 0.00164978 1.00012e-10
1.35525e-20 -0.0146051 0.00164978 3.28058e-06
-2.82344e-22 -0.014583 0.00195698 5.01208e-06
-1.41172e-22 0.0145828 0.00195868 1.55531e-10
0 -0.0147323 1.05322e-07 5.86452e-06
0 0.0147324 1.05321e-07 1.86112e-10
-2.25875e-21 0.014715 0.000923757 7.88405e-11
-4.51751e-21 -0.014715 0.000923762 2.62489e-06
-2.71051e-20 0.0145865 0.0022536 2.25209e-10
0 -0.0145866 0.00225361 6.17667e-06
-2.25875e-21 0.0146936 0.00145601 6.0972e-11
2.25875e-21 -0.0146936 0.00145601 1.93339e-06
1.35525e-20 -0.0148202 0.000134139 6.66417e-06
1.35525e-20 0.0148203 0.000134125 2.23116e-10
-1.35525e-20 -0.0148273 9.52379e-08 6.64329e-06
0 0.0148274 9.52384e-08 2.22228e-10
-1.35525e-20 -0.0148725 9.04366e-08 7.23014e-06
1.35525e-20 0.0148726 9.04378e-08 2.52633e-10
6.45358e-21 -0.01487 0.000655521 4.29791e-06
3.22679e-21 0.01487 0.000655519 1.4653e-10
1.00389e-21 0.014845 0.00120712 5.79943e-11
-7.27821e-21 -0.014845 0.00120713 1.93003e-06
0 0.0147312 0.00230781 2.6285e-10
0 -0.0147313 0.00230783 7.03644e-06
3.01167e-21 0.0148274 0.00162659 7.97028e-11
-6.02335e-21 -0.0148274 0.0016266 2.53905e-06
1.35525e-20 -0.015 7.90261e-08 8.76694e-06
-1.35525e-20 0.015 7.90279e-08 3.37951e-10
-1.35525e-20 -0.015 0.000133974 8.8672e-06
-2.71051e-20 0.015 0.000133967 3.43205e-10
-3.76459e-22 0.0149713 0.00204049 2.61056e-10
1.50584e-21 -0.0149714 0.0020405 7.01516e-06
-3.38813e-21 -0.015 0.00225359 7.31967e-06
-1.69407e-21 0.015 0.0022537 2.92713e-10
-3.38813e-21 -0.015 0.00240853 7.32239e-06
3.38813e-21 0.015 0.00240854 3.08592e-10
2.37169e-20 0.0150362 0.00242211 3.10713e-10
0 -0.0150362 0.00242211 7.28769e-06
1.35525e-20 -0.0152271 0.000388227 9.91963e-06
1.35525e-20 0.0152271 0.000388232 3.96182e-10
-4.51751e-21 0.0152249 0.000912209 8.84609e-11
9.03502e-21 -0.0152249 0.000912211 2.59978e-06
4.51751e-21 0.0151957 0.00150814 5.21451e-11
0 -0.0151957 0.00150814 1.59016e-06
-3.38813e-21 0.015119 0.00245307 3.20917e-10
3.38813e-21 -0.015119 0.0024531 7.2597e-06
0 0.0153316 0.000145214 4.68597e-10
1.35525e-20 -0.0153316 0.000145203 1.18202e-05
1.35525e-20 0.0153419 1.97572e-08 4.66789e-10
0 -0.015342 1.97541e-08 1.18032e-05
0 -0.0154304 0.000610593 7.38701e-06
2.71051e-20 0.0154304 0.000610592 2.71793e-10
2.71051e-20 -0.0154185 0.00121382 1.79834e-06
2.71051e-20 0.0154185 0.00121382 5.75565e-11
1.35525e-20 0.0154797 7.97399e-09 4.89198e-10
0 -0.0154798 7.9711e-09 1.3037e-05
-1.35525e-20 0.0152769 0.00251208 3.33764e-10
0 -0.0152769 0.0025121 7.31158e-06
-5.42101e-20 0.0153758 0.00187005 1.30937e-10
-2.71051e-20 -0.0153758 0.00187006 3.66659e-06
-6.77626e-21 0.0153108 0.00239814 3.30659e-10
0 -0.0153108 0.00239814 7.15696e-06
-4.51751e-21 -0.0153783 0.00228563 7.04223e-06
-1.12938e-21 0.0153783 0.00228563 3.18336e-10
-1.35525e-20 0.015625 7.21206e-09 5.61087e-10
0 -0.015625 7.20961e-09 1.49425e-05
0 -0.015625 0.000148496 1.50893e-05
-1.35525e-20 0.015625 0.0001485 5.66944e-10
-1.35525e-20 -0.0154657 0.00258282 7.70864e-06
0 0.0154657 0.00258282 3.2352e-10
4.51751e-21 0.0157806 0.00040103 5.65316e-10
4.51751e-21 -0.0157806 0.000401034 1.50107e-05
2.25875e-21 -0.0157685 0.000915143 3.99039e-06
0 0.0157685 0.000915143 1.40528e-10
1.12938e-20 -0.0157412 0.00155218 1.73144e-06
-2.25875e-21 0.0157412 0.00155219 5.49394e-11
0 -0.0156535 0.0023135 6.19462e-06
-8.47033e-22 0.0156535 0.00231351 2.49427e-10
1.35525e-20 0.0156249 0.00255355 2.97043e-10
1.35525e-20 -0.0156249 0.00255354 7.47864e-06
6.77626e-21 0.0156249 0.0026425 2.91485e-10
-6.77626e-21 -0.0156249 0.00264251 7.50378e-06
-1.35525e-20 -0.0157486 0.00207232 3.40917e-06
0 0.0157486 0.00207233 1.15154e-10
1.35525e-20 0.01594 0.000153358 7.04362e-10
1.35525e-20 -0.01594 0.000153357 1.89671e-05
0 0.0159518 6.42218e-09 7.03442e-10
-2.71051e-20 -0.0159518 6.42129e-09 1.89602e-05
2.71051e-20 -0.0157578 0.00269219 7.7918e-06
2.71051e-20 0.0157578 0.00269219 2.90208e-10
-1.35525e-20 -0.0157996 0.0025293 7.75722e-06
1.35525e-20 0.0157996 0.00252931 2.95932e-10
-1.35525e-20 -0.0161003 5.64387e-09 2.01073e-05
1.35525e-20 0.0161003 5.64434e-09 7.27684e-10
0 -0.0160445 0.00191468 3.16859e-06
0 0.0160445 0.0019147 1.14452e-10
0 -0.0159573 0.00276704 1.08512e-05
0 0.0159573 0.00276704 4.73125e-10
1.16165e-20 0.0161556 0.00116841 9.85608e-11
-1.54886e-20 -0.0161556 0.00116841 2.98832e-06
-9.03502e-21 -0.0161993 0.000607818 1.25436e-05
-4.51751e-21 0.0161993 0.000607817 4.37358e-10
-2.25875e-21 -0.0160484 0.0023249 5.76519e-06
-4.51751e-21 0.0160484 0.00232494 2.12299e-10
1.35525e-20 -0.01625 4.91522e-09 2.15834e-05
2.71051e-20 0.01625 4.91559e-09 7.52257e-10
1.35525e-20 -0.01625 0.000141091 2.15662e-05
0 0.01625 0.000141095 7.51816e-10
-9.03502e-21 -0.0162996 0.00156705 1.9693e-06
4.51751e-21 0.0162996 0.00156705 6.80628e-11
-2.71051e-20 0.0164196 0.000304857 7.92164e-10
0 -0.0164196 0.000304857 2.32866e-05
0 0.0164158 0.000921443 1.32291e-10
0 -0.0164158 0.000921442 3.95381e-06
-1.89735e-20 -0.0163183 0.00211157 3.00644e-06
2.71051e-21 0.0163183 0.00211158 9.60031e-11
-1.35525e-20 0.0162498 0.00287804 5.35973e-10
2.37169e-20 -0.0162499 0.00287808 1.37349e-05
6.77626e-21 -0.016295 0.00289505 1.40721e-05
-1.01644e-20 0.0162953 0.00289514 5.53833e-10
1.12938e-20 -0.0163566 0.00265265 1.24205e-05
-4.51751e-21 0.0163567 0.00265268 4.88602e-10
-1.35525e-20 0.0165943 2.17699e-09 8.26805e-10
1.35525e-20 -0.0165943 2.17678e-09 2.45747e-05
1.35525e-20 0.0165961 0.000135303 8.26767e-10
0 -0.0165961 0.000135298 2.45738e-05
1.35525e-20 -0.0167375 1.46118e-09 2.52901e-05
-1.35525e-20 0.0167375 1.4613e-09 8.65894e-10
9.03502e-21 0.0167397 0.000605527 5.09114e-10
2.25875e-21 -0.0167397 0.000605529 1.5387e-05
0 -0.0167333 0.00124398 3.44407e-06
-6.77626e-21 0.0167333 0.00124398 1.06031e-10
2.25875e-21 -0.0167335 0.00188821 2.30991e-06
6.77626e-21 0.0167335 0.00188822 8.11331e-11
2.71051e-20 -0.0165883 0.00300631 1.44942e-05
2.71051e-20 0.0165884 0.00300634 7.57017e-10
0 -0.016875 1.28939e-09 2.63548e-05
0 0.016875 1.28948e-09 8.9699e-10
0 -0.016875 0.000125695 2.63257e-05
-1.35525e-20 0.016875 0.000125698 8.95842e-10
-4.51751e-21 -0.0167209 0.00239031 6.35212e-06
-9.03502e-21 0.016721 0.00239038 2.6815e-10
-2.71051e-20 0.017064 0.000300536 9.32571e-10
0 -0.017064 0.000300536 2.77072e-05
-6.77626e-21 -0.0168116 0.00309149 1.76593e-05
6.77626e-21 0.0168118 0.00309158 1.00499e-09
0 0.0170693 0.000918164 1.65876e-10
2.71051e-20 -0.0170693 0.000918164 6.34742e-06
0 0.0170657 0.00156933 7.62917e-11
-5.42101e-20 -0.0170657 0.00156932 2.03966e-06
0 0.0168748 0.00300443 1.01078e-09
3.38813e-21 -0.016875 0.0030038 1.78807e-05
6.77626e-21 0.0168748 0.00311544 1.00969e-09
3.38813e-21 -0.0168751 0.00311552 1.74032e-05
2.25875e-21 -0.0169659 0.00280947 1.61356e-05
-4.51751e-21 0.016966 0.00280951 8.87821e-10
2.71051e-20 -0.0170634 0.00223057 3.00616e-06
0 0.0170635 0.00223059 1.2091e-10
-1.35525e-20 0.0172527 5.17858e-10 9.67086e-10
0 -0.0172527 5.17805e-10 2.87283e-05
0 0.0172566 0.000116566 9.66749e-10
1.35525e-20 -0.0172566 0.000116563 2.8726e-05
0 -0.0173799 3.52927e-10 2.89519e-05
1.35525e-20 0.0173799 3.52962e-10 9.81704e-10
0 -0.0170862 0.00319594 1.5662e-05
2.71051e-20 0.0170864 0.00319602 9.70383e-10
-2.25875e-21 0.0173907 0.00059721 5.96077e-10
0 -0.0173907 0.000597212 1.80568e-05
0 0.0173953 0.00123436 1.56238e-10
0 -0.0173953 0.00123436 4.56792e-06
-4.51751e-21 -0.0173902 0.00191068 2.68804e-06
6.77626e-21 0.0173903 0.00191069 1.12354e-10
-1.35525e-20 -0.0175 3.17172e-10 2.95572e-05
0 0.0175 3.17202e-10 9.91828e-10
0 -0.0175 0.000105685 2.95394e-05
0 0.0175 0.000105687 9.90993e-10
1.35525e-20 -0.0172465 0.00325641 1.59408e-05
2.03288e-20 0.0172466 0.00325643 9.74647e-10
0 -0.0172976 0.00309008 1.5915e-05
-1.35525e-20 0.0172976 0.00309027 9.59153e-10
3.76158e-37 -0.017428 0.00267359 9.30089e-06
2.25875e-21 0.017428 0.00267359 5.07121e-10
0 -0.0177101 0.000293755 3.05846e-05
0 0.0177101 0.000293755 1.02525e-09
0 0.0177219 0.000903839 2.39404e-10
2.71051e-20 -0.0177219 0.000903839 7.14923e-06
1.69407e-21 -0.0174509 0.00333352 1.42899e-05
1.69407e-21 0.0174516 0.00333379 9.25273e-10
0 -0.0174774 0.00332287 1.41189e-05
1.69407e-21 0.0174776 0.00332332 9.18662e-10
0 0.0177246 0.00155835 1.36758e-10
2.71051e-20 -0.0177246 0.00155834 2.70803e-06
0 -0.0174819 0.00334524 1.39715e-05
0 0.0174821 0.0033453 9.15688e-10
0 0.0174998 0.00332151 8.98186e-10
0 -0.0174999 0.00332104 1.37855e-05
0 0.0174997 0.00334181 9.06522e-10
1.69407e-21 -0.0174999 0.00334168 1.39066e-05
0 0.0174997 0.00335193 9.0349e-10
0 -0.0174999 0.00335198 1.38743e-05
0 -0.0177108 0.00226099 2.98301e-06
2.71051e-20 0.0177108 0.00226103 1.14289e-10
4.51751e-21 -0.0176353 0.00307333 1.26374e-05
-1.807e-20 0.0176354 0.00307341 8.50777e-10
0 -0.0176459 0.00307764 1.24545e-05
-2.71051e-20 0.0176459 0.00307771 8.38868e-10
0 0.0179213 8.77536e-11 1.05106e-09
1.35525e-20 -0.0179213 8.77438e-11 3.07999e-05
0 0.0179252 9.30173e-05 1.05088e-09
2.71051e-20 -0.0179252 9.30153e-05 3.07959e-05
0 -0.0180268 5.44536e-11 3.04765e-05
0 0.0180268 5.44591e-11 1.08733e-09
2.25875e-21 0.0180409 0.00058155 7.42683e-10
1.12938e-20 -0.0180409 0.000581551 1.96866e-05
-2.25875e-21 -0.0180512 0.00121327 5.99404e-06
-3.38813e-21 0.0180512 0.00121327 3.21214e-10
-2.71051e-20 -0.0177836 0.00345876 1.30784e-05
-1.35525e-20 0.0177837 0.00345884 8.50028e-10
0 -0.0181253 4.99506e-11 3.06028e-05
0 0.0181253 4.99554e-11 1.05622e-09
1.35525e-20 -0.0181254 8.3647e-05 3.06028e-05
0 0.0181254 8.3649e-05 1.05607e-09
-1.12938e-21 -0.018044 0.00190351 3.25864e-06
-3.38813e-21 0.018044 0.00190353 1.80893e-10
-2.71051e-20 -0.0178455 0.00338256 1.32165e-05
0 0.0178456 0.00338271 8.6816e-10
9.03502e-21 -0.0180105 0.00263587 6.22687e-06
2.25875e-21 0.0180106 0.00263595 3.31366e-10
0 -0.0179191 0.00350977 1.3609e-05
0 0.0179192 0.00350979 1.04666e-09
1.35525e-21 -0.0180589 0.00311996 1.0528e-05
-1.35525e-21 0.018059 0.00312002 6.92538e-10
-5.42101e-20 -0.0183552 0.000282486 3.08103e-05
-5.42101e-20 0.0183552 0.000282486 1.0815e-09
2.71051e-20 0.0183704 0.000877818 5.69617e-10
0 -0.0183704 0.000877817 9.64203e-06
2.71051e-20 -0.0183759 0.00153184 4.43165e-06
-2.71051e-20 0.018376 0.00153185 3.15808e-10
1.35525e-20 0.0181249 0.00358718 1.24383e-09
0 -0.018125 0.00358724 1.44259e-05
0 -0.0183601 0.00224052 2.93492e-06
0 0.0183602 0.00224054 1.52835e-10
1.35525e-20 -0.0182298 0.00362666 1.43242e-05
6.77626e-21 0.0182303 0.00362685 1.28225e-09
0 0.0185903 1.14547e-11 1.15057e-09
-6.77626e-21 -0.0185903 1.14538e-11 3.06475e-05
-1.35525e-20 0.0185922 7.01833e-05 1.1508e-09
-1.35525e-20 -0.0185922 7.01798e-05 3.06476e-05
-9.03502e-21 -0.0182769 0.00344764 1.40726e-05
1.807e-20 0.018277 0.00344781 1.18477e-09
2.71051e-20 -0.0183886 0.0028814 4.41667e-06
0 0.0183886 0.00288148 1.94197e-10
0 -0.0186731 7.47945e-12 3.04179e-05
0 0.0186731 7.4798e-12 1.47273e-09
0 -0.0186856 0.000557203 2.04651e-05
-1.12938e-21 0.0186856 0.000557203 1.42424e-09
-1.12938e-21 -0.0187004 0.00117602 7.66752e-06
1.12938e-21 0.0187004 0.00117602 1.07235e-09
0 -0.01875 6.97661e-12 3.03574e-05
-2.03288e-20 0.01875 6.97695e-12 1.23145e-09
0 -0.01875 6.37723e-05 3.03579e-05
1.35525e-20 0.01875 6.37728e-05 1.23135e-09
2.25875e-21 -0.018696 0.00186471 4.128e-06
2.25875e-21 0.018696 0.00186473 4.08353e-10
-1.35525e-20 -0.0184505 0.00370969 1.31497e-05
2.71051e-20 0.0184507 0.00370979 1.25472e-09
3.38813e-21 -0.018692 0.00255887 3.57315e-06
2.25875e-21 0.018692 0.00255892 2.10337e-10
-4.06576e-20 -0.0185631 0.00375372 1.29667e-05
0 0.0185633 0.00375376 1.27329e-09
0 -0.018598 0.00364592 1.30214e-05
1.35525e-20 0.018598 0.00364612 1.25396e-09
-3.76459e-22 -0.0187012 0.00326209 8.97517e-06
1.12938e-21 0.0187012 0.00326214 7.34417e-10
0 -0.0189931 0.000266634 3.02067e-05
0 0.0189931 0.000266631 1.29922e-09
2.71051e-20 -0.0190119 0.00083882 1.05224e-05
0 0.0190119 0.000838822 2.49281e-09
0 -0.0190241 0.00148402 5.92486e-06
0 0.0190241 0.00148403 8.32552e-10
-6.77626e-21 0.0187498 0.00382104 1.22476e-09
-1.35525e-20 -0.0187499 0.00382109 1.23557e-05
-2.71051e-20 -0.0190146 0.00218766 3.27579e-06
5.42101e-20 0.0190147 0.00218769 3.32986e-10
-6.77626e-21 -0.0188253 0.00385016 1.21148e-05
0 0.0188256 0.00385027 1.2513e-09
0 -0.0190104 0.00288303 3.60189e-06
2.71051e-20 0.0190105 0.00288309 1.69433e-10
-6.77626e-21 -0.018869 0.00377278 1.21129e-05
0 0.0188695 0.00377247 1.25892e-09
6.77626e-21 0.0192614 9.27756e-13 3.30082e-09
0 -0.0192614 9.27688e-13 2.81357e-05
0 0.0192616 4.56754e-05 3.30154e-09
0 -0.0192616 4.56687e-05 2.81352e-05
0 -0.0189593 0.0036316 1.14545e-05
7.52918e-21 0.0189594 0.00363172 1.19939e-09
1.35525e-20 -0.0189216 0.00388925 1.2231e-05
6.77626e-21 -0.0193175 5.50573e-13 2.78693e-05
0 0.0193175 5.5057e-13 4.0842e-09
-6.77626e-21 0.0189225 0.00388962 1.25603e-09
0 -0.019323 0.000517724 2.08396e-05
0 0.019323 0.000517724 6.58199e-09
0 -0.0193664 3.8562e-05 2.72729e-05
-6.77626e-21 0.0193665 3.85723e-05 4.83421e-09
6.77626e-21 -0.0193681 5.31764e-13 2.73035e-05
6.77626e-21 0.0193682 5.31754e-13 4.77522e-09
2.03288e-21 0.0193603 0.00110958 6.20232e-09
-9.03502e-22 -0.0193603 0.00110958 1.127e-05
5.64689e-22 -0.0193496 0.00179959 5.72161e-06
1.69407e-21 0.0193497 0.0017996 1.06039e-09
1.12938e-21 -0.0193331 0.00252243 3.52423e-06
-2.25875e-21 0.0193332 0.00252246 3.66004e-10
2.71051e-20 -0.0191251 0.00398458 1.20687e-05
0 0.0191255 0.00398476 1.20718e-09
2.71051e-20 -0.0191698 0.00393531 1.2151e-05
0 0.01917 0.00393559 1.22468e-09
-4.51751e-21 -0.0192999 0.00324536 6.11327e-06
-2.25875e-21 0.0193 0.00324549 4.9163e-10
-2.71051e-20 -0.0196204 0.00023725 2.52007e-05
-2.71051e-20 0.0196204 0.000237252 6.82144e-09
0 -0.0192179 0.00403218 1.27126e-05
0 0.019218 0.00403225 1.39734e-09
0 -0.0196557 0.000771332 1.63754e-05
2.71051e-20 0.0196557 0.000771331 1.47197e-08
-3.38813e-21 -0.019699 2.94695e-13 3.13871e-05
-3.38813e-21 0.0196992 2.94512e-13 5.3115e-08
-4.51751e-22 -0.019364 0.0036912 9.42324e-06
4.51751e-22 0.0193642 0.00369132 9.34416e-10
0 -0.0196876 0.00139268 1.06479e-05
0 0.0196876 0.00139268 2.36701e-09
-2.71051e-20 -0.0196587 0.00213403 3.33732e-06
0 0.0196588 0.00213406 7.43722e-10
1.35525e-20 0.0193748 0.00398188 1.52705e-09
-1.35525e-20 -0.0193751 0.00398171 1.34113e-05
1.35525e-20 0.0193748 0.00411568 1.64481e-09
-6.77626e-21 -0.0193751 0.00411583 1.388e-05
-5.42101e-20 -0.0196509 0.00284941 3.85681e-06
2.71051e-20 0.0196509 0.00284946 2.28258e-10
9.03502e-22 0.0199546 0.000463669 7.69047e-08
2.25875e-21 -0.0199546 0.00046367 2.94282e-05
2.71051e-20 -0.0196743 0.00348115 3.74698e-06
2.71051e-20 0.0196743 0.00348125 2.50394e-10
0 -0.0195407 0.00420391 1.4203e-05
-6.77626e-21 0.0195414 0.00420428 1.74662e-09
0 -0.0199999 3.09655e-13 3.35904e-05
6.77626e-21 -0.0199999 2.958e-05 3.36367e-05
-6.77626e-21 0.02 3.09366e-13 8.63732e-08
0 0.02 2.95532e-05 8.69097e-08
6.77626e-21 -0.02 0.000220921 3.12629e-05
3.38813e-21 0.02 0.00022081 8.21146e-08
0 -0.0200415 5.23094e-14 3.42541e-05
0 0.0200415 5.22561e-14 9.2096e-08
1.35525e-20 -0.0196489 0.00406133 1.37545e-05
1.0842e-20 0.0196492 0.00406167 1.63279e-09
0 0.0200712 2.48757e-05 8.8751e-08
0 -0.0200712 2.48981e-05 3.40348e-05
0 0.0200746 3.09587e-14 8.81442e-08
0 -0.0200747 3.09943e-14 3.39976e-05
0 0.0199955 0.0017906 2.16457e-09
-4.23516e-22 -0.0199954 0.00179105 7.46333e-06
9.03502e-21 0.0200905 0.000960733 4.24817e-08
-4.51751e-21 -0.0200905 0.000960726 2.25388e-05
4.84019e-22 -0.0200182 0.00244878 4.25669e-06
-8.06698e-22 0.0200183 0.00244888 7.22194e-10
-1.35525e-20 -0.0197164 0.0042974 1.34775e-05
-2.71051e-20 0.0197167 0.00429758 1.6781e-09
0 0.020182 1.06922e-14 1.07372e-07
0 -0.0201821 1.07019e-14 3.81191e-05
-5.64689e-22 -0.019968 0.00317457 3.80594e-06
1.12938e-21 0.019968 0.00317464 2.74862e-10
1.35525e-20 -0.0198178 0.00435143 1.31873e-05
-1.35525e-20 0.0198179 0.00435149 1.68677e-09
-1.35525e-20 -0.0198553 0.00424439 1.32261e-05
0 0.0198553 0.00424466 1.66472e-09
7.52918e-22 -0.0199716 0.00386195 9.10063e-06
3.76459e-22 0.0199717 0.00386203 9.78157e-10
2.25875e-21 -0.0204272 0.00031081 4.79472e-05
-2.25875e-21 0.0204272 0.000310799 1.94569e-07
2.71051e-20 -0.0204209 0.00146754 1.02464e-05
-2.71051e-20 0.0204209 0.00146753 3.3599e-09
-2.71051e-20 -0.0202842 0.00282336 3.88211e-06
0 0.0202843 0.00282341 4.26611e-10
6.77626e-21 0.0199999 0.00444852 1.62414e-09
6.77626e-21 -0.0200001 0.00444866 1.35377e-05
-2.71051e-20 -0.0204145 0.00196506 6.55247e-06
0 0.0204145 0.00196508 1.84521e-09
1.35525e-20 0.020525 4.12258e-15 1.82637e-07
2.71051e-20 -0.0205251 4.1176e-15 4.98488e-05
6.77626e-21 -0.0200603 0.00448072 1.35608e-05
0 0.0200605 0.00448086 1.64697e-09
2.71051e-20 -0.0202766 0.00350283 3.74603e-06
0 0.0202767 0.00350292 2.06568e-10
3.38813e-21 -0.0201017 0.00441369 1.35498e-05
3.38813e-21 0.0201022 0.00441328 1.65657e-09
-6.77626e-21 -0.0201267 0.00451611 1.38557e-05
6.77626e-21 0.0201275 0.00451657 1.64845e-09
3.01167e-21 -0.0202112 0.00425305 1.28666e-05
-4.51751e-21 0.0202113 0.00425322 1.58343e-09
1.6134e-22 -0.0206625 0.000857339 4.26771e-05
7.26028e-22 0.0206626 0.00085731 9.9591e-08
-1.35525e-20 0.0206911 7.74573e-16 1.71065e-07
0 -0.0206911 7.64323e-16 6.18754e-05
-1.35525e-20 -0.0206295 0.00169559 8.84957e-06
-1.35525e-20 0.0206296 0.00169559 4.15881e-09
1.41172e-21 -0.0206304 0.00244038 5.53984e-06
-4.23516e-22 0.0206304 0.0024404 1.1175e-09
0 -0.0205956 0.00315757 4.23998e-06
0 0.0205957 0.00315762 3.69438e-10
0 -0.0203415 0.00463057 1.46359e-05
-1.35525e-20 0.0203419 0.00463079 1.57286e-09
0 -0.0208473 0.00142111 1.13203e-05
0 0.0208474 0.00142109 8.9169e-09
2.71051e-20 -0.0203946 0.00457335 1.46946e-05
2.71051e-20 0.0203949 0.0045737 1.59895e-09
2.25875e-21 -0.0205528 0.00387349 6.91454e-06
0 0.0205529 0.00387366 6.31848e-10
0 -0.0208263 0.00194408 7.73106e-06
0 0.0208263 0.0019441 2.50029e-09
6.77626e-21 0.020952 1.83096e-16 2.93442e-07
0 -0.0209522 1.78175e-16 8.8899e-05
0 -0.0209679 0.000111585 9.14419e-05
-8.47033e-22 0.020968 0.000112714 3.03661e-07
-2.71051e-20 -0.0204458 0.00468612 1.581e-05
0 -0.0209761 3.89075e-17 9.02657e-05
0 0.020446 0.00468621 1.84026e-09
-6.77626e-21 0.0209762 4.11732e-17 2.98534e-07
-1.12938e-21 0.020982 0.000349479 2.81784e-07
-5.64689e-22 -0.0209821 0.000349501 8.75705e-05
-3.38813e-22 -0.0206056 0.00432302 1.15975e-05
6.77626e-22 0.0206057 0.00432315 1.22852e-09
-2.71051e-20 -0.020934 0.00277551 5.44869e-06
0 0.020934 0.00277555 6.61528e-10
1.35525e-20 0.0206249 0.00478151 2.20187e-09
0 -0.0206251 0.00478166 1.8417e-05
0 -0.0208973 0.00349615 3.93323e-06
0 0.0208974 0.00349623 1.97872e-10
-2.71051e-20 -0.02125 -2.7536e-16 8.32367e-05
0 0.02125 -2.77493e-16 1.65866e-07
-3.38813e-20 -0.0207393 0.0048425 1.91486e-05
2.71051e-20 0.0207401 0.00484287 2.28638e-09
4.51751e-21 -0.020785 0.00466278 1.7935e-05
9.03502e-21 0.0207851 0.00466305 2.09424e-09
-5.42101e-20 -0.020919 0.0041165 5.40659e-06
0 0.0209191 0.00411663 3.19276e-10
-2.82344e-22 0.0212543 0.00168707 4.97993e-09
-2.82344e-22 -0.0212543 0.00168707 1.1754e-05
3.01167e-21 -0.0213188 0.000900049 5.78636e-05
-1.50584e-21 0.0213188 0.000900019 7.87311e-08
-1.35525e-20 -0.0213463 0.000122192 8.53862e-05
1.35525e-20 0.0213464 0.000122392 1.70993e-07
0 -0.021355 -2.3845e-18 8.48902e-05
0 0.0213552 -1.52921e-18 1.71777e-07
-4.51751e-21 -0.0212895 0.00229431 7.89648e-06
-3.38813e-21 0.0212895 0.00229433 1.53612e-09
-2.71051e-20 -0.0214256 -2.50478e-16 8.82046e-05
-1.35525e-20 0.0214259 -2.50917e-16 1.68867e-07
6.77626e-22 -0.0212264 0.00310846 5.08253e-06
2.25875e-22 0.0212264 0.00310856 5.21266e-10
0 -0.0209342 0.00494631 1.84853e-05
-1.35525e-20 0.0209345 0.00494647 2.1677e-09
-1.12938e-21 -0.0212107 0.00381738 5.0149e-06
0 0.0212107 0.00381746 2.46666e-10
-2.71051e-20 -0.0215712 0.000127436 9.90206e-05
-1.35525e-20 0.0215719 0.000127681 1.20285e-07
4.06576e-20 -0.0216067 1.47634e-16 9.92424e-05
-1.35525e-20 0.0216074 1.47373e-16 1.16717e-07
2.71051e-20 -0.0210473 0.00500657 1.80685e-05
1.35525e-20 0.0210475 0.00500662 2.16636e-09
-1.35525e-20 -0.0210904 0.00488681 1.8065e-05
-4.06576e-20 0.0210904 0.00488706 2.13787e-09
-7.52918e-22 -0.0212076 0.00450575 1.2814e-05
-4.89397e-21 0.0212077 0.00450582 1.25013e-09
0 -0.0215471 0.00276786 5.30166e-06
0 0.0215471 0.00276788 7.32141e-10
0 -0.0215274 0.00347141 4.86345e-06
-5.42101e-20 0.0215275 0.00347146 2.3545e-10
0 0.0212499 0.0051145 2.06359e-09
-1.69407e-20 -0.0212502 0.00511463 1.97847e-05
3.38813e-21 -0.0212808 0.00513096 1.99076e-05
0 0.0212811 0.00513109 2.07607e-09
0 -0.0213032 0.0050955 1.98697e-05
0 0.0213038 0.00509507 2.08321e-09
-2.71051e-20 -0.0215161 0.00414688 5.82045e-06
2.71051e-20 0.0215162 0.00414698 2.27745e-10
-3.38813e-21 -0.0213149 0.00514909 2.02751e-05
0 0.0213156 0.0051495 2.07407e-09
-5.42101e-20 -0.0219062 0.00171817 1.68647e-05
5.42101e-20 0.0219062 0.00171817 2.90773e-09
4.51751e-21 -0.0214404 0.00489776 1.87161e-05
9.03502e-21 0.0214406 0.00489792 1.97844e-09
2.11758e-22 -0.0218828 0.00243276 8.98129e-06
2.82344e-22 0.0218828 0.00243286 1.21939e-09
5.42101e-20 -0.0220249 0.000514809 0.000124346
-5.42101e-20 0.022025 0.000514815 2.22822e-08
0 -0.0218548 0.00311112 6.10437e-06
0 0.0218549 0.00311114 5.28975e-10
-1.12938e-21 -0.0218321 0.00380922 5.74947e-06
-4.51751e-21 0.0218321 0.00380928 2.29862e-10
0 -0.0215576 0.00527841 2.28632e-05
0 0.021558 0.0052786 1.94817e-09
1.35525e-20 -0.021618 0.00521401 2.28857e-05
0 0.0216183 0.00521431 1.98566e-09
-6.77626e-21 -0.0217926 0.00451289 1.08338e-05
6.77626e-21 0.0217927 0.00451304 7.52826e-10
2.71051e-20 -0.0216749 0.00534089 2.51344e-05
-2.71051e-20 0.021675 0.00534096 2.30996e-09
5.42101e-20 -0.0221928 0.00274702 8.42963e-06
-2.71051e-20 0.0221928 0.00274703 8.61446e-10
-1.807e-21 -0.0218358 0.00496905 1.87741e-05
-4.51751e-22 0.021836 0.00496915 1.54236e-09
-2.71051e-20 -0.0221555 0.00344893 5.84709e-06
-2.71051e-20 0.0221556 0.00344897 2.9292e-10
1.35525e-20 0.0225001 1.83963e-16 2.03656e-08
1.35525e-20 -0.0225001 1.84296e-16 0.000134751
0 0.0225001 0.000132879 2.00874e-08
0 -0.0225001 0.000132845 0.00013599
0 -0.0221425 0.00413741 6.43677e-06
2.71051e-20 0.0221425 0.00413747 1.62312e-10
6.77626e-21 0.0218749 0.00544743 2.78573e-09
-1.35525e-20 -0.0218752 0.00544758 3.0752e-05
0 -0.0225915 0.00111538 8.46715e-05
4.51751e-21 0.0225915 0.00111538 1.09381e-08
-3.38813e-21 -0.0219451 0.00548483 3.17087e-05
1.01644e-20 0.0219457 0.00548514 2.8428e-09
1.35525e-20 -0.0220189 0.00530689 2.94847e-05
-4.51751e-21 0.0220189 0.00530711 2.61983e-09
0 -0.0221557 0.00476095 1.06157e-05
0 0.0221557 0.00476106 3.88981e-10
0 -0.0226681 -7.52888e-18 0.000140758
2.71051e-20 0.0226682 -7.5783e-18 3.10154e-08
0 -0.0225575 0.00228412 1.35371e-05
0 0.0225575 0.00228414 1.55341e-09
-8.47033e-22 -0.0224843 0.00307681 7.80405e-06
7.05861e-22 0.0224843 0.00307687 6.19298e-10
8.47033e-22 0.0224595 0.00375139 2.52338e-10
-2.5411e-21 -0.0224607 0.00375124 7.05685e-06
-2.11758e-21 0.0225 0.00363412 3.10723e-10
1.69407e-21 -0.0225 0.00363668 7.21414e-06
4.23516e-22 0.0225048 0.00375038 2.53666e-10
4.23516e-22 -0.022505 0.00374493 7.14176e-06
-2.5411e-21 -0.0225 0.00378659 7.26118e-06
3.38813e-21 0.0224999 0.00378768 2.53787e-10
-2.71051e-20 -0.0228183 0.000138857 0.00014995
2.71051e-20 0.0228183 0.000138904 1.62864e-08
0 -0.0228295 -4.6137e-18 0.00015004
2.71051e-20 0.0228296 -4.63719e-18 1.62425e-08
-1.35525e-20 -0.0221583 0.00559842 3.077e-05
1.35525e-20 0.0221586 0.00559854 2.66957e-09
-4.23516e-22 -0.0225489 0.00374905 7.28706e-06
-1.69407e-21 0.0225501 0.00374913 2.55571e-10
3.38813e-21 -0.0224518 0.00446282 9.29586e-06
-1.12938e-21 0.0224519 0.00446289 2.48732e-10
-2.71051e-20 -0.0222813 0.00566396 3.01402e-05
2.71051e-20 0.0222814 0.00566399 2.65956e-09
-2.71051e-20 -0.0223283 0.00553412 3.00736e-05
-1.35525e-20 0.0223283 0.00553432 2.62483e-09
7.52918e-22 -0.0224429 0.00515556 2.23883e-05
-7.52918e-22 0.022443 0.00515562 1.53468e-09
0 0.0229083 0.00284902 7.50839e-10
2.71051e-20 -0.0229083 0.00284902 8.77633e-06
2.71051e-20 -0.0227694 0.00412844 8.46032e-06
0 0.0227694 0.00412849 1.69804e-10
2.71051e-20 0.022907 0.00330621 4.35226e-10
2.71051e-20 -0.022907 0.00330617 8.40742e-06
0 0.0225 0.00578038 2.53489e-09
-8.47033e-22 -0.0225001 0.00578047 3.41461e-05
0 -0.022509 0.0057852 3.42182e-05
0 0.0225092 0.00578529 2.53872e-09
1.69407e-21 -0.0225156 0.00577477 3.41856e-05
8.47033e-22 0.0225161 0.00577445 2.54093e-09
-8.47033e-22 -0.022519 0.00579052 3.44181e-05
-5.42101e-20 -0.0231859 0.00175342 2.4967e-05
0 0.0231859 0.00175343 2.36038e-09
-8.47033e-22 0.0225196 0.00579082 2.5396e-09
0 -0.0232456 0.000558696 0.000163924
5.42101e-20 0.0232457 0.000558712 1.36616e-08
-2.71051e-20 -0.0227558 0.00479301 1.15461e-05
0 0.0227558 0.00479309 2.5922e-10
5.64689e-22 -0.0231485 0.0024175 1.42873e-05
1.69407e-21 0.0231485 0.00241753 1.27147e-09
0 -0.0231146 0.00307523 9.16922e-06
0 0.0231146 0.00307524 6.06674e-10
6.02335e-21 -0.0226734 0.00554801 3.20161e-05
6.02335e-21 0.0226735 0.00554813 2.38596e-09
1.50584e-21 -0.023097 0.00377997 9.06044e-06
0 0.023097 0.00377998 2.77721e-10
0 -0.0230771 0.00445736 1.07807e-05
-3.38813e-21 0.0230771 0.0044574 2.03604e-10
-5.42101e-20 -0.0233412 0.00284261 1.05121e-05
0 0.0233413 0.00284261 7.87487e-10
0 -0.023307 0.0032965 9.52409e-06
-2.71051e-20 0.0233071 0.00329653 4.68384e-10
0 -0.0227839 0.00593188 4.01118e-05
0 0.0227842 0.005932 2.40934e-09
1.35525e-20 -0.0228491 0.00586247 3.99682e-05
2.71051e-20 0.0228493 0.00586268 2.45795e-09
-4.51751e-21 -0.0230321 0.00515831 2.02373e-05
-9.03502e-21 0.0230321 0.00515843 8.82395e-10
0 -0.0229107 0.00599969 4.27893e-05
0 0.0229108 0.00599972 2.92665e-09
1.35525e-21 -0.02307 0.00562156 3.3661e-05
-4.06576e-21 0.0230702 0.00562164 1.92138e-09
0 0.02375 -2.43186e-18 1.41134e-08
-1.35525e-20 -0.02375 -2.41206e-18 0.000168193
0 0.02375 0.000111014 1.41277e-08
-1.35525e-20 -0.02375 0.00011097 0.000168298
0 -0.0234167 0.0040912 1.01711e-05
-2.71051e-20 0.0234167 0.00409123 2.09356e-10
2.71051e-20 -0.0233771 0.00479107 1.28188e-05
2.71051e-20 0.0233771 0.00479113 1.71975e-10
0 -0.0238362 0.0011485 0.000102158
2.25875e-21 0.0238362 0.00114851 8.48101e-09
1.35525e-20 -0.0238811 -9.75667e-20 0.00016872
1.35525e-20 0.0238811 -9.75139e-20 1.46548e-08
3.38813e-21 0.0231249 0.00611537 3.62749e-09
-1.35525e-20 -0.0231251 0.00611547 5.21724e-05
2.25875e-21 0.0238207 0.00236091 1.53421e-09
7.90564e-21 -0.0238207 0.00236091 2.14102e-05
0 0.02375 0.00306544 6.57528e-10
0 -0.0237501 0.00306541 1.18072e-05
-1.69407e-20 -0.0231675 0.00613814 5.30196e-05
2.03288e-20 0.0231678 0.00613837 3.67719e-09
0 -0.0239958 0.000113646 0.000171876
-1.35525e-20 0.0239958 0.000113675 1.42686e-08
0 -0.0240047 1.15459e-20 0.000171906
-1.35525e-20 0.0240047 1.15183e-20 1.426e-08
-9.03502e-21 -0.023258 0.00596075 4.97868e-05
-9.03502e-21 0.0232581 0.00596091 3.37436e-09
-2.71051e-20 -0.0233938 0.00541142 2.20904e-05
2.71051e-20 0.0233939 0.00541149 4.7238e-10
-2.35287e-21 0.0237525 0.0036485 3.5641e-10
4.70574e-22 -0.0237525 0.00364843 1.16841e-05
1.12938e-21 -0.0237062 0.00443804 1.30172e-05
0 0.0237062 0.00443807 1.9894e-10
-1.35525e-20 -0.0233932 0.00626093 5.05683e-05
-2.71051e-20 0.0233933 0.00626104 3.44486e-09
1.12938e-21 -0.0236906 0.00510851 1.84799e-05
-4.51751e-21 0.0236906 0.00510857 2.8205e-10
-2.71051e-20 -0.0235127 0.00635105 5.07304e-05
6.77626e-21 0.0235127 0.00635107 3.43926e-09
1.35525e-20 -0.0235683 0.00620582 5.04159e-05
-1.35525e-20 0.0235682 0.00620594 3.37906e-09
2.71051e-20 -0.0240297 0.00408465 1.32484e-05
0 0.0240297 0.00408467 2.5208e-10
-2.25875e-21 -0.0236813 0.00581876 3.82343e-05
1.12938e-21 0.0236814 0.0058188 1.95204e-09
-2.71051e-20 -0.0240098 0.00476747 1.57673e-05