# k  POINT_DATA 14932
# x  y  z  k
-1.35525e-20 0.014142 1.6805e-07 3.72022e-10
1.35525e-20 -0.014142 1.6805e-07 2.61316e-06
-3.38813e-21 0.014142 0.00038916 1.92902e-10
6.77626e-21 -0.014142 0.000389158 1.82895e-06
3.38813e-21 0.014142 0.000654608 1.9381e-10
1.35525e-20 -0.014142 0.000654611 1.84167e-06
1.35525e-20 0.014142 0.0010436 3.06906e-10
1.35525e-20 -0.014142 0.0010436 2.4779e-06
3.38813e-21 0.014142 0.00143258 4.18216e-10
-3.38813e-21 -0.014142 0.00143258 2.88168e-06
0 -0.0142373 0.000284209 2.08943e-06
-1.35525e-20 0.0142373 0.000284209 2.40069e-10
-1.01644e-20 0.014142 0.00169802 5.07265e-10
-1.69407e-20 -0.014142 0.00169802 3.50637e-06
2.71051e-20 0.0142373 0.000886385 2.4213e-10
0 -0.0142373 0.000886387 2.11829e-06
6.77626e-21 -0.0142692 1.47356e-07 2.64949e-06
0 0.0142693 1.47356e-07 3.33847e-10
-1.35525e-20 0.0142379 0.00122537 3.69254e-10
0 -0.0142379 0.00122537 2.70761e-06
-1.35525e-20 0.014142 0.002087 6.99232e-10
1.35525e-20 -0.014142 0.002087 5.04636e-06
0 -0.0142973 0.00010195 2.58819e-06
0 0.0142973 0.000101947 3.24888e-10
1.35525e-20 0.0142379 0.00182859 5.71619e-10
0 -0.0142379 0.00182859 4.12722e-06
1.35525e-20 -0.014375 1.30158e-07 3.41997e-06
0 0.014375 1.30158e-07 5.74602e-10
-1.35525e-20 0.0143674 0.000671835 1.55168e-10
0 -0.0143674 0.000671836 1.7581e-06
-6.77626e-21 0.0142627 0.00213224 7.02144e-10
-6.77626e-21 -0.0142627 0.00213225 5.60417e-06
0 0.0142982 0.00203098 6.86881e-10
0 -0.0142982 0.00203099 5.38573e-06
0 0.0143693 0.00147446 4.55755e-10
-2.71051e-20 -0.0143693 0.00147446 3.197e-06
-4.92819e-21 0.0145076 0.000511139 2.07203e-10
2.4641e-21 -0.0145076 0.000511141 1.72734e-06
0 -0.0145274 1.02816e-07 3.37162e-06
-4.06576e-20 0.0145274 1.02816e-07 5.79585e-10
1.35525e-20 0.014375 0.00217431 8.47764e-10
2.71051e-20 -0.014375 0.00217431 5.5515e-06
0 0.0144982 0.00108838 1.94799e-10
1.12938e-21 -0.0144982 0.00108838 1.63466e-06
3.76459e-22 -0.0145753 0.000290334 2.53422e-06
-5.64689e-22 0.0145754 0.000290329 3.59869e-10
1.23205e-21 0.014511 0.00167594 4.34848e-10
0 -0.014511 0.00167595 3.24881e-06
-2.71051e-20 -0.0146106 8.78837e-08 4.61366e-06
2.71051e-20 0.0146106 8.78835e-08 9.17228e-10
2.71051e-20 0.0145143 0.00222654 8.90615e-10
0 -0.0145144 0.00222654 5.64591e-06
-1.12938e-21 0.0146672 0.000846041 1.03816e-10
1.12938e-21 -0.0146672 0.000846045 9.33194e-07
9.41148e-23 0.0145785 0.00192704 7.27642e-10
1.8823e-22 -0.0145785 0.00192707 5.08053e-06
-3.38813e-21 0.0146707 0.00137874 1.97581e-10
2.25875e-21 -0.0146707 0.00137875 1.46012e-06
-2.71051e-20 0.0145865 0.0022536 1.05517e-09
0 -0.0145866 0.00225361 6.2209e-06
1.35525e-20 0.0147491 0.000649276 2.05808e-10
0 -0.0147491 0.000649279 1.37563e-06
-8.47033e-21 0.0147844 0.000655031 2.96475e-10
3.38813e-21 -0.0147844 0.000655034 1.78781e-06
0 0.0147988 0.000871585 1.51739e-10
6.77626e-21 -0.0147988 0.000871591 1.0647e-06
0 0.0147845 0.00117651 1.35249e-10
6.02335e-21 -0.0147845 0.00117652 1.07915e-06
0 0.0147605 0.00160861 3.33495e-10
0 -0.0147605 0.00160862 2.4467e-06
-1.35525e-20 0.0147977 0.00158745 3.41878e-10
1.72487e-20 -0.0147977 0.00158746 2.4103e-06
6.77626e-21 -0.0148904 6.18649e-08 5.80173e-06
1.35525e-20 0.0148905 6.18648e-08 1.41316e-09
0 0.0147312 0.00230781 1.24137e-09
0 -0.0147313 0.00230783 7.06504e-06
3.29402e-22 -0.0149957 0.000282608 5.55837e-06
-5.64689e-22 0.0149957 0.00028261 1.3689e-09
2.71051e-20 -0.015 5.89037e-08 6.91722e-06
0 0.015 5.89034e-08 1.63287e-09
2.63521e-21 0.0149668 0.00202068 1.22946e-09
-1.8823e-21 -0.0149669 0.00202069 6.95498e-06
-2.25875e-21 0.0150976 0.000881085 2.23626e-10
-4.51751e-21 -0.0150976 0.00088109 1.24074e-06
1.69407e-21 -0.015 0.00226026 7.32042e-06
1.69407e-21 0.015 0.00226035 1.40482e-09
-2.25875e-21 0.0151055 0.00145482 2.07033e-10
-2.25875e-21 -0.0151055 0.00145483 1.42453e-06
-3.38813e-21 -0.015 0.00240853 7.31465e-06
3.38813e-21 0.015 0.00240854 1.4763e-09
2.37169e-20 0.0150362 0.00242211 1.48885e-09
0 -0.0150362 0.00242211 7.27954e-06
-2.71051e-20 0.01529 2.82762e-08 1.93217e-09
-2.71051e-20 -0.01529 2.82764e-08 9.64456e-06
-3.38813e-21 0.015119 0.00245307 1.54183e-09
3.38813e-21 -0.015119 0.0024531 7.24913e-06
2.71051e-20 0.0153534 0.000582976 9.37914e-10
5.42101e-20 -0.0153534 0.000582978 4.91112e-06
-2.71051e-20 0.0153937 0.00118118 1.93312e-10
0 -0.0153937 0.00118119 1.31439e-06
0 0.0153686 0.00185159 6.12848e-10
-2.71051e-20 -0.0153687 0.00185159 3.629e-06
-1.35525e-20 0.0152769 0.00251208 1.60383e-09
0 -0.0152769 0.0025121 7.30134e-06
6.77626e-21 0.0153113 0.00239115 1.59621e-09
6.77626e-21 -0.0153113 0.00239115 7.1477e-06
-2.25875e-21 0.015375 0.00227891 1.54144e-09
0 -0.015375 0.00227891 7.04169e-06
2.20229e-20 0.015625 2.01014e-08 2.60958e-09
2.03288e-20 -0.015625 2.01012e-08 1.30819e-05
1.18585e-20 0.0156405 1.9576e-08 2.6383e-09
1.01644e-20 -0.0156405 1.95765e-08 1.32406e-05
1.12938e-21 0.0156636 0.000293521 2.50788e-09
2.25875e-21 -0.0156636 0.000293518 1.2595e-05
-1.35525e-20 -0.0154657 0.00258282 7.69136e-06
0 0.0154657 0.00258282 1.543e-09
-2.25875e-21 -0.015717 0.000894934 2.70512e-06
-6.77626e-21 0.015717 0.000894932 4.44959e-10
0 0.0157234 0.00153502 2.19775e-10
4.51751e-21 -0.0157234 0.00153501 1.49854e-06
0 -0.015651 0.00230882 6.17157e-06
-8.47033e-22 0.015651 0.00230883 1.19738e-09
-1.35525e-20 0.0156249 0.00255271 1.41371e-09
1.35525e-20 -0.0156249 0.0025527 7.46853e-06
6.77626e-21 0.0156249 0.0026425 1.38033e-09
-6.77626e-21 -0.0156249 0.00264251 7.49594e-06
-9.03502e-21 0.0157441 0.00206315 5.42534e-10
1.35525e-20 -0.0157441 0.00206315 3.36082e-06
2.71051e-20 0.015972 1.09709e-08 3.00624e-09
0 -0.015972 1.09709e-08 1.62775e-05
2.71051e-20 -0.0157578 0.00269219 7.78687e-06
2.71051e-20 0.0157578 0.00269219 1.36174e-09
0 -0.0157985 0.00252729 7.74582e-06
-8.13152e-21 0.0157985 0.0025273 1.40089e-09
-2.71051e-20 0.0160282 0.000587523 1.682e-09
2.71051e-20 -0.0160282 0.000587524 9.33328e-06
0 0.0160587 0.00121789 3.10754e-10
0 -0.0160587 0.00121789 2.08638e-06
0 0.0160379 0.00190439 5.23505e-10
2.71051e-20 -0.0160379 0.00190438 3.10139e-06
0 -0.0159573 0.00276704 1.08219e-05
0 0.0159573 0.00276704 2.14194e-09
1.12938e-20 -0.0160447 0.00231947 5.72609e-06
-4.51751e-21 0.0160447 0.0023195 9.873e-10
6.77626e-21 0.01625 8.16826e-09 3.31834e-09
-6.77626e-21 -0.01625 8.16829e-09 1.90933e-05
-2.25875e-21 0.0163415 0.000297249 3.19827e-09
2.25875e-21 -0.0163415 0.000297252 1.85393e-05
6.77626e-21 0.0163888 5.62448e-09 3.49318e-09
-2.03288e-20 -0.0163888 5.62434e-09 2.03533e-05
-2.25875e-21 -0.0163799 0.000909686 4.44669e-06
4.51751e-21 0.0163799 0.000909686 7.07383e-10
-1.6263e-20 0.0163164 0.002107 4.31936e-10
0 -0.0163164 0.00210699 2.97165e-06
-6.77626e-21 -0.0163934 0.00156024 1.82311e-06
2.25875e-21 0.0163934 0.00156024 2.66057e-10
-1.35525e-20 0.0162498 0.00287804 2.44704e-09
2.37169e-20 -0.0162499 0.00287808 1.36928e-05
6.77626e-21 -0.016295 0.00289505 1.40283e-05
-1.01644e-20 0.0162953 0.00289514 2.52045e-09
0 -0.0163557 0.00265169 1.24007e-05
0 0.0163557 0.00265171 2.23421e-09
-2.71051e-20 0.0166549 2.57177e-09 3.85903e-09
0 -0.0166549 2.57172e-09 2.20986e-05
-2.71051e-20 0.0166923 0.000591889 2.20643e-09
-2.71051e-20 -0.0166923 0.000591889 1.32349e-05
2.71051e-20 -0.0165883 0.00300631 1.44371e-05
2.71051e-20 0.0165884 0.00300634 3.28134e-09
0 0.0168225 0.00122844 4.30708e-10
4.51751e-21 -0.0168225 0.00122844 3.43598e-06
-1.35525e-20 0.016875 2.08171e-09 4.17453e-09
-2.71051e-20 -0.016875 2.08167e-09 2.41737e-05
4.51751e-21 -0.0167185 0.00238646 6.29175e-06
9.03502e-21 0.0167185 0.00238653 1.17026e-09
9.03502e-21 0.0167785 0.00193449 3.41855e-10
-6.77626e-21 -0.0167785 0.00193449 2.36981e-06
-8.13152e-21 0.0169401 0.000818251 1.08432e-09
2.71051e-21 -0.0169401 0.000818252 7.86846e-06
0 0.0170157 0.000298678 3.95604e-09
-6.77626e-21 -0.0170157 0.000298678 2.31725e-05
-6.77626e-21 -0.0168116 0.00309149 1.75811e-05
6.77626e-21 0.0168118 0.00309158 4.3077e-09
-2.71051e-20 0.0170535 0.00156148 2.58055e-10
0 -0.0170535 0.00156147 1.93265e-06
1.35525e-20 -0.0171302 1.11108e-09 2.61009e-05
0 0.0171302 1.11109e-09 4.45991e-09
-6.77626e-21 0.0168748 0.00300377 4.33946e-09
-3.38813e-21 -0.016875 0.00300312 1.78022e-05
6.77626e-21 0.0168748 0.00311544 4.31914e-09
3.38813e-21 -0.0168751 0.00311552 1.73239e-05
2.25875e-21 -0.0169651 0.00280897 1.60834e-05
4.51751e-21 0.0169652 0.00280902 3.8301e-09
-2.71051e-20 -0.0170597 0.00222742 2.98088e-06
-2.71051e-20 0.0170597 0.00222745 4.92945e-10
2.71051e-20 0.0173299 6.20518e-10 4.57562e-09
-5.42101e-20 -0.0173299 6.2051e-10 2.66438e-05
0 -0.0170862 0.00319594 1.55821e-05
2.71051e-20 0.0170864 0.00319602 4.12227e-09
9.03502e-21 0.0174049 0.000633537 2.441e-09
6.77626e-21 -0.0174049 0.000633537 1.54156e-05
-4.51751e-21 -0.0173768 0.00122554 4.24321e-06
-2.25875e-21 0.0173768 0.00122555 5.25936e-10
0 -0.0173842 0.00190622 2.62012e-06
-1.35525e-20 0.0173842 0.00190623 3.80711e-10
4.06576e-20 0.0175 5.31041e-10 4.71815e-09
0 -0.0175 5.31033e-10 2.77521e-05
2.71051e-20 0.0175 0.000142326 4.70713e-09
-1.35525e-20 -0.0175 0.000142327 2.76947e-05
1.35525e-20 -0.0172465 0.00325641 1.58596e-05
2.03288e-20 0.0172466 0.00325643 4.10434e-09
0 -0.0172975 0.00308987 1.58351e-05
2.71051e-20 0.0172975 0.00309007 4.05894e-09
-3.38813e-21 0.0174273 0.00267257 2.13991e-09
5.64689e-21 -0.0174273 0.00267255 9.23889e-06
-2.71051e-20 0.0176746 0.000289047 4.87209e-09
-2.71051e-20 -0.0176746 0.000289047 2.87793e-05
0 0.0177002 0.000896397 8.12703e-10
0 -0.0177002 0.000896392 6.61505e-06
1.69407e-21 -0.0174509 0.00333352 1.4204e-05
1.69407e-21 0.0174516 0.00333379 3.86897e-09
-2.71051e-20 0.0177154 0.00155334 3.60233e-10
0 -0.0177154 0.00155333 2.60367e-06
1.69407e-21 -0.0174773 0.00332283 1.4033e-05
0 0.0174776 0.00332327 3.84059e-09
0 -0.0174819 0.00334524 1.3885e-05
0 0.0174821 0.0033453 3.82323e-09
0 0.0174998 0.00332149 3.75314e-09
1.69407e-21 -0.0174999 0.00332102 1.36998e-05
0 0.0174997 0.00334181 3.78451e-09
1.69407e-21 -0.0174999 0.00334168 1.38199e-05
0 0.0174997 0.00335193 3.76971e-09
0 -0.0174999 0.00335198 1.37875e-05
-2.71051e-20 -0.0177081 0.00225899 2.95266e-06
0 0.0177081 0.00225902 4.10055e-10
-1.35525e-20 -0.0178538 1.78852e-10 2.91643e-05
-1.35525e-20 0.0178538 1.78853e-10 4.95533e-09
1.35525e-20 -0.0178632 0.000120417 2.91533e-05
-1.35525e-20 0.0178632 0.000120416 4.95231e-09
9.03502e-21 -0.017635 0.00307305 1.25562e-05
-9.03502e-21 0.0176351 0.00307313 3.58591e-09
0 -0.0176457 0.00307746 1.23735e-05
-1.35525e-20 0.0176457 0.00307753 3.53492e-09
-1.35525e-20 0.0179989 9.38387e-11 5.00568e-09
1.35525e-20 -0.0179989 9.38379e-11 2.88342e-05
0 -0.0180168 0.00057603 1.86454e-05
0 0.0180168 0.00057603 3.00456e-09
4.51751e-21 -0.0180391 0.00120807 5.69551e-06
0 0.0180391 0.00120807 7.55516e-10
-2.71051e-20 -0.0177836 0.00345876 1.29869e-05
-1.35525e-20 0.0177837 0.00345884 3.46409e-09
1.35525e-20 0.0181253 8.3883e-11 4.89518e-09
0 -0.0181253 8.38822e-11 2.91195e-05
-1.35525e-20 -0.0181254 0.000104633 2.91155e-05
-1.35525e-20 0.0181255 0.000104633 4.89479e-09
0 -0.0180399 0.00190087 3.19309e-06
4.51751e-21 0.0180399 0.00190089 4.47821e-10
0 -0.0178455 0.00338254 1.31251e-05
0 0.0178456 0.00338269 3.54281e-09
2.25875e-21 -0.0180098 0.0026349 6.17896e-06
0 0.0180098 0.00263498 1.31139e-09
0 -0.0179191 0.00350977 1.35167e-05
0 0.0179192 0.00350979 4.18041e-09
-3.61401e-21 -0.0180588 0.00311986 1.04561e-05
-2.25875e-21 0.0180589 0.00311992 2.80764e-09
0 -0.0183343 0.000279701 2.94738e-05
-2.71051e-20 0.0183343 0.000279704 4.97152e-09
0 -0.0183564 0.000873036 9.19135e-06
-2.71051e-20 0.0183565 0.000873036 1.19875e-09
-2.71051e-20 0.0183698 0.00152854 6.15266e-10
-2.71051e-20 -0.0183698 0.00152853 4.33677e-06
1.35525e-20 0.0181249 0.00358718 4.87121e-09
0 -0.018125 0.00358724 1.43251e-05
2.71051e-20 -0.0183583 0.00223916 2.90329e-06
0 0.0183583 0.0022392 3.95072e-10
0 0.0185566 2.08891e-11 4.8066e-09
0 -0.0185566 2.08891e-11 2.95456e-05
1.35525e-20 -0.0185599 8.40225e-05 2.95456e-05
-1.35525e-20 0.0185599 8.40238e-05 4.80564e-09
1.35525e-20 -0.0182298 0.00362666 1.42226e-05
6.77626e-21 0.0182303 0.00362685 4.98528e-09
9.03502e-21 -0.0182769 0.00344762 1.39737e-05
0 0.018277 0.00344779 4.65153e-09
-5.42101e-20 -0.0183882 0.00288112 4.38471e-06
-2.71051e-20 0.0183883 0.00288119 7.32978e-10
-1.35525e-20 -0.0186588 1.21775e-11 2.93288e-05
0 0.0186588 1.21774e-11 5.1432e-09
2.25875e-21 -0.0186718 0.000554126 1.97211e-05
6.77626e-21 0.0186718 0.000554126 3.62275e-09
-1.12938e-21 -0.0186931 0.00117295 7.41611e-06
-3.38813e-21 0.0186931 0.00117295 1.72914e-09
-1.35525e-20 -0.01875 1.12105e-11 2.93357e-05
1.35525e-20 0.01875 1.12102e-11 4.45214e-09
1.35525e-20 -0.01875 7.46541e-05 2.93362e-05
-1.35525e-20 0.01875 7.46588e-05 4.45276e-09
4.51751e-21 -0.0186935 0.00186318 4.06509e-06
3.38813e-21 0.0186935 0.0018632 7.75503e-10
-1.35525e-20 -0.0184505 0.00370969 1.30547e-05
2.71051e-20 0.0184507 0.00370979 4.82679e-09
-1.12938e-21 -0.0186914 0.00255843 3.5427e-06
-1.12938e-21 0.0186914 0.00255847 5.86029e-10
-4.06576e-20 -0.0185631 0.00375372 1.2871e-05
0 0.0185633 0.00375376 4.85576e-09
-1.35525e-20 -0.018598 0.00364592 1.29257e-05
-4.06576e-20 0.018598 0.00364611 4.79892e-09
0 -0.0189815 0.000265107 2.94108e-05
-2.71051e-20 0.0189816 0.000265108 4.29352e-09
1.12938e-21 -0.0187011 0.00326206 8.91043e-06
0 0.0187012 0.0032621 2.81528e-09
2.71051e-20 -0.0190034 0.000835917 1.01687e-05
0 0.0190034 0.000835918 3.55373e-09
-2.71051e-20 -0.0190202 0.00148192 5.8409e-06
5.42101e-20 0.0190202 0.00148194 1.41939e-09
-6.77626e-21 0.0187498 0.00382104 4.64111e-09
-1.35525e-20 -0.0187499 0.00382109 1.22641e-05
0 -0.0190135 0.00218681 3.24226e-06
-2.71051e-20 0.0190135 0.00218684 6.74061e-10
-6.77626e-21 -0.0188253 0.00385016 1.20254e-05
0 0.0188256 0.00385027 4.73236e-09
-5.42101e-20 -0.0190102 0.00288285 3.57646e-06
0 0.0190103 0.00288292 5.3892e-10
-6.77626e-21 -0.018869 0.00377278 1.20241e-05
6.77626e-21 0.0188695 0.00377248 4.77262e-09
-1.35525e-20 0.0192456 1.60944e-12 6.37462e-09
-6.77626e-21 -0.0192456 1.60935e-12 2.75797e-05
0 0.0192458 5.21881e-05 6.3762e-09
0 -0.0192459 5.21802e-05 2.75789e-05
4.51751e-21 -0.0189593 0.00363159 1.13715e-05
-4.51751e-21 0.0189594 0.00363171 4.57002e-09
-6.77626e-21 -0.0193107 8.87467e-13 2.73019e-05
0 0.0193107 8.87427e-13 7.77561e-09
1.35525e-20 -0.0189216 0.00388925 1.21397e-05
-6.77626e-21 0.0189225 0.00388962 4.70513e-09
2.25875e-21 -0.0193153 0.000516098 2.0404e-05
0 0.0193153 0.000516099 9.25515e-09
1.35525e-20 -0.0193661 4.34921e-05 2.66733e-05
-6.77626e-21 0.0193662 4.35036e-05 8.22161e-09
6.77626e-21 -0.0193681 8.52526e-13 2.67046e-05
-6.77626e-21 0.0193681 8.52456e-13 8.15943e-09
9.03502e-22 0.0193579 0.00110753 8.19432e-09
-9.03502e-22 -0.0193579 0.00110753 1.11428e-05
-1.12938e-21 -0.0193482 0.00179878 5.66085e-06
1.12938e-21 0.0193482 0.00179879 1.81262e-09
-1.12938e-21 -0.0193328 0.00252219 3.49522e-06
0 0.0193329 0.00252223 7.73487e-10
2.71051e-20 -0.0191251 0.00398458 1.1977e-05
0 0.0191255 0.00398476 4.44955e-09
2.71051e-20 -0.0191698 0.00393531 1.20589e-05
-1.35525e-20 0.01917 0.00393559 4.51713e-09
-1.12938e-20 -0.0192999 0.00324532 6.06876e-06
-6.77626e-21 0.0192999 0.00324545 1.77041e-09
-2.71051e-20 -0.0196143 0.000236549 2.48507e-05
0 0.0196143 0.000236555 1.02754e-08
0 -0.0192179 0.00403218 1.26188e-05
0 0.019218 0.00403225 5.0902e-09
0 -0.0196507 0.000769621 1.61696e-05
-2.71051e-20 0.0196507 0.000769624 1.73836e-08
5.64689e-22 -0.019364 0.0036912 9.35257e-06
-7.90564e-22 0.0193642 0.00369131 3.43666e-09
0 -0.0197262 4.3324e-13 3.1263e-05
3.38813e-21 0.0197263 4.33011e-13 7.24351e-08
-2.71051e-20 -0.0196852 0.0013914 1.05574e-05
-2.71051e-20 0.0196852 0.0013914 3.87287e-09
5.42101e-20 -0.019658 0.00213353 3.30628e-06
0 0.019658 0.00213356 1.34221e-09
0 0.0193748 0.00398188 5.5233e-09
0 -0.0193751 0.00398171 1.33135e-05
1.35525e-20 0.0193748 0.00411568 5.89238e-09
-6.77626e-21 -0.0193751 0.00411583 1.37798e-05
-5.42101e-20 -0.0196507 0.00284929 3.83063e-06
0 0.0196508 0.00284935 5.48472e-10
2.48463e-21 0.0199511 0.000464191 9.4675e-08
1.58113e-21 -0.0199511 0.00046419 2.92343e-05
2.71051e-20 -0.0196742 0.00348114 3.71852e-06
-2.71051e-20 0.0196743 0.00348124 8.65423e-10
0 -0.0195407 0.00420391 1.41014e-05
-6.77626e-21 0.0195414 0.00420428 6.19014e-09
0 0.02 4.81857e-13 1.09102e-07
0 0.02 2.78524e-05 1.09704e-07
0 -0.02 4.82208e-13 3.33467e-05
0 -0.02 2.78703e-05 3.33906e-05
-3.38813e-21 0.02 0.000208128 1.03121e-07
0 -0.02 0.000208218 3.11661e-05
-6.77626e-21 0.0200396 7.19394e-14 1.1546e-07
-6.77626e-21 -0.0200397 7.19946e-14 3.39716e-05
0 -0.0196489 0.00406133 1.3655e-05
-1.0842e-20 0.0196492 0.00406167 5.80759e-09
0 0.0200681 2.37555e-05 1.11198e-07
0 -0.0200682 2.37724e-05 3.37766e-05
-2.35287e-22 -0.0199935 0.00175524 7.39878e-06
1.41172e-22 0.0199936 0.00175513 3.44146e-09
-6.77626e-21 0.0200714 3.9263e-14 1.10456e-07
-6.77626e-21 -0.0200715 3.9285e-14 3.37401e-05
-2.25875e-21 0.0200889 0.000959444 5.23534e-08
0 -0.0200889 0.000959437 2.24184e-05
-8.87368e-22 -0.020018 0.0024485 4.22483e-06
3.22679e-22 0.0200181 0.0024486 1.35339e-09
-6.77626e-21 0.0201757 9.02792e-15 1.22006e-07
0 -0.0201759 9.03188e-15 3.77302e-05
-1.35525e-20 -0.0197164 0.0042974 1.33813e-05
-2.71051e-20 0.0197167 0.00429758 5.91575e-09
-2.82344e-21 -0.019968 0.00317454 3.77964e-06
0 0.019968 0.00317461 7.32646e-10
1.35525e-20 -0.0198178 0.00435143 1.30921e-05
-1.35525e-20 0.0198179 0.00435149 5.91023e-09
1.35525e-20 -0.0198553 0.00424439 1.31306e-05
0 0.0198553 0.00424466 5.8487e-09
1.50584e-21 -0.0199716 0.00386195 9.03528e-06
-1.69407e-21 0.0199717 0.00386203 3.44298e-09
0 0.0204248 0.000311575 2.22693e-07
2.25875e-21 -0.0204248 0.000311594 4.78124e-05
0 -0.02042 0.00146742 1.01609e-05
-2.71051e-20 0.02042 0.00146741 5.03291e-09
0 -0.0202841 0.00282329 3.85729e-06
0 0.0202842 0.00282334 8.74222e-10
6.77626e-21 0.0199999 0.00444852 5.66822e-09
6.77626e-21 -0.0200001 0.00444866 1.34426e-05
-2.71051e-20 -0.0204141 0.00196452 6.5047e-06
-5.42101e-20 0.0204142 0.00196455 3.25248e-09
1.35525e-20 0.0205235 4.55464e-15 1.95336e-07
0 -0.0205236 4.54438e-15 4.96399e-05
6.77626e-21 -0.0200603 0.00448072 1.34665e-05
0 0.0200605 0.00448086 5.74095e-09
-2.71051e-20 -0.0202766 0.00350282 3.72063e-06
-2.71051e-20 0.0202767 0.00350291 6.44133e-10
3.38813e-21 -0.0201017 0.00441369 1.34559e-05
3.38813e-21 0.0201022 0.00441328 5.78342e-09
-6.77626e-21 -0.0201267 0.00451611 1.37599e-05
6.77626e-21 0.0201275 0.00451657 5.71831e-09
-6.77626e-21 -0.0202112 0.00425305 1.27784e-05
5.27043e-21 0.0202113 0.00425322 5.55089e-09
1.77474e-21 -0.0206611 0.000857183 4.23608e-05
-7.26028e-22 0.0206612 0.000857155 8.08646e-08
-2.71051e-20 0.0206907 1.34737e-15 1.43212e-07
0 -0.0206907 1.33314e-15 6.1662e-05
0 -0.020629 0.00169534 8.78181e-06
1.35525e-20 0.020629 0.00169534 5.65508e-09
1.41172e-22 0.0206304 0.00244032 2.0498e-09
0 -0.0206304 0.0024403 5.50407e-06
-5.64689e-22 -0.0205956 0.00315756 4.21381e-06
-1.69407e-21 0.0205957 0.0031576 8.77546e-10
0 -0.0203415 0.00463057 1.45367e-05
-1.35525e-20 0.0203419 0.00463079 5.39695e-09
2.71051e-20 -0.0208462 0.00142109 1.12388e-05
0 0.0208463 0.00142107 1.05701e-08
0 -0.0203946 0.00457335 1.45954e-05
0 0.0203949 0.0045737 5.48863e-09
0 -0.0205528 0.00387349 6.86796e-06
0 0.0205529 0.00387365 2.16214e-09
0 -0.0208258 0.00194371 7.67682e-06
0 0.0208258 0.00194373 4.09912e-09
-3.38813e-21 0.0209525 4.1993e-16 1.74296e-07
0 -0.0209526 4.12756e-16 8.86606e-05
0 -0.0209676 0.000105362 9.10747e-05
3.38813e-21 0.0209677 0.000106546 1.77698e-07
-1.69407e-21 -0.0209754 2.17162e-16 8.99572e-05
1.69407e-21 0.0209756 2.20484e-16 1.77197e-07
-2.71051e-20 -0.0204458 0.00468612 1.57092e-05
0 0.020446 0.00468621 6.25196e-09
-1.12938e-21 0.0209821 0.000349585 1.76042e-07
0 -0.0209822 0.000349599 8.70526e-05
-1.01644e-21 -0.0206056 0.00432302 1.15208e-05
1.12938e-22 0.0206057 0.00432315 4.20737e-09
0 -0.0209339 0.00277547 5.41711e-06
-5.42101e-20 0.0209339 0.00277549 1.44976e-09
1.35525e-20 0.0206249 0.00478151 7.38139e-09
0 -0.0206251 0.00478166 1.83079e-05
0 -0.0208973 0.00349615 3.91013e-06
-2.71051e-20 0.0208974 0.00349622 5.60554e-10
0 0.0212501 -3.25606e-16 1.56596e-07
0 -0.0212501 -3.23147e-16 8.29285e-05
-3.38813e-20 -0.0207393 0.0048425 1.90379e-05
2.71051e-20 0.0207401 0.00484287 7.62649e-09
1.35525e-20 -0.020785 0.00466278 1.78275e-05
0 0.0207851 0.00466305 7.03106e-09
-2.71051e-20 -0.020919 0.0041165 5.37193e-06
2.71051e-20 0.0209191 0.00411663 1.05456e-09
5.64689e-22 0.0212542 0.00168692 7.6339e-09
1.69407e-21 -0.0212543 0.00168692 1.16813e-05
7.52918e-22 -0.0213184 0.000900124 5.76199e-05
-1.50584e-21 0.0213184 0.000900095 8.26614e-08
-2.71051e-20 -0.021346 0.00012185 8.50616e-05
0 0.0213462 0.000122052 1.93596e-07
0 -0.0213548 6.61869e-17 8.45611e-05
0 0.021355 6.76435e-17 1.95475e-07
0 -0.0212894 0.0022942 7.84983e-06
-1.12938e-21 0.0212894 0.00229422 3.39515e-09
1.35525e-20 -0.0214254 -2.81734e-16 8.78437e-05
2.71051e-20 0.0214257 -2.82212e-16 1.69745e-07
-1.12938e-21 -0.0212264 0.0031084 5.05508e-06
1.35525e-21 0.0212264 0.0031085 1.32393e-09
0 -0.0209342 0.00494631 1.83804e-05
-1.35525e-20 0.0209345 0.00494647 7.20815e-09
0 -0.0212107 0.00381738 4.98702e-06
-1.12938e-21 0.0212107 0.00381746 7.73461e-10
-2.71051e-20 -0.0215707 0.0001272 9.85975e-05
-1.35525e-20 0.0215713 0.000127441 1.20641e-07
0 -0.0216062 1.81935e-16 9.88185e-05
-2.71051e-20 0.0216069 1.81687e-16 1.17352e-07
2.71051e-20 -0.0210473 0.00500657 1.79649e-05
1.35525e-20 0.0210475 0.00500662 7.16929e-09
0 -0.0210904 0.00488681 1.79611e-05
1.35525e-20 0.0210904 0.00488706 7.09018e-09
2.63521e-21 -0.0212076 0.00450575 1.27402e-05
1.12938e-21 0.0212077 0.00450582 4.16257e-09
-2.71051e-20 -0.0215471 0.00276781 5.27237e-06
2.71051e-20 0.0215471 0.00276784 2.01571e-09
0 -0.0215274 0.00347141 4.84137e-06
0 0.0215275 0.00347145 7.17436e-10
0 0.0212499 0.0051145 6.81394e-09
-1.69407e-20 -0.0212502 0.00511463 1.96786e-05
3.38813e-21 -0.0212808 0.00513096 1.98019e-05
0 0.0212811 0.00513109 6.85279e-09
3.38813e-21 -0.0213032 0.0050955 1.97643e-05
-3.38813e-21 0.0213038 0.00509507 6.8805e-09
0 -0.0215161 0.00414688 5.78957e-06
2.71051e-20 0.0215162 0.00414698 7.3556e-10
-3.38813e-21 -0.0213149 0.00514909 2.01681e-05
0 0.0213156 0.0051495 6.83357e-09
0 -0.0219059 0.00171801 1.67758e-05
-5.42101e-20 0.0219059 0.00171801 8.09842e-09
1.05409e-20 -0.0214404 0.00489776 1.86179e-05
-3.01167e-21 0.0214406 0.00489792 6.55845e-09
2.11758e-22 -0.0218827 0.00243256 8.93527e-06
3.5293e-22 0.0218827 0.00243267 3.57694e-09
-5.42101e-20 -0.0220245 0.000514823 0.000123812
0 0.0220246 0.000514823 5.54806e-08
5.64689e-22 -0.0218548 0.00311111 6.07568e-06
0 0.0218549 0.00311114 1.62825e-09
-3.38813e-21 -0.0218321 0.00380922 5.72435e-06
0 0.0218321 0.00380928 7.43129e-10
0 -0.0215576 0.00527841 2.27484e-05
0 0.021558 0.0052786 6.36474e-09
-2.71051e-20 -0.021618 0.00521401 2.2771e-05
0 0.0216183 0.00521431 6.488e-09
2.25875e-21 -0.0217926 0.00451289 1.07785e-05
-2.25875e-21 0.0217927 0.00451304 2.48158e-09
2.71051e-20 -0.0216749 0.00534089 2.50172e-05
-2.71051e-20 0.021675 0.00534096 7.48011e-09
-2.71051e-20 -0.0221927 0.00274699 8.38667e-06
-2.71051e-20 0.0221928 0.002747 2.8043e-09
-1.12938e-21 -0.0218358 0.00496905 1.86821e-05
-1.12938e-21 0.021836 0.00496915 5.02491e-09
2.71051e-20 -0.0221555 0.00344892 5.8263e-06
-2.71051e-20 0.0221556 0.00344897 9.74652e-10
-1.35525e-20 -0.0225001 2.20878e-16 0.000134152
-1.35525e-20 0.0225001 2.20537e-16 5.98715e-08
-2.71051e-20 -0.0225001 0.000132713 0.000135389
0 0.0225001 0.000132744 6.09077e-08
0 -0.0221425 0.00413741 6.41034e-06
0 0.0221425 0.00413747 5.36964e-10
6.77626e-21 0.0218749 0.00544743 8.91881e-09
-1.35525e-20 -0.0218752 0.00544758 3.0622e-05
2.25875e-21 -0.0225913 0.00111536 8.42886e-05
0 0.0225913 0.00111536 3.92846e-08
-3.38813e-21 -0.0219451 0.00548483 3.1577e-05
1.01644e-20 0.0219457 0.00548514 9.08266e-09
4.51751e-21 -0.0220189 0.00530689 2.93573e-05
-9.03502e-21 0.0220189 0.00530711 8.40884e-09
0 -0.0221557 0.00476095 1.05651e-05
-2.71051e-20 0.0221557 0.00476106 1.23601e-09
0 -0.022668 -7.76827e-18 0.000140126
2.71051e-20 0.0226682 -7.82573e-18 8.65736e-08
0 -0.0225574 0.00228407 1.34737e-05
0 0.0225574 0.00228408 5.40613e-09
1.12938e-21 -0.0224843 0.00307678 7.77085e-06
-8.47033e-22 0.0224843 0.00307684 2.11015e-09
0 0.0224596 0.00375138 8.97586e-10
-8.47033e-22 -0.0224607 0.00375124 7.03198e-06
0 0.0225 0.00363425 1.09036e-09
-2.11758e-21 -0.0225 0.00363681 7.18793e-06
4.23516e-22 0.0224999 0.00375054 9.07214e-10
0 -0.022505 0.00374493 7.11687e-06
-2.11758e-21 -0.0225 0.00378656 7.23553e-06
2.96462e-21 0.0224999 0.00378766 9.03504e-10
2.71051e-20 -0.0228181 0.000138799 0.000149269
2.71051e-20 0.0228182 0.000138846 6.53862e-08
-2.71051e-20 -0.0228293 -4.78495e-18 0.00014936
2.71051e-20 0.0228295 -4.81285e-18 6.52086e-08
-1.35525e-20 -0.0221583 0.00559842 3.06436e-05
1.35525e-20 0.0221586 0.00559854 8.52289e-09
-1.27055e-21 -0.0225489 0.00374905 7.26185e-06
0 0.02255 0.00374913 9.203e-10
4.51751e-21 -0.0224518 0.00446282 9.25876e-06
-2.25875e-21 0.0224519 0.00446289 8.07076e-10
-2.71051e-20 -0.0222813 0.00566396 3.00147e-05
2.71051e-20 0.0222814 0.00566399 8.46039e-09
1.35525e-20 -0.0223283 0.00553412 2.99478e-05
2.71051e-20 0.0223283 0.00553432 8.36402e-09
-3.76459e-22 -0.0224429 0.00515556 2.22938e-05
-1.50584e-21 0.022443 0.00515562 4.9052e-09
0 -0.0229083 0.002849 8.73906e-06
-2.71051e-20 0.0229083 0.002849 2.63068e-09
0 -0.0227694 0.00412844 8.43751e-06
0 0.0227694 0.0041285 5.97424e-10
2.71051e-20 -0.022907 0.00330616 8.37615e-06
2.71051e-20 0.022907 0.0033062 1.75868e-09
0 0.0225 0.00578038 8.06583e-09
-8.47033e-22 -0.0225001 0.00578047 3.40168e-05
0 -0.022509 0.0057852 3.40888e-05
0 0.0225092 0.00578529 8.07798e-09
0 -0.0225156 0.00577477 3.40564e-05
8.47033e-22 0.0225161 0.00577445 8.08616e-09
-8.47033e-22 -0.022519 0.00579052 3.42884e-05
-5.42101e-20 -0.0231858 0.00175337 2.48626e-05
0 0.0231858 0.00175338 1.07128e-08
-8.47033e-22 0.0225196 0.00579082 8.07803e-09
0 -0.0232455 0.000558694 0.000163168
5.42101e-20 0.0232456 0.000558713 7.37983e-08
0 -0.0227558 0.00479301 1.14993e-05
2.71051e-20 0.0227558 0.00479309 8.14312e-10
-2.82344e-22 -0.0231485 0.00241746 1.42274e-05
1.41172e-21 0.0231485 0.00241748 5.27024e-09
-1.35525e-20 -0.0231146 0.00307521 9.13279e-06
-1.35525e-20 0.0231146 0.00307523 2.28464e-09
-9.03502e-21 -0.0226734 0.00554801 3.18937e-05
3.01167e-21 0.0226735 0.00554813 7.61791e-09
-7.52918e-22 -0.023097 0.00377997 9.03201e-06
-3.01167e-21 0.023097 0.00377998 1.07299e-09
-2.25875e-21 -0.0230771 0.00445736 1.07446e-05
5.64689e-21 0.0230771 0.0044574 6.93099e-10
-2.71051e-20 -0.0233412 0.0028426 1.04679e-05
-2.71051e-20 0.0233412 0.0028426 2.99659e-09
0 -0.023307 0.00329649 9.48837e-06
0 0.023307 0.00329652 1.94571e-09
0 -0.0227839 0.00593188 3.99728e-05
0 0.0227842 0.005932 7.63036e-09
-1.35525e-20 -0.0228491 0.00586247 3.98294e-05
2.71051e-20 0.0228493 0.00586268 7.78487e-09
0 -0.0230321 0.00515831 2.01579e-05
-6.77626e-21 0.0230321 0.00515843 2.80398e-09
0 -0.0229107 0.00599969 4.26496e-05
0 0.0229108 0.00599972 9.21215e-09
-9.03502e-22 -0.02307 0.00562156 3.35407e-05
-4.06576e-21 0.0230702 0.00562164 6.06885e-09
-1.35525e-20 0.02375 -2.49915e-18 7.4924e-08
0 -0.02375 -2.47639e-18 0.000167402
0 0.02375 0.000110979 7.51611e-08
1.35525e-20 -0.02375 0.000110935 0.000167506
5.42101e-20 -0.0234167 0.00409121 1.0141e-05
2.71051e-20 0.0234167 0.00409123 8.00698e-10
0 -0.0233771 0.00479107 1.27752e-05
2.71051e-20 0.0233771 0.00479113 5.50374e-10
-4.51751e-21 -0.0238362 0.00114849 0.000101691
-2.25875e-21 0.0238362 0.00114849 4.49892e-08
1.35525e-20 -0.0238811 -1.06907e-19 0.000167921
1.35525e-20 0.0238811 -1.06945e-19 7.79832e-08
3.38813e-21 0.0231249 0.00611537 1.13312e-08
-1.35525e-20 -0.0231251 0.00611547 5.20175e-05
2.25875e-21 -0.0238207 0.00236089 2.13268e-05
-6.77626e-21 0.0238207 0.0023609 6.9158e-09
-2.11758e-22 0.02375 0.00306544 2.62272e-09
-4.23516e-22 -0.0237501 0.00306211 1.17568e-05
-1.69407e-20 -0.0231675 0.00613814 5.28638e-05
2.03288e-20 0.0231678 0.00613837 1.14816e-08
0 -0.0239958 0.00011363 0.000171058
1.35525e-20 0.0239958 0.00011366 7.62029e-08
0 -0.0240047 8.64198e-21 0.000171087
0 0.0240047 8.57257e-21 7.60142e-08
0 -0.023258 0.00596075 4.96354e-05
-9.03502e-21 0.0232581 0.00596091 1.05705e-08
0 -0.0233938 0.00541142 2.20028e-05
2.71051e-20 0.0233939 0.00541149 1.46317e-09
5.64689e-22 -0.0237525 0.00364843 1.16364e-05
4.70574e-22 0.0237525 0.00364849 1.43204e-09
-2.25875e-21 -0.0237062 0.00443804 1.29705e-05
2.25875e-21 0.0237062 0.00443807 7.02361e-10
-1.35525e-20 -0.0233932 0.00626093 5.04229e-05
-2.71051e-20 0.0233933 0.00626104 1.08006e-08
4.51751e-21 -0.0236906 0.00510851 1.84132e-05
-4.51751e-21 0.0236906 0.00510857 8.79499e-10
-2.71051e-20 -0.0235127 0.00635105 5.05764e-05
6.77626e-21 0.0235127 0.00635107 1.07769e-08
0 -0.0235683 0.00620582 5.02636e-05
-1.35525e-20 0.0235682 0.00620594 1.05981e-08
2.71051e-20 -0.0240297 0.00408464 1.31818e-05
0 0.0240297 0.00408466 9.37551e-10
1.50584e-21 -0.0236813 0.00581876 3.81127e-05
3.76459e-22 0.0236814 0.0058188 6.11926e-09
0 -0.0240098 0.00476747 1.57209e-05
-2.71051e-20 0.0240099 0.0047675 5.18859e-10
0 -0.0244727 0.00057972 0.000175663
-5.42101e-20 0.0244727 0.000579721 7.89368e-08
0 -0.0244408 0.00176631 3.79714e-05
0 0.0244408 0.00176631 1.22003e-08
0 -0.0236698 0.00645559 4.98185e-05
-3.38813e-21 0.0236701 0.00645581 1.02969e-08
3.38813e-21 -0.0237098 0.00644176 4.96157e-05
0 0.0237098 0.00644204 1.01735e-08
0 -0.02371 0.00648353 4.92975e-05
3.38813e-21 0.02371 0.00648359 1.0012e-08
-5.42101e-20 -0.0243888 0.00306491 1.58628e-05
0 0.0243888 0.00306491 3.06342e-09
0 -0.0239955 0.00544041 2.28317e-05
-2.71051e-20 0.0239956 0.00544047 9.317e-10
-3.38813e-21 0.02375 0.00643543 9.737e-09
0 -0.0237501 0.00643512 4.87226e-05
0 0.02375 0.00647616 9.88766e-09
3.38813e-21 -0.0237501 0.00647607 4.9209e-05
0 0.02375 0.00651289 9.695e-09
0 -0.0237501 0.00651298 4.89636e-05
0 -0.0243624 0.00373227 1.54411e-05
-3.38813e-22 0.0243624 0.00373228 1.57469e-09
-9.03502e-21 -0.0239088 0.00623545 4.77693e-05