# k  POINT_DATA 27749
# x  y  z  k
0.014142 -1.35525e-20 8.4025e-08 1.60221e-10
-0.014142 1.35525e-20 8.4025e-08 2.14482e-06
0.014142 3.38813e-21 0.000246007 1.59578e-10
-0.014142 -3.38813e-21 0.000246007 2.1899e-06
0.014142 1.01644e-20 0.000413834 1.86496e-10
-0.014142 -1.01644e-20 0.000413834 2.40713e-06
-0.014142 0 0.000659755 2.99957e-06
0.014142 0 0.000659755 2.65126e-10
-0.014142 -1.01644e-20 0.000918788 3.80022e-06
0.014142 6.77626e-21 0.000918788 3.46312e-10
-0.014142 1.01644e-20 0.00109554 3.95102e-06
0.014142 0 0.00109554 3.74445e-10
-0.014142 1.35525e-20 0.00135458 3.59309e-06
0.014142 1.35525e-20 0.00135458 3.74652e-10
-0.014142 0 0.00162764 3.49348e-06
0.014142 -1.01644e-20 0.00162764 3.75093e-10
-0.014253 1.35525e-20 0.000123989 2.16672e-06
0.014253 1.35525e-20 0.000123987 1.59923e-10
-0.0142541 0 8.84505e-08 2.16689e-06
0.0142541 0 8.84502e-08 1.5992e-10
-0.014142 3.38813e-21 0.00181395 3.66835e-06
0.014142 3.38813e-21 0.00181395 3.95247e-10
-0.014253 0 0.000533572 2.69687e-06
0.014253 0 0.000533572 2.25616e-10
-0.0142487 0 0.000779064 3.41622e-06
0.0142487 0 0.000779064 3.07976e-10
0.014142 -1.35525e-20 0.002087 4.78927e-10
-0.014142 1.35525e-20 0.002087 4.38831e-06
0.0142487 0 0.00120336 3.75508e-10
-0.0142487 -1.35525e-20 0.00120336 3.7782e-06
0.0142431 -1.35525e-20 0.0014498 3.75812e-10
-0.0142431 -1.35525e-20 0.0014498 3.53719e-06
0.0142431 -1.35525e-20 0.00188515 4.22905e-10
-0.0142431 -1.35525e-20 0.00188515 3.94581e-06
-0.014375 0 9.00162e-08 3.22131e-06
0.014375 2.71051e-20 9.00164e-08 3.23636e-10
-0.014375 -2.71051e-20 0.000646675 3.13938e-06
0.014375 1.35525e-20 0.000646674 3.15503e-10
-0.0142629 6.77626e-21 0.00213232 4.33828e-06
0.0142629 6.77626e-21 0.00213231 4.76366e-10
-0.0142993 0 0.00204071 4.31773e-06
0.0142993 0 0.00204071 4.69527e-10
0.0143912 0 0.00158933 3.77716e-10
-0.0143912 -1.35525e-20 0.00158933 3.27643e-06
-0.014375 -1.35525e-20 0.00187889 3.5036e-06
0.014375 6.77626e-21 0.00187888 3.74392e-10
0.0144893 -1.35525e-20 0.000866117 3.7661e-10
-0.0144893 8.13152e-21 0.00086612 3.68069e-06
0.0144695 -9.03502e-21 0.00125597 2.85587e-10
-0.0144695 6.77626e-21 0.00125597 2.69061e-06
-0.014375 0 0.00217431 4.83653e-06
0.014375 0 0.00217432 5.84807e-10
-0.0145461 4.51751e-21 0.000325662 3.08352e-06
0.0145461 6.77626e-21 0.000325655 3.07643e-10
-0.0145532 -2.71051e-20 9.53759e-08 3.24621e-06
0.0145533 1.35525e-20 9.53758e-08 3.33325e-10
-0.0145148 1.35525e-20 0.00222669 5.45656e-06
0.0145148 -1.35525e-20 0.00222669 6.10314e-10
0.0146056 -1.35525e-20 0.0016502 3.13618e-10
-0.0146056 -5.80823e-21 0.0016502 2.77905e-06
0.0145854 4.23516e-22 0.00195226 4.99685e-10
-0.0145817 -9.74088e-21 0.00195131 5.19946e-06
0.0145839 -1.86347e-20 0.00196242 5.04934e-10
-0.0145839 1.60936e-20 0.00196242 5.23906e-06
-0.0147323 0 1.05322e-07 5.11336e-06
0.0147323 2.71051e-20 1.05321e-07 6.57341e-10
0.0147152 0 0.000924056 2.45982e-10
-0.0147152 4.51751e-21 0.000924061 2.40211e-06
-0.0145873 0 0.00225387 5.43975e-06
0.0145873 0 0.00225387 7.29064e-10
0.014694 -2.25875e-21 0.00145649 1.91828e-10
-0.014694 2.25875e-21 0.0014565 1.84321e-06
-0.0148203 -1.35525e-20 0.000134167 6.07513e-06
0.0148203 1.35525e-20 0.000134156 7.85145e-10
-0.0148273 0 9.52383e-08 6.04457e-06
0.0148274 -1.35525e-20 9.52384e-08 7.82881e-10
-0.0148725 0 9.04372e-08 6.30176e-06
0.0148726 0 9.04377e-08 9.01305e-10
-0.0148701 1.29072e-21 0.000655711 3.79368e-06
0.0148701 1.19391e-20 0.000655709 5.10071e-10
0.0148453 4.01556e-21 0.0012075 1.84052e-10
-0.0148453 -3.26265e-21 0.00120751 1.67113e-06
0.0147327 4.06576e-20 0.00230835 8.6762e-10
-0.0147327 0 0.00230836 6.21611e-06
0.0148279 -3.01167e-21 0.00162721 2.57916e-10
-0.0148279 1.50584e-21 0.00162722 2.21924e-06
-0.015 0 7.9027e-08 7.63444e-06
0.015 0 7.90279e-08 1.23461e-09
-0.015 1.35525e-20 0.000133994 7.72165e-06
0.015 -1.35525e-20 0.000133987 1.25403e-09
-0.014972 -1.12938e-21 0.00204137 6.21114e-06
0.014972 0 0.00204135 8.79578e-10
-0.015 1.69407e-21 0.00224825 6.46838e-06
0.015 -1.69407e-21 0.00224824 9.8678e-10
0.015 -3.38813e-21 0.00240854 1.04574e-09
-0.015 0 0.00240855 6.47738e-06
-0.0150379 0 0.00242273 6.44385e-06
0.0150379 -3.38813e-21 0.00242272 1.05666e-09
-0.0152272 -2.71051e-21 0.000388387 8.53084e-06
0.0152272 8.13152e-21 0.000388387 1.46063e-09
0.0152252 4.51751e-21 0.000912537 3.17149e-10
-0.0152252 -4.51751e-21 0.000912539 2.20198e-06
0.0151964 -1.35525e-20 0.0015087 1.78873e-10
-0.0151964 0 0.0015087 1.3809e-06
0.0151247 0 0.00245524 1.1058e-09
-0.0151247 -3.38813e-21 0.00245526 6.54737e-06
0.0153317 0 0.000145238 1.75857e-09
-0.0153317 0 0.000145213 1.02701e-05
0.0153419 -1.35525e-20 1.97573e-08 1.75309e-09
-0.015342 2.71051e-20 1.97534e-08 1.02543e-05
-0.0154305 2.71051e-20 0.000610782 6.37261e-06
0.0154305 2.71051e-20 0.00061078 1.01068e-09
-0.0154188 -2.71051e-20 0.00121423 1.50423e-06
0.0154188 -2.71051e-20 0.00121423 1.9826e-10
0.0154797 0 7.97399e-09 1.85388e-09
-0.0154797 0 7.97114e-09 1.13155e-05
-0.0152781 0 0.00251266 6.73698e-06
0.0152781 6.77626e-21 0.00251265 1.16578e-09
0.0153765 -2.71051e-20 0.00187062 4.50179e-10
-0.0153765 0 0.00187063 3.17571e-06
-0.0153109 0 0.00240206 6.64653e-06
0.0153109 3.38813e-21 0.00240203 1.1603e-09
-0.01538 0 0.00228673 6.46115e-06
0.01538 0 0.00228672 1.11937e-09
-0.015625 -1.35525e-20 7.20976e-09 1.29669e-05
0.015625 2.71051e-20 7.21205e-09 2.17006e-09
-0.015625 1.35525e-20 0.000148486 1.30944e-05
0.015625 -2.71051e-20 0.000148511 2.19305e-09
0.0154678 0 0.00258382 1.13568e-09
-0.0154678 -1.35525e-20 0.00258382 6.74874e-06
-0.0157807 0 0.000401201 1.3004e-05
0.0157807 0 0.000401193 2.20894e-09
0.0157688 4.51751e-21 0.000915445 5.36093e-10
-0.0157688 -2.25875e-21 0.000915445 3.25384e-06
-0.0157417 0 0.00155269 1.45131e-06
0.0157417 9.03502e-21 0.00155269 1.95147e-10
0.015655 -8.47033e-22 0.00231454 8.89737e-10
-0.015655 0 0.00231454 5.38393e-06
-0.015625 -1.35525e-20 0.00255476 6.51303e-06
0.015625 0 0.00255477 1.0554e-09
-0.015625 -2.03288e-20 0.00264258 6.51965e-06
0.015625 1.35525e-20 0.00264259 1.03429e-09
-0.0157494 0 0.00207287 2.87994e-06
0.0157494 -4.51751e-21 0.00207287 4.18029e-10
0.0159401 0 0.00015337 2.79603e-09
-0.0159401 1.35525e-20 0.000153353 1.64123e-05
0.0159518 -1.35525e-20 6.42218e-09 2.79467e-09
-0.0159518 1.35525e-20 6.42132e-09 1.64038e-05
-0.0157606 0 0.00269322 6.73732e-06
0.0157606 -4.06576e-20 0.00269323 1.03764e-09
-0.0158013 0 0.00253026 6.66994e-06
0.0158014 -1.0842e-20 0.00253027 1.06233e-09
-0.0161003 2.71051e-20 5.64398e-09 1.73549e-05
0.0161003 0 5.64433e-09 2.90421e-09
-0.0160453 2.71051e-20 0.00191535 2.68734e-06
0.0160453 0 0.00191536 4.12512e-10
-0.0159592 2.71051e-20 0.00276747 9.37631e-06
0.0159593 -2.71051e-20 0.00276748 1.67431e-09
-0.0161558 -1.16165e-20 0.00116884 2.49525e-06
0.0161558 0 0.00116884 3.70317e-10
-0.0161993 9.03502e-21 0.00060793 1.07662e-05
0.0161993 -1.35525e-20 0.000607927 1.74765e-09
-0.0160501 1.35525e-20 0.00232589 4.8366e-06
0.0160502 -2.25875e-21 0.00232591 7.56495e-10
-0.01625 1.35525e-20 4.91538e-09 1.8596e-05
0.01625 0 4.91559e-09 3.03443e-09
-0.01625 1.35525e-20 0.000141083 1.85809e-05
0.01625 -1.35525e-20 0.000141098 3.0327e-09
-0.0162998 0 0.00156752 1.63281e-06
0.0162998 4.51751e-21 0.00156752 2.44145e-10
-0.0164197 -2.71051e-20 0.00030492 2.00242e-05
0.0164197 -2.71051e-20 0.000304919 3.22701e-09
-0.0164161 0 0.000921642 3.34485e-06
0.0164161 0 0.000921642 5.11601e-10
-0.0163188 -5.42101e-21 0.0021118 2.47437e-06
0.0163188 0 0.00211181 3.47369e-10
-0.01625 1.69407e-20 0.00287738 1.17469e-05
0.0162501 -3.38813e-20 0.00287742 1.95184e-09
-0.0162993 2.03288e-20 0.00289583 1.20537e-05
0.0162996 -3.04932e-20 0.00289591 2.02672e-09
-0.0163583 -9.03502e-21 0.00265284 1.06179e-05
0.0163584 -4.51751e-21 0.00265289 1.78984e-09
0.0165943 1.35525e-20 2.17698e-09 3.40176e-09
-0.0165944 1.35525e-20 2.17674e-09 2.11438e-05
0.0165962 0 0.000135304 3.40205e-09
-0.0165962 1.35525e-20 0.000135291 2.11428e-05
-0.0167375 -1.35525e-20 1.46121e-09 2.17787e-05
0.0167375 0 1.4613e-09 3.57919e-09
0.0167399 -2.25875e-21 0.000605599 2.08535e-09
-0.0167399 4.51751e-21 0.000605601 1.30714e-05
-0.0167337 -2.25875e-21 0.00124418 2.70474e-06
0.0167337 6.77626e-21 0.00124418 3.90142e-10
-0.0167344 6.77626e-21 0.00188858 1.83125e-06
0.0167344 0 0.00188859 2.81953e-10
-0.0165907 0 0.00300593 1.24256e-05
0.0165909 -2.71051e-20 0.00300602 2.74699e-09
-0.016875 -1.35525e-20 1.28942e-09 2.27563e-05
0.016875 0 1.28949e-09 3.73267e-09
-0.016875 0 0.000125675 2.27294e-05
0.016875 0 0.000125687 3.72831e-09
-0.0167222 -4.51751e-21 0.00239131 5.33593e-06
0.0167222 -4.51751e-21 0.00239136 9.91007e-10
-0.017064 2.71051e-20 0.000300568 2.39283e-05
0.017064 0 0.000300568 3.91455e-09
-0.0170695 2.71051e-20 0.000918299 4.73451e-06
0.0170695 0 0.0009183 6.35335e-10
-0.0168154 2.71051e-20 0.00309174 1.5158e-05
0.0168157 2.03288e-20 0.00309186 3.70485e-09
-0.0170662 0 0.00156961 1.5327e-06
0.0170662 0 0.00156962 2.45103e-10
-0.016875 3.38813e-21 0.00300896 1.53309e-05
0.0168752 -1.01644e-20 0.00300917 3.74e-09
-0.016875 0 0.00311456 1.49362e-05
0.0168752 -3.38813e-21 0.00311463 3.73278e-09
-0.0169679 3.38813e-21 0.00280953 1.37851e-05
0.0169681 -5.64689e-21 0.00280961 3.3043e-09
-0.0170644 0 0.00223096 2.38851e-06
0.0170645 2.71051e-20 0.00223098 4.31265e-10
0.0172527 0 5.17857e-10 4.12692e-09
-0.0172527 1.35525e-20 5.17799e-10 2.47504e-05
0.0172567 1.35525e-20 0.000116554 4.12702e-09
-0.0172567 -1.35525e-20 0.000116543 2.47463e-05
-0.0173799 0 3.52934e-10 2.48527e-05
0.0173799 -2.71051e-20 3.52963e-10 4.21849e-09
-0.0170892 -4.06576e-20 0.00319641 1.33668e-05
0.0170896 0 0.00319653 3.62972e-09
0.0173909 -4.51751e-21 0.000597247 2.49381e-09
-0.0173909 4.51751e-21 0.000597247 1.5296e-05
-0.0173956 4.51751e-21 0.00123449 3.58984e-06
0.0173956 4.51751e-21 0.00123449 5.13956e-10
-0.017391 -2.25875e-21 0.00191093 2.08131e-06
0.017391 4.51751e-21 0.00191095 3.58422e-10
-0.0175 0 3.17182e-10 2.53877e-05
0.0175 0 3.17204e-10 4.33284e-09
-0.0175 -1.35525e-20 0.000105668 2.53714e-05
0.0175 0 0.000105677 4.32919e-09
-0.0172483 0 0.00325639 1.17606e-05
0.0172486 1.35525e-20 0.00325649 3.68521e-09
-0.0172989 0 0.00309098 1.21231e-05
0.0172992 -2.71051e-20 0.00309115 3.64365e-09
-0.0174288 -2.25875e-21 0.00267373 7.70971e-06
0.0174289 -7.90564e-21 0.00267377 1.9607e-09
-0.0177102 0 0.000293773 2.62038e-05
0.0177102 2.71051e-20 0.000293773 4.54811e-09
0.0177221 0 0.000903907 8.00675e-10
-0.0177221 0 0.000903906 5.92922e-06
-0.0174579 0 0.00333599 1.17569e-05
0.0174583 1.69407e-21 0.00333616 3.53733e-09
-0.017725 0 0.00155852 2.10914e-06
0.017725 -2.71051e-20 0.00155853 3.64183e-10
-0.0174806 1.69407e-21 0.00332679 1.17916e-05
0.0174809 -1.69407e-21 0.00332701 3.52087e-09
-0.0174846 1.69407e-21 0.00334611 1.1816e-05
0.0174848 0 0.00334621 3.51098e-09
-0.0175001 1.69407e-21 0.00332516 1.16745e-05
0.0175002 0 0.00332539 3.45638e-09
-0.0175001 1.69407e-21 0.00334303 1.17616e-05
0.0175002 1.69407e-21 0.00334314 3.48462e-09
-0.0175001 0 0.00335193 1.17348e-05
0.0175002 0 0.00335199 3.47437e-09
-0.0177115 0 0.00226131 2.27637e-06
0.0177116 0 0.00226134 3.91259e-10
-0.0176371 -4.51751e-21 0.00307402 1.16594e-05
0.0176373 -9.03502e-21 0.0030741 3.30309e-09
-0.0176475 -1.35525e-20 0.0030783 1.15736e-05
0.0176477 0 0.00307838 3.26012e-09
0.0179213 1.35525e-20 8.77497e-11 4.75885e-09
-0.0179213 0 8.77386e-11 2.6501e-05
0.0179253 0 9.30043e-05 4.75967e-09
-0.0179253 -1.35525e-20 9.29966e-05 2.64972e-05
-0.0180268 1.35525e-20 5.44518e-11 2.62333e-05
0.0180268 0 5.44566e-11 4.88869e-09
0.018041 -4.51751e-21 0.000581563 2.97355e-09
-0.018041 2.25875e-21 0.000581564 1.65894e-05
-0.0180514 2.25875e-21 0.00121334 4.50507e-06
0.0180514 2.25875e-21 0.00121334 7.79686e-10
-0.0177861 1.35525e-20 0.00345972 1.09136e-05
0.0177863 -1.35525e-20 0.00345982 3.33279e-09
-0.0181253 -1.35525e-20 4.99496e-11 2.65015e-05
0.0181253 -1.35525e-20 4.99535e-11 4.93011e-09
-0.0181254 0 8.36291e-05 2.64995e-05
0.0181254 0 8.36356e-05 4.92876e-09
-0.0180445 -1.88079e-37 0.00190369 2.37931e-06
0.0180446 1.12938e-21 0.0019037 4.62272e-10
-0.0178475 1.35525e-20 0.00338392 1.10353e-05
0.0178477 1.35525e-20 0.00338406 3.41703e-09
-0.0180113 2.25875e-21 0.0026365 5.01921e-06
0.0180114 -4.51751e-21 0.00263657 1.25923e-09
-0.0179205 -2.71051e-20 0.00351035 1.13831e-05
0.0179207 0 0.00351043 4.09188e-09
-0.0180604 9.03502e-22 0.00312046 8.64799e-06
0.0180605 1.35525e-21 0.00312054 2.73149e-09
-0.0183552 0 0.000282486 2.67855e-05
0.0183552 0 0.000282486 5.14337e-09
-0.0183705 0 0.000877851 6.95839e-06
0.0183705 2.71051e-20 0.000877851 1.25859e-09
-0.0183762 0 0.00153194 2.93704e-06
0.0183762 0 0.00153194 6.61014e-10
-0.018125 -6.77626e-21 0.00358731 1.19874e-05
0.0181251 6.77626e-21 0.00358737 4.914e-09
-0.0183607 -2.71051e-20 0.00224075 2.19199e-06
0.0183607 2.71051e-20 0.00224079 4.2195e-10
-0.0182327 -3.38813e-20 0.00362784 1.18702e-05
0.0185903 -6.77626e-21 1.14543e-11 4.86332e-09
-0.0185903 6.77626e-21 1.14531e-11 2.64547e-05
0.0182331 -2.03288e-20 0.00362801 5.09912e-09
0.0185922 6.77626e-21 7.01706e-05 4.86193e-09
-0.0185923 0 7.01645e-05 2.64528e-05
-0.0182779 -4.51751e-21 0.00344862 1.16732e-05
0.0182781 4.51751e-21 0.00344876 4.73227e-09
-0.0183893 -2.71051e-20 0.00288179 3.25129e-06
0.0183895 0 0.00288187 7.45515e-10
-0.0186731 0 7.47954e-12 2.60019e-05
0.0186731 1.35525e-20 7.47989e-12 4.9842e-09
0.0186856 -2.25875e-21 0.000557205 3.54064e-09
-0.0186856 0 0.000557205 1.70538e-05
-0.0187005 2.25875e-21 0.00117605 5.70005e-06
0.0187005 -2.25875e-21 0.00117605 1.69948e-09
-0.01875 0 6.97676e-12 2.60709e-05
0.01875 0 6.97711e-12 4.4518e-09
-0.01875 0 6.37614e-05 2.60712e-05
0.01875 0 6.3763e-05 4.45228e-09
-0.0186963 5.64689e-21 0.00186483 2.99119e-06
0.0186963 -2.25875e-21 0.00186484 8.55417e-10
-0.0184518 -1.35525e-20 0.00371033 1.08618e-05
0.0184522 1.35525e-20 0.00371046 5.05889e-09
-0.0186925 2.25875e-21 0.00255914 2.59587e-06
0.0186926 0 0.00255918 6.4073e-10
-0.0185639 1.35525e-20 0.00375412 1.03733e-05
0.0185642 2.71051e-20 0.00375424 5.1745e-09
-0.0185985 1.35525e-20 0.00364673 1.04821e-05
0.0185988 0 0.0036469 5.11246e-09
-0.0187019 7.52918e-22 0.00326239 7.24638e-06
0.0187021 3.76459e-22 0.00326248 3.0069e-09
-0.0189931 0 0.000266634 2.57397e-05
0.0189931 -5.42101e-20 0.000266631 4.17601e-09
-0.0190119 -2.71051e-20 0.000838831 8.17389e-06
0.0190119 0 0.000838832 3.22357e-09
-0.0190242 0 0.00148406 4.56107e-06
0.0190242 0 0.00148407 1.54672e-09
-0.01875 0 0.00382122 1.01562e-05
0.0187502 0 0.00382131 5.04756e-09
-0.0190149 2.71051e-20 0.0021878 2.32448e-06
0.019015 0 0.00218782 7.86662e-10
-0.0188263 0 0.00385065 1.00909e-05
0.0188267 6.77626e-21 0.00385081 5.18007e-09
-0.0190109 -2.71051e-20 0.00288329 2.56602e-06
0.019011 2.71051e-20 0.00288335 6.11059e-10
-0.0188705 6.77626e-21 0.00377231 1.01674e-05
0.0188709 -6.77626e-21 0.0037723 5.22561e-09
0.0192614 6.77626e-21 9.27668e-13 6.6009e-09
-0.0192614 -6.77626e-21 9.27592e-13 2.48894e-05
0.0192616 0 4.56629e-05 6.60208e-09
-0.0192616 -6.77626e-21 4.56581e-05 2.48892e-05
-0.01896 3.01167e-21 0.00363203 9.77844e-06
0.0189603 7.52918e-21 0.00363218 5.00814e-09
-0.0193175 0 5.50543e-13 2.47249e-05
0.0193175 0 5.5057e-13 7.67018e-09
-0.0189237 1.35525e-20 0.00389016 1.00272e-05
0.0189243 -1.35525e-20 0.00389043 5.24855e-09
-0.019323 0 0.000517722 1.75041e-05
0.019323 -1.12938e-21 0.000517722 9.04789e-09
-0.0193664 -6.77626e-21 3.85536e-05 2.48288e-05
0.0193665 0 3.85621e-05 8.17566e-09
-0.0193681 0 5.3174e-13 2.48261e-05
0.0193681 0 5.31759e-13 8.12727e-09
0.0193603 -2.03288e-21 0.00110959 7.77894e-09
-0.0193603 6.77626e-22 0.00110959 7.9731e-06
-0.0193498 5.64689e-22 0.00179964 3.94882e-06
0.0193499 1.12938e-21 0.00179965 2.03351e-09
-0.0193334 0 0.00252257 2.48462e-06
0.0193335 0 0.0025226 9.66768e-10
-0.019126 0 0.00398495 9.83014e-06
0.0191265 0 0.00398518 5.14403e-09
-0.0191704 1.35525e-20 0.00393584 9.90111e-06
0.0191709 0 0.0039361 5.23317e-09
-0.0193002 -6.77626e-21 0.00324573 4.72497e-06
0.0193003 4.51751e-21 0.00324584 2.02417e-09
-0.0196204 0 0.000237248 2.39748e-05
0.0196204 -2.71051e-20 0.000237249 1.05763e-08
-0.0192183 1.35525e-20 0.00403232 1.03991e-05
0.0192187 0 0.00403252 5.95958e-09
-0.0196558 -2.71051e-20 0.00077133 1.12853e-05
0.0196558 2.71051e-20 0.000771332 1.68838e-08
-0.0196989 3.38813e-21 2.94745e-13 2.74209e-05
0.0196991 -3.38813e-21 2.94591e-13 6.08672e-08
-0.0193646 0 0.00369144 7.6021e-06
0.0193648 1.01644e-21 0.00369158 4.01884e-09
-0.0196876 -2.71051e-20 0.0013927 6.51977e-06
0.0196877 -2.71051e-20 0.0013927 4.04165e-09
-0.0196589 2.71051e-20 0.00213409 2.53404e-06
0.0196589 0 0.00213411 1.80175e-09
-0.0193749 -1.35525e-20 0.00398198 1.09638e-05
0.0193751 0 0.00398219 6.59665e-09
-0.0193749 -6.77626e-21 0.00411562 1.13547e-05
0.0193752 -1.35525e-20 0.00411575 7.10282e-09
-0.0196511 5.42101e-20 0.00284955 2.50991e-06
0.0196512 -2.71051e-20 0.0028496 7.10414e-10
-0.0199546 2.48463e-21 0.000463658 2.42045e-05
0.0199546 1.58113e-21 0.000463658 8.38266e-08
-0.0196745 0 0.00348132 2.79049e-06
0.0196747 2.71051e-20 0.00348143 1.05546e-09
-0.0195416 1.35525e-20 0.00420424 1.16087e-05
0.0195422 2.03288e-20 0.00420454 7.63433e-09
-0.0199999 0 3.09743e-13 2.89255e-05
-0.0199999 6.77626e-21 2.95891e-05 2.89666e-05
0.02 0 3.09472e-13 9.7266e-08
0.02 6.77626e-21 2.95641e-05 9.78353e-08
-0.0199999 -6.77626e-21 0.000221014 2.66335e-05
0.02 -6.77626e-21 0.000220906 9.19122e-08
-0.0200415 -6.77626e-21 5.2324e-14 2.94436e-05
0.0200415 0 5.22712e-14 1.03237e-07
-0.0196493 1.89735e-20 0.00406163 1.12089e-05
0.0196497 1.0842e-20 0.0040619 7.19026e-09
0.0200712 -6.77626e-21 2.48852e-05 9.94842e-08
-0.0200712 6.77626e-21 2.49059e-05 2.8868e-05
-0.0199944 -4.23516e-22 0.00178836 5.09527e-06
0.0199945 2.82344e-22 0.00178812 4.6994e-09
0.0200746 6.77626e-21 3.09659e-14 9.88204e-08
-0.0200747 6.77626e-21 3.10016e-14 2.88063e-05
-0.0200905 2.25875e-21 0.000960743 1.81586e-05
0.0200905 6.77626e-21 0.000960747 5.29096e-08
-0.0200183 9.68038e-22 0.00244899 2.88106e-06
0.0200184 4.84019e-22 0.00244904 2.21536e-09
-0.0197167 0 0.00429743 1.10077e-05
0.0197172 1.35525e-20 0.00429767 7.4396e-09
0.0201821 0 1.06913e-14 1.19287e-07
-0.0201822 0 1.0702e-14 3.05592e-05
-0.0199681 5.64689e-22 0.00317467 2.67734e-06
0.0199682 -1.12938e-21 0.00317474 1.02523e-09
-0.0198179 1.35525e-20 0.00435132 1.09789e-05
0.0198183 0 0.00435153 7.55471e-09
-0.0198553 0 0.0042445 1.09503e-05
0.0198557 1.35525e-20 0.00424476 7.47641e-09
-0.0199718 -3.76459e-22 0.00386197 7.28916e-06
0.0199721 7.52918e-22 0.0038621 4.41275e-09
-0.0204272 -4.51751e-21 0.00031079 3.19495e-05
0.0204272 0 0.000310794 1.79869e-07
-0.0204209 0 0.00146752 8.05527e-06
0.0204209 0 0.00146751 9.00059e-09
-0.0202843 -2.71051e-20 0.0028234 2.68959e-06
0.0202844 -5.42101e-20 0.00282345 1.46306e-09
-0.0199999 0 0.00444833 1.10425e-05
0.0200001 0 0.00444847 7.38257e-09
-0.0204145 2.71051e-20 0.0019651 4.1504e-06
0.0204145 -2.71051e-20 0.00196511 6.14827e-09
0.020525 -2.71051e-20 4.1228e-15 1.77054e-07
-0.0205251 1.35525e-20 4.11913e-15 3.3043e-05
-0.0200605 0 0.00448064 1.10013e-05
0.0200609 0 0.00448086 7.51332e-09
-0.0202767 0 0.00350288 2.70219e-06
0.0202769 2.71051e-20 0.00350297 8.84354e-10
-0.0201022 3.38813e-21 0.00441312 1.09469e-05
0.0201026 0 0.00441316 7.57202e-09
-0.0201274 1.35525e-20 0.00451629 1.13102e-05
0.020128 -6.77626e-21 0.00451661 7.58246e-09
-0.0202113 0 0.00425304 1.02519e-05
0.0202117 2.25875e-21 0.00425325 7.27776e-09
-0.0206625 7.26028e-22 0.00085733 2.99798e-05
0.0206626 0 0.000857304 1.21437e-07
0.0206911 0 7.75388e-16 1.96284e-07
-0.0206911 1.35525e-20 7.66862e-16 4.14122e-05
-0.0206295 0 0.00169559 6.55788e-06
0.0206296 0 0.00169559 9.7628e-09
0.0206304 8.47033e-22 0.00244041 3.59398e-09
-0.0206304 5.64689e-22 0.00244039 3.66628e-06
-0.0205957 1.69407e-21 0.00315759 2.88019e-06
0.0205958 -2.25875e-21 0.00315764 1.35422e-09
-0.0203417 1.35525e-20 0.00463048 1.19187e-05
0.0203423 1.35525e-20 0.00463076 7.41615e-09
-0.0208473 0 0.00142109 8.57739e-06
0.0208474 0 0.00142107 1.72326e-08
-0.0203947 0 0.00457337 1.19688e-05
0.0203952 0 0.00457368 7.56387e-09
-0.0205529 4.51751e-21 0.00387353 5.40029e-06
0.0205531 6.77626e-21 0.00387367 2.94993e-09
-0.0208263 2.71051e-20 0.00194409 5.65821e-06
0.0208264 2.71051e-20 0.00194412 7.81003e-09
0.020952 0 1.83774e-16 3.53716e-07
-0.020952 6.77626e-21 1.79817e-16 5.24258e-05
-0.0209679 8.47033e-22 0.000112156 5.36923e-05
0.020968 8.47033e-22 0.000113077 3.67071e-07
-0.0204458 0 0.00468592 1.29768e-05
-0.020976 1.69407e-20 3.9622e-17 5.36948e-05
0.0209762 0 4.13665e-17 3.63246e-07
0.0204463 0 0.00468616 8.70447e-09
-0.020982 -1.12938e-21 0.000349498 5.33303e-05
0.020982 0 0.000349472 3.42078e-07
-0.0206056 0 0.00432294 9.36687e-06
0.020606 -1.12938e-22 0.00432311 5.85986e-09
-0.020934 -2.71051e-20 0.00277552 3.30779e-06
0.0209341 0 0.00277553 2.27944e-09
-0.0206248 6.77626e-21 0.0047813 1.51968e-05
0.0206252 6.77626e-21 0.00478146 1.05801e-08
-0.0208973 -5.42101e-20 0.00349614 2.83433e-06
0.0208974 0 0.00349622 8.26961e-10
-0.0212499 0 -2.75442e-16 7.04686e-05
0.02125 1.35525e-20 -2.77536e-16 2.71744e-07
-0.0207397 -6.77626e-21 0.00484247 1.58326e-05
0.0207403 0 0.00484278 1.10909e-08
-0.0207849 9.03502e-21 0.00466272 1.47664e-05
0.0207853 -9.03502e-21 0.00466297 1.01807e-08
-0.020919 2.71051e-20 0.00411646 4.16515e-06
0.0209192 -2.71051e-20 0.00411659 1.52248e-09
0.0212543 -5.64689e-22 0.00168707 1.28413e-08
-0.0212543 0 0.00168707 8.37837e-06
-0.0213187 -4.51751e-21 0.000900035 4.91551e-05
0.0213188 7.52918e-22 0.000900008 1.44476e-07
-0.0213462 -2.71051e-20 0.000122217 8.053e-05
0.0213464 -1.35525e-20 0.00012242 3.12165e-07
-0.0213549 0 -2.33939e-18 8.04529e-05
0.0213552 -1.35525e-20 -1.63806e-18 3.14094e-07
-0.0212895 -1.12938e-21 0.00229431 5.51173e-06
0.0212896 -1.12938e-21 0.00229433 6.0228e-09
-0.0214256 0 -2.50254e-16 7.85089e-05
0.0214259 1.35525e-20 -2.51161e-16 3.01158e-07
-0.0212264 1.35525e-21 0.00310849 3.58015e-06
0.0212264 -4.51751e-22 0.00310854 2.19139e-09
-0.0209343 1.35525e-20 0.00494614 1.53022e-05
0.0209347 0 0.00494637 1.07044e-08
-0.0212106 0 0.00381734 3.76335e-06
0.0212108 0 0.00381742 1.16727e-09
-0.0215712 -2.71051e-20 0.00012748 8.38518e-05
0.0215719 -1.35525e-20 0.000127708 2.28357e-07
-0.0216067 -1.35525e-20 1.47709e-16 8.4019e-05
0.0216074 0 1.47411e-16 2.24094e-07
-0.0210472 -1.35525e-20 0.00500632 1.57084e-05
0.0210476 -1.35525e-20 0.00500653 1.08407e-08
-0.0210903 4.06576e-20 0.00488671 1.55127e-05
0.0210906 -2.71051e-20 0.00488695 1.07293e-08
-0.0212076 -3.76459e-22 0.00450561 1.04719e-05
0.0212079 0 0.00450575 6.3231e-09
-0.0215471 2.71051e-20 0.00276785 4.1677e-06
0.0215472 2.71051e-20 0.00276787 3.53157e-09
-0.0215274 0 0.00347138 3.50078e-06
0.0215275 0 0.00347143 1.13404e-09
-0.0212498 3.38813e-21 0.00511424 1.64479e-05
0.0212501 3.38813e-21 0.00511439 1.0526e-08
-0.0212808 0 0.00513076 1.64492e-05
0.0212812 0 0.00513096 1.06122e-08
-0.0213035 3.38813e-21 0.00509491 1.63366e-05
0.0213039 0 0.00509497 1.06595e-08
-0.0215161 0 0.00414681 4.51556e-06
0.0215163 0 0.00414691 1.15265e-09
-0.0213152 -6.77626e-21 0.00514909 1.68821e-05
0.0213157 0 0.00514937 1.0657e-08
-0.0219061 0 0.00171816 1.12825e-05
0.0219062 0 0.00171816 1.3989e-08
-0.0214404 9.03502e-21 0.00489762 1.48372e-05
0.0214407 0 0.00489781 1.01902e-08
-0.0218827 8.47033e-22 0.00243282 6.07771e-06
0.0218828 3.5293e-22 0.00243287 5.87726e-09
-0.0220248 0 0.000514809 0.000105688
0.0220249 5.42101e-20 0.00051481 1.15896e-07
-0.0218548 1.12938e-21 0.0031111 4.34125e-06
0.0218549 -5.64689e-22 0.00311112 2.57256e-09
-0.0218321 -3.38813e-21 0.00380917 4.44528e-06
0.0218322 1.12938e-21 0.00380923 1.17455e-09
-0.0215576 1.35525e-20 0.00527824 1.90902e-05
0.0215581 1.35525e-20 0.00527848 1.03549e-08
-0.021618 1.35525e-20 0.00521392 1.91083e-05
0.0216184 0 0.00521418 1.05963e-08
-0.0217926 0 0.00451283 8.74648e-06
0.0217928 -2.25875e-21 0.00451296 4.00131e-09
-0.0216748 2.71051e-20 0.00534064 2.11303e-05
0.0216752 2.71051e-20 0.00534085 1.23546e-08
-0.0221928 -2.71051e-20 0.002747 5.18254e-06
0.0221928 0 0.00274702 4.0949e-09
-0.0218358 6.77626e-22 0.0049689 1.54934e-05
0.0218361 -4.51751e-22 0.00496905 8.30704e-09
-0.0221555 0 0.0034489 4.49904e-06
0.0221556 0 0.00344894 1.54477e-09
-0.0224999 -1.35525e-20 1.84423e-16 0.000114414
0.0224999 0 1.84066e-16 1.1583e-07
-0.0224999 -2.71051e-20 0.000132933 0.000115499
0.0224999 -2.71051e-20 0.000132958 1.1578e-07
-0.0221425 0 0.00413734 5.23209e-06
0.0221426 0 0.00413741 8.73945e-10
-0.0218748 -6.77626e-21 0.00544721 2.60589e-05
0.0218751 1.01644e-20 0.00544736 1.52288e-08
-0.0225914 -4.51751e-21 0.00111537 7.06449e-05
0.0225915 -4.51751e-21 0.00111537 6.80491e-08
-0.0219453 1.69407e-20 0.00548473 2.68993e-05
0.0219458 1.69407e-20 0.00548498 1.56464e-08
-0.0220187 0 0.00530677 2.49112e-05
0.0220191 0 0.00530698 1.44711e-08
-0.0221556 2.71051e-20 0.00476086 8.38424e-06
0.0221558 2.71051e-20 0.00476098 2.11696e-09
-0.0226679 -2.71051e-20 -7.53412e-18 0.000119578
0.0226681 0 -7.58207e-18 1.3161e-07
-0.0225575 -3.38813e-21 0.00228412 9.73679e-06
0.0225575 -3.38813e-21 0.00228413 8.75092e-09
-0.0224843 5.64689e-22 0.00307682 5.66036e-06
0.0224843 2.82344e-22 0.00307685 3.34827e-09
0.0224597 0 0.00375134 1.40243e-09
-0.0224599 -3.38813e-21 0.00375127 5.45598e-06
0.0225 0 0.00363425 1.7154e-09
-0.0225 1.27055e-21 0.00363494 5.52175e-06
-0.0225051 0 0.00374485 5.5226e-06
0.0225052 -4.23516e-22 0.00374487 1.41643e-09
-0.0225 4.65868e-21 0.00378724 5.62763e-06
0.0225001 -4.23516e-22 0.00378756 1.41794e-09
-0.0228182 0 0.000138953 0.000127426
0.0228183 0 0.000138995 1.19626e-07
-0.0228294 0 -4.61624e-18 0.000127495
0.0228296 2.71051e-20 -4.63904e-18 1.19779e-07
-0.0221583 1.35525e-20 0.00559821 2.60778e-05
0.0221587 -1.35525e-20 0.00559841 1.50212e-08
-0.0225497 -1.27055e-21 0.00374904 5.64389e-06
0.0225501 -4.23516e-22 0.00374909 1.43717e-09
-0.0224518 2.25875e-21 0.00446274 7.39718e-06
0.022452 -2.25875e-21 0.00446282 1.39506e-09
-0.0222812 1.35525e-20 0.00566371 2.69344e-05
0.0222816 -2.71051e-20 0.00566387 1.52287e-08
-0.0223282 -1.35525e-20 0.00553398 2.65193e-05
0.0223285 1.35525e-20 0.00553418 1.50681e-08
-0.0224429 -7.52918e-22 0.00515541 1.86888e-05
0.0224431 2.63521e-21 0.00515553 8.87611e-09
-0.0229083 0 0.002849 7.36217e-06
0.0229083 -5.42101e-20 0.002849 4.7865e-09
-0.0227694 2.71051e-20 0.0041284 6.63403e-06
0.0227695 -2.71051e-20 0.00412845 9.86191e-10
-0.022907 2.71051e-20 0.00330615 6.19353e-06
0.022907 -2.71051e-20 0.00330618 2.56158e-09
-0.0224999 -8.47033e-22 0.00578016 2.90568e-05
0.0225001 0 0.00578025 1.48727e-08
-0.022509 0 0.00578499 2.90629e-05
0.0225093 0 0.00578515 1.49056e-08
-0.0225157 0 0.00577432 2.89897e-05
0.0225161 0 0.00577434 1.49221e-08
-0.0225192 5.0822e-21 0.00579044 2.93029e-05
-0.0231859 -1.0842e-19 0.00175342 1.86338e-05
0.0231859 5.42101e-20 0.00175342 1.6099e-08
0.0225196 -1.01644e-20 0.00579066 1.49397e-08
-0.0232456 0 0.000558692 0.000139324
0.0232457 -5.42101e-20 0.000558711 1.18784e-07
-0.0227557 0 0.00479293 9.21251e-06
0.0227559 -2.71051e-20 0.00479302 1.51908e-09
-0.0231485 8.47033e-22 0.00241751 1.07901e-05
0.0231485 2.5411e-21 0.00241752 8.41161e-09
-0.0231146 0 0.00307521 6.9418e-06
0.0231146 -1.35525e-20 0.00307522 3.79628e-09
-0.0226733 4.51751e-21 0.00554788 2.5945e-05
0.0226736 1.50584e-21 0.00554803 1.40949e-08
-0.023097 7.52918e-22 0.00377993 7.12064e-06
0.023097 0 0.00377995 1.67598e-09
-0.0230771 -2.25875e-21 0.00445731 8.73396e-06
0.0230772 1.12938e-21 0.00445735 1.22802e-09
-0.0233413 0 0.00284259 7.41243e-06
0.0233413 0 0.0028426 4.97505e-09
-0.023307 8.13152e-20 0.00329649 7.15889e-06
0.0233071 2.71051e-20 0.00329651 2.94337e-09
-0.0227839 0 0.00593173 3.43348e-05
0.0227842 0 0.00593191 1.48163e-08
-0.0228491 0 0.00586239 3.41887e-05
0.0228494 1.35525e-20 0.00586258 1.51801e-08
-0.023032 -2.25875e-21 0.00515826 1.65095e-05
0.0230322 4.51751e-21 0.00515836 5.40187e-09
-0.0229106 0 0.00599952 3.6721e-05
0.0229109 2.71051e-20 0.00599968 1.81842e-08
-0.02307 -4.51751e-22 0.00562146 2.82054e-05
0.0230702 9.03502e-22 0.00562158 1.19824e-08
0.02375 1.35525e-20 -2.43292e-18 1.17948e-07
-0.02375 1.35525e-20 -2.41367e-18 0.00014251
0.02375 0 0.000111054 1.17808e-07
-0.02375 0 0.000111013 0.000142602
-0.0234167 -5.42101e-20 0.00409117 8.43378e-06
0.0234167 -2.71051e-20 0.0040912 1.27863e-09
-0.023377 -2.71051e-20 0.00479103 1.05507e-05
0.0233771 -2.71051e-20 0.00479109 1.10337e-09
-0.0238362 -6.77626e-21 0.0011485 8.45128e-05
0.0238362 -2.25875e-21 0.00114851 6.70342e-08
-0.0238811 0 -9.76369e-20 0.000142858
0.0238811 1.35525e-20 -9.76012e-20 1.15349e-07
-0.0231249 0 0.00611529 4.50338e-05
0.0231251 -6.77626e-21 0.00611542 2.31788e-08
-0.0238207 3.38813e-21 0.0023609 1.53085e-05
0.0238207 3.38813e-21 0.00236091 1.06116e-08
0.02375 -4.23516e-22 0.00306544 4.37178e-09
-0.02375 0 0.00306542 8.53136e-06
-0.0231675 2.71051e-20 0.00613811 4.57904e-05
0.0231678 -1.01644e-20 0.00613829 2.36145e-08
-0.0239958 -2.71051e-20 0.000113682 0.000145482
0.0239958 0 0.000113711 1.13677e-07
-0.0240047 -1.35525e-20 1.15233e-20 0.000145498
0.0240048 -1.35525e-20 1.14799e-20 1.13661e-07
-0.0232579 -9.03502e-21 0.00596069 4.28796e-05
0.0232581 0 0.00596085 2.17696e-08
-0.0233938 -2.71051e-20 0.00541135 1.7477e-05
0.023394 2.71051e-20 0.00541144 3.00251e-09
-0.0237524 1.31761e-21 0.00364844 9.23746e-06
0.0237525 -2.5411e-21 0.00364848 2.42012e-09
-0.0237062 -1.12938e-21 0.00443801 1.09203e-05
0.0237062 1.12938e-21 0.00443804 1.36159e-09
-0.0233932 1.35525e-20 0.00626089 4.36169e-05
0.0233933 0 0.00626103 2.27958e-08
-0.0236906 -1.12938e-21 0.00510847 1.50289e-05
0.0236907 0 0.00510853 1.88378e-09
-0.0235126 -2.03288e-20 0.00635102 4.31426e-05
0.0235127 0 0.00635113 2.33027e-08
-0.0235682 -1.35525e-20 0.0062058 4.29944e-05
0.0235683 -2.71051e-20 0.00620594 2.29369e-08
-0.0240297 0 0.00408462 1.10724e-05
0.0240297 0 0.00408465 1.8719e-09
-0.0236813 3.76459e-22 0.00581872 3.2306e-05
0.0236814 3.38813e-21 0.0058188 1.33067e-08
-0.0240098 0 0.00476744 1.35139e-05
0.0240099 -5.42101e-20 0.00476747 1.18362e-09