# kMean  POINT_DATA 14932
# x  y  z  kMean
-1.35525e-20 0.014142 1.6805e-07 8.60574e-07
1.35525e-20 -0.014142 1.6805e-07 3.51972e-06
-3.38813e-21 0.014142 0.00038916 6.92978e-07
6.77626e-21 -0.014142 0.000389158 2.55092e-06
3.38813e-21 0.014142 0.000654608 6.47972e-07
1.35525e-20 -0.014142 0.000654611 2.47842e-06
1.35525e-20 0.014142 0.0010436 6.70873e-07
1.35525e-20 -0.014142 0.0010436 3.03875e-06
3.38813e-21 0.014142 0.00143258 6.79186e-07
-3.38813e-21 -0.014142 0.00143258 3.35389e-06
0 -0.0142373 0.000284209 2.88673e-06
-1.35525e-20 0.0142373 0.000284209 7.60051e-07
-1.01644e-20 0.014142 0.00169802 6.98072e-07
-1.69407e-20 -0.014142 0.00169802 3.97129e-06
2.71051e-20 0.0142373 0.000886385 6.57953e-07
0 -0.0142373 0.000886387 2.72227e-06
6.77626e-21 -0.0142692 1.47356e-07 3.61202e-06
0 0.0142693 1.47356e-07 8.94295e-07
-1.35525e-20 0.0142379 0.00122537 6.75646e-07
0 -0.0142379 0.00122537 3.21839e-06
-1.35525e-20 0.014142 0.002087 7.48222e-07
1.35525e-20 -0.014142 0.002087 5.57968e-06
0 -0.0142973 0.00010195 3.53208e-06
0 0.0142973 0.000101947 8.81305e-07
1.35525e-20 0.0142379 0.00182859 7.18564e-07
0 -0.0142379 0.00182859 4.62144e-06
1.35525e-20 -0.014375 1.30158e-07 4.40056e-06
0 0.014375 1.30158e-07 9.40627e-07
-1.35525e-20 0.0143674 0.000671835 6.51555e-07
0 -0.0143674 0.000671836 2.42121e-06
-6.77626e-21 0.0142627 0.00213224 7.63745e-07
-6.77626e-21 -0.0142627 0.00213225 6.16496e-06
0 0.0142982 0.00203098 7.57701e-07
0 -0.0142982 0.00203099 5.93724e-06
0 0.0143693 0.00147446 6.90091e-07
-2.71051e-20 -0.0143693 0.00147446 3.65571e-06
-4.92819e-21 0.0145076 0.000511139 6.32311e-07
2.4641e-21 -0.0145076 0.000511141 2.36249e-06
0 -0.0145274 1.02816e-07 4.38375e-06
-4.06576e-20 0.0145274 1.02816e-07 9.78222e-07
1.35525e-20 0.014375 0.00217431 7.54611e-07
2.71051e-20 -0.014375 0.00217431 6.09759e-06
0 0.0144982 0.00108838 4.68611e-07
1.12938e-21 -0.0144982 0.00108838 2.04494e-06
3.76459e-22 -0.0145753 0.000290334 3.47504e-06
-5.64689e-22 0.0145754 0.000290329 9.04422e-07
1.23205e-21 0.014511 0.00167594 5.74525e-07
0 -0.014511 0.00167595 3.67032e-06
-2.71051e-20 -0.0146106 8.78837e-08 5.68891e-06
2.71051e-20 0.0146106 8.78835e-08 1.04741e-06
2.71051e-20 0.0145143 0.00222654 7.6141e-07
0 -0.0145144 0.00222654 6.19638e-06
-1.12938e-21 0.0146672 0.000846041 4.14593e-07
1.12938e-21 -0.0146672 0.000846045 1.31888e-06
9.41148e-23 0.0145785 0.00192704 7.496e-07
1.8823e-22 -0.0145785 0.00192707 5.6168e-06
-3.38813e-21 0.0146707 0.00137874 4.22413e-07
2.25875e-21 -0.0146707 0.00137875 1.76928e-06
-2.71051e-20 0.0145865 0.0022536 7.66955e-07
0 -0.0145866 0.00225361 6.78159e-06
1.35525e-20 0.0147491 0.000649276 5.13108e-07
0 -0.0147491 0.000649279 1.86429e-06
-8.47033e-21 0.0147844 0.000655031 5.58945e-07
3.38813e-21 -0.0147844 0.000655034 2.33042e-06
0 0.0147988 0.000871585 3.78182e-07
6.77626e-21 -0.0147988 0.000871591 1.41943e-06
0 0.0147845 0.00117651 3.23808e-07
6.02335e-21 -0.0147845 0.00117652 1.36727e-06
0 0.0147605 0.00160861 4.39506e-07
0 -0.0147605 0.00160862 2.78969e-06
-1.35525e-20 0.0147977 0.00158745 4.229e-07
1.72487e-20 -0.0147977 0.00158746 2.7396e-06
6.77626e-21 -0.0148904 6.18649e-08 6.98671e-06
1.35525e-20 0.0148905 6.18648e-08 1.16251e-06
0 0.0147312 0.00230781 7.99739e-07
0 -0.0147313 0.00230783 7.64943e-06
3.29402e-22 -0.0149957 0.000282608 6.72219e-06
-5.64689e-22 0.0149957 0.00028261 1.14062e-06
2.71051e-20 -0.015 5.89037e-08 8.16287e-06
0 0.015 5.89034e-08 1.24228e-06
2.63521e-21 0.0149668 0.00202068 7.76941e-07
-1.8823e-21 -0.0149669 0.00202069 7.52355e-06
-2.25875e-21 0.0150976 0.000881085 3.71356e-07
-4.51751e-21 -0.0150976 0.00088109 1.56178e-06
1.69407e-21 -0.015 0.00226026 7.90279e-06
1.69407e-21 0.015 0.00226035 7.85658e-07
-2.25875e-21 0.0151055 0.00145482 2.82894e-07
-2.25875e-21 -0.0151055 0.00145483 1.65426e-06
-3.38813e-21 -0.015 0.00240853 7.89117e-06
3.38813e-21 0.015 0.00240854 7.6786e-07
2.37169e-20 0.0150362 0.00242211 7.60797e-07
0 -0.0150362 0.00242211 7.85351e-06
-2.71051e-20 0.01529 2.82762e-08 1.43625e-06
-2.71051e-20 -0.01529 2.82764e-08 1.10299e-05
-3.38813e-21 0.015119 0.00245307 7.40626e-07
3.38813e-21 -0.015119 0.0024531 7.82255e-06
2.71051e-20 0.0153534 0.000582976 8.31523e-07
5.42101e-20 -0.0153534 0.000582978 5.6852e-06
-2.71051e-20 0.0153937 0.00118118 2.90071e-07
0 -0.0153937 0.00118119 1.56237e-06
0 0.0153686 0.00185159 4.59611e-07
-2.71051e-20 -0.0153687 0.00185159 3.98755e-06
-1.35525e-20 0.0152769 0.00251208 7.19816e-07
0 -0.0152769 0.0025121 7.88398e-06
6.77626e-21 0.0153113 0.00239115 7.09475e-07
6.77626e-21 -0.0153113 0.00239115 7.72034e-06
-2.25875e-21 0.015375 0.00227891 7.07301e-07
0 -0.015375 0.00227891 7.60835e-06
2.20229e-20 0.015625 2.01014e-08 1.71072e-06
2.03288e-20 -0.015625 2.01012e-08 1.46655e-05
1.18585e-20 0.0156405 1.9576e-08 1.72192e-06
1.01644e-20 -0.0156405 1.95765e-08 1.48328e-05
1.12938e-21 0.0156636 0.000293521 1.65892e-06
2.25875e-21 -0.0156636 0.000293518 1.41319e-05
-1.35525e-20 -0.0154657 0.00258282 8.30241e-06
0 0.0154657 0.00258282 7.57705e-07
-2.25875e-21 -0.015717 0.000894934 3.11043e-06
-6.77626e-21 0.015717 0.000894932 4.69634e-07
0 0.0157234 0.00153502 2.34812e-07
4.51751e-21 -0.0157234 0.00153501 1.69073e-06
0 -0.015651 0.00230882 6.68805e-06
-8.47033e-22 0.015651 0.00230883 6.37117e-07
-1.35525e-20 0.0156249 0.00255271 7.49842e-07
1.35525e-20 -0.0156249 0.0025527 8.08732e-06
6.77626e-21 0.0156249 0.0026425 7.52892e-07
-6.77626e-21 -0.0156249 0.00264251 8.12462e-06
-9.03502e-21 0.0157441 0.00206315 4.04875e-07
1.35525e-20 -0.0157441 0.00206315 3.69495e-06
2.71051e-20 0.015972 1.09709e-08 1.87144e-06
0 -0.015972 1.09709e-08 1.79809e-05
2.71051e-20 -0.0157578 0.00269219 8.44378e-06
2.71051e-20 0.0157578 0.00269219 7.70588e-07
0 -0.0157985 0.00252729 8.38667e-06
-8.13152e-21 0.0157985 0.0025273 7.68809e-07
-2.71051e-20 0.0160282 0.000587523 1.15739e-06
2.71051e-20 -0.0160282 0.000587524 1.03874e-05
0 0.0160587 0.00121789 3.39448e-07
0 -0.0160587 0.00121789 2.3835e-06
0 0.0160379 0.00190439 3.60785e-07
2.71051e-20 -0.0160379 0.00190438 3.39593e-06
0 -0.0159573 0.00276704 1.1591e-05
0 0.0159573 0.00276704 9.20376e-07
1.12938e-20 -0.0160447 0.00231947 6.21212e-06
-4.51751e-21 0.0160447 0.0023195 5.67547e-07
6.77626e-21 0.01625 8.16826e-09 2.0513e-06
-6.77626e-21 -0.01625 8.16829e-09 2.09332e-05
-2.25875e-21 0.0163415 0.000297249 1.97766e-06
2.25875e-21 -0.0163415 0.000297252 2.03099e-05
6.77626e-21 0.0163888 5.62448e-09 2.12521e-06
-2.03288e-20 -0.0163888 5.62434e-09 2.22498e-05
-2.25875e-21 -0.0163799 0.000909686 5.02882e-06
4.51751e-21 0.0163799 0.000909686 6.21198e-07
-1.6263e-20 0.0163164 0.002107 3.25785e-07
0 -0.0163164 0.00210699 3.2622e-06
-6.77626e-21 -0.0163934 0.00156024 2.03258e-06
2.25875e-21 0.0163934 0.00156024 2.49903e-07
-1.35525e-20 0.0162498 0.00287804 1.06609e-06
2.37169e-20 -0.0162499 0.00287808 1.46135e-05
6.77626e-21 -0.016295 0.00289505 1.49645e-05
-1.01644e-20 0.0162953 0.00289514 1.08314e-06
0 -0.0163557 0.00265169 1.32495e-05
0 0.0163557 0.00265171 9.85842e-07
-2.71051e-20 0.0166549 2.57177e-09 2.19948e-06
0 -0.0166549 2.57172e-09 2.40476e-05
-2.71051e-20 0.0166923 0.000591889 1.38722e-06
-2.71051e-20 -0.0166923 0.000591889 1.44862e-05
2.71051e-20 -0.0165883 0.00300631 1.53488e-05
2.71051e-20 0.0165884 0.00300634 1.09364e-06
0 0.0168225 0.00122844 4.18635e-07
4.51751e-21 -0.0168225 0.00122844 3.82118e-06
-1.35525e-20 0.016875 2.08171e-09 2.29588e-06
-2.71051e-20 -0.016875 2.08167e-09 2.61956e-05
4.51751e-21 -0.0167185 0.00238646 6.76683e-06
9.03502e-21 0.0167185 0.00238653 5.49149e-07
9.03502e-21 0.0167785 0.00193449 2.71192e-07
-6.77626e-21 -0.0167785 0.00193449 2.60197e-06
-8.13152e-21 0.0169401 0.000818251 8.58881e-07
2.71051e-21 -0.0169401 0.000818252 8.69046e-06
0 0.0170157 0.000298678 2.17429e-06
-6.77626e-21 -0.0170157 0.000298678 2.50832e-05
-6.77626e-21 -0.0168116 0.00309149 1.85942e-05
6.77626e-21 0.0168118 0.00309158 1.24986e-06
-2.71051e-20 0.0170535 0.00156148 2.34928e-07
0 -0.0170535 0.00156147 2.11195e-06
1.35525e-20 -0.0171302 1.11108e-09 2.81866e-05
0 0.0171302 1.11109e-09 2.3938e-06
-6.77626e-21 0.0168748 0.00300377 1.26165e-06
-3.38813e-21 -0.016875 0.00300312 1.88238e-05
6.77626e-21 0.0168748 0.00311544 1.23366e-06
3.38813e-21 -0.0168751 0.00311552 1.83233e-05
2.25875e-21 -0.0169651 0.00280897 1.70312e-05
4.51751e-21 0.0169652 0.00280902 1.16098e-06
-2.71051e-20 -0.0170597 0.00222742 3.25692e-06
-2.71051e-20 0.0170597 0.00222745 3.16262e-07
2.71051e-20 0.0173299 6.20518e-10 2.4313e-06
-5.42101e-20 -0.0173299 6.2051e-10 2.8746e-05
0 -0.0170862 0.00319594 1.65063e-05
2.71051e-20 0.0170864 0.00319602 1.13279e-06
9.03502e-21 0.0174049 0.000633537 1.45567e-06
6.77626e-21 -0.0174049 0.000633537 1.67162e-05
-4.51751e-21 -0.0173768 0.00122554 4.67068e-06
-2.25875e-21 0.0173768 0.00122555 4.68593e-07
0 -0.0173842 0.00190622 2.84909e-06
-1.35525e-20 0.0173842 0.00190623 2.96812e-07
4.06576e-20 0.0175 5.31041e-10 2.48929e-06
0 -0.0175 5.31033e-10 2.98856e-05
2.71051e-20 0.0175 0.000142326 2.48626e-06
-1.35525e-20 -0.0175 0.000142327 2.98265e-05
1.35525e-20 -0.0172465 0.00325641 1.68055e-05
2.03288e-20 0.0172466 0.00325643 1.08268e-06
0 -0.0172975 0.00308987 1.67804e-05
2.71051e-20 0.0172975 0.00309007 1.09613e-06
-3.38813e-21 0.0174273 0.00267257 7.33351e-07
5.64689e-21 -0.0174273 0.00267255 9.85513e-06
-2.71051e-20 0.0176746 0.000289047 2.5392e-06
-2.71051e-20 -0.0176746 0.000289047 3.0937e-05
0 0.0177002 0.000896397 6.9299e-07
0 -0.0177002 0.000896392 7.29631e-06
1.69407e-21 -0.0174509 0.00333352 1.50986e-05
1.69407e-21 0.0174516 0.00333379 1.05167e-06
-2.71051e-20 0.0177154 0.00155334 2.94146e-07
0 -0.0177154 0.00155333 2.80692e-06
1.69407e-21 -0.0174773 0.00332283 1.49223e-05
0 0.0174776 0.00332327 1.05006e-06
0 -0.0174819 0.00334524 1.47705e-05
0 0.0174821 0.0033453 1.04896e-06
0 0.0174998 0.00332149 1.03755e-06
1.69407e-21 -0.0174999 0.00332102 1.45766e-05
0 0.0174997 0.00334181 1.04667e-06
1.69407e-21 -0.0174999 0.00334168 1.47063e-05
0 0.0174997 0.00335193 1.04573e-06
0 -0.0174999 0.00335198 1.46745e-05
-2.71051e-20 -0.0177081 0.00225899 3.20769e-06
0 0.0177081 0.00225902 3.41094e-07
-1.35525e-20 -0.0178538 1.78852e-10 3.13363e-05
-1.35525e-20 0.0178538 1.78853e-10 2.56192e-06
1.35525e-20 -0.0178632 0.000120417 3.13248e-05
-1.35525e-20 0.0178632 0.000120416 2.56129e-06
9.03502e-21 -0.017635 0.00307305 1.33553e-05
-9.03502e-21 0.0176351 0.00307313 9.93427e-07
0 -0.0176457 0.00307746 1.31659e-05
-1.35525e-20 0.0176457 0.00307753 9.8609e-07
-1.35525e-20 0.0179989 9.38387e-11 2.54427e-06
1.35525e-20 -0.0179989 9.38379e-11 3.09935e-05
0 -0.0180168 0.00057603 2.007e-05
0 0.0180168 0.00057603 1.65652e-06
4.51751e-21 -0.0180391 0.00120807 6.13881e-06
0 0.0180391 0.00120807 5.4199e-07
-2.71051e-20 -0.0177836 0.00345876 1.39011e-05
-1.35525e-20 0.0177837 0.00345884 1.02721e-06
1.35525e-20 0.0181253 8.3883e-11 2.55769e-06
0 -0.0181253 8.38822e-11 3.12868e-05
-1.35525e-20 -0.0181254 0.000104633 3.12827e-05
-1.35525e-20 0.0181255 0.000104633 2.55748e-06
0 -0.0180399 0.00190087 3.42601e-06
4.51751e-21 0.0180399 0.00190089 3.57628e-07
0 -0.0178455 0.00338254 1.40389e-05
0 0.0178456 0.00338269 1.03236e-06
2.25875e-21 -0.0180098 0.0026349 6.64221e-06
0 0.0180098 0.00263498 5.74783e-07
0 -0.0179191 0.00350977 1.4427e-05
0 0.0179192 0.00350979 1.05183e-06
-3.61401e-21 -0.0180588 0.00311986 1.12074e-05
-2.25875e-21 0.0180589 0.00311992 8.57478e-07
0 -0.0183343 0.000279701 3.16544e-05
-2.71051e-20 0.0183343 0.000279704 2.57874e-06
0 -0.0183564 0.000873036 9.83066e-06
-2.71051e-20 0.0183565 0.000873036 7.66549e-07
-2.71051e-20 0.0183698 0.00152854 4.07145e-07
-2.71051e-20 -0.0183698 0.00152853 4.57728e-06
1.35525e-20 0.0181249 0.00358718 1.11365e-06
0 -0.018125 0.00358724 1.52916e-05
2.71051e-20 -0.0183583 0.00223916 3.13444e-06
0 0.0183583 0.0022392 3.8716e-07
0 0.0185566 2.08891e-11 2.56164e-06
0 -0.0185566 2.08891e-11 3.16966e-05
1.35525e-20 -0.0185599 8.40225e-05 3.16963e-05
-1.35525e-20 0.0185599 8.40238e-05 2.56151e-06
1.35525e-20 -0.0182298 0.00362666 1.51883e-05
6.77626e-21 0.0182303 0.00362685 1.11178e-06
9.03502e-21 -0.0182769 0.00344762 1.49241e-05
0 0.018277 0.00344779 1.09172e-06
-5.42101e-20 -0.0183882 0.00288112 4.8213e-06
-2.71051e-20 0.0183883 0.00288119 4.89824e-07
-1.35525e-20 -0.0186588 1.21775e-11 3.14495e-05
0 0.0186588 1.21774e-11 2.53878e-06
2.25875e-21 -0.0186718 0.000554126 2.11118e-05
6.77626e-21 0.0186718 0.000554126 1.68489e-06
-1.12938e-21 -0.0186931 0.00117295 7.88484e-06
-3.38813e-21 0.0186931 0.00117295 6.58317e-07
-1.35525e-20 -0.01875 1.12105e-11 3.14421e-05
1.35525e-20 0.01875 1.12102e-11 2.52559e-06
1.35525e-20 -0.01875 7.46541e-05 3.14426e-05
-1.35525e-20 0.01875 7.46588e-05 2.52565e-06
4.51751e-21 -0.0186935 0.00186318 4.33353e-06
3.38813e-21 0.0186935 0.0018632 4.80555e-07
-1.35525e-20 -0.0184505 0.00370969 1.3952e-05
2.71051e-20 0.0184507 0.00370979 1.04018e-06
-1.12938e-21 -0.0186914 0.00255843 3.86199e-06
-1.12938e-21 0.0186914 0.00255847 4.65596e-07
-4.06576e-20 -0.0185631 0.00375372 1.37672e-05
0 0.0185633 0.00375376 1.00976e-06
-1.35525e-20 -0.018598 0.00364592 1.38242e-05
-4.06576e-20 0.018598 0.00364611 1.01692e-06
0 -0.0189815 0.000265107 3.14882e-05
-2.71051e-20 0.0189816 0.000265108 2.50893e-06
1.12938e-21 -0.0187011 0.00326206 9.58203e-06
0 0.0187012 0.0032621 7.83401e-07
2.71051e-20 -0.0190034 0.000835917 1.0793e-05
0 0.0190034 0.000835918 8.31639e-07
-2.71051e-20 -0.0190202 0.00148192 6.19669e-06
5.42101e-20 0.0190202 0.00148194 6.14241e-07
-6.77626e-21 0.0187498 0.00382104 1.0016e-06
-1.35525e-20 -0.0187499 0.00382109 1.31242e-05
0 -0.0190135 0.00218681 3.4912e-06
-2.71051e-20 0.0190135 0.00218684 5.15722e-07
-6.77626e-21 -0.0188253 0.00385016 1.28627e-05
0 0.0188256 0.00385027 9.94705e-07
-5.42101e-20 -0.0190102 0.00288285 3.9263e-06
0 0.0190103 0.00288292 4.7126e-07
-6.77626e-21 -0.018869 0.00377278 1.2856e-05
6.77626e-21 0.0188695 0.00377248 9.97339e-07
-1.35525e-20 0.0192456 1.60944e-12 2.44242e-06
-6.77626e-21 -0.0192456 1.60935e-12 2.9622e-05
0 0.0192458 5.21881e-05 2.44241e-06
0 -0.0192459 5.21802e-05 2.96213e-05
4.51751e-21 -0.0189593 0.00363159 1.21558e-05
-4.51751e-21 0.0189594 0.00363171 9.6155e-07
-6.77626e-21 -0.0193107 8.87467e-13 2.93362e-05
0 0.0193107 8.87427e-13 2.42884e-06
1.35525e-20 -0.0189216 0.00388925 1.29923e-05
-6.77626e-21 0.0189225 0.00388962 9.98199e-07
2.25875e-21 -0.0193153 0.000516098 2.1754e-05
0 0.0193153 0.000516099 1.71475e-06
1.35525e-20 -0.0193661 4.34921e-05 2.87061e-05
-6.77626e-21 0.0193662 4.35036e-05 2.41227e-06
6.77626e-21 -0.0193681 8.52526e-13 2.87381e-05
-6.77626e-21 0.0193681 8.52456e-13 2.41367e-06
9.03502e-22 0.0193579 0.00110753 8.99138e-07
-9.03502e-22 -0.0193579 0.00110753 1.16953e-05
-1.12938e-21 -0.0193482 0.00179878 6.01149e-06
1.12938e-21 0.0193482 0.00179879 6.95312e-07
-1.12938e-21 -0.0193328 0.00252219 3.79537e-06
0 0.0193329 0.00252223 5.6981e-07
2.71051e-20 -0.0191251 0.00398458 1.28357e-05
0 0.0191255 0.00398476 1.00065e-06
2.71051e-20 -0.0191698 0.00393531 1.2919e-05
-1.35525e-20 0.01917 0.00393559 1.00411e-06
-1.12938e-20 -0.0192999 0.00324532 6.55484e-06
-6.77626e-21 0.0192999 0.00324545 6.35312e-07
-2.71051e-20 -0.0196143 0.000236549 2.6848e-05
0 0.0196143 0.000236555 2.3456e-06
0 -0.0192179 0.00403218 1.34785e-05
0 0.019218 0.00403225 1.02553e-06
0 -0.0196507 0.000769621 1.68089e-05
-2.71051e-20 0.0196507 0.000769624 1.092e-06
5.64689e-22 -0.019364 0.0036912 1.00421e-05
-7.90564e-22 0.0193642 0.00369131 8.20458e-07
0 -0.0197262 4.3324e-13 3.31231e-05
3.38813e-21 0.0197263 4.33011e-13 2.48812e-06
-2.71051e-20 -0.0196852 0.0013914 1.10901e-05
-2.71051e-20 0.0196852 0.0013914 9.57579e-07
5.42101e-20 -0.019658 0.00213353 3.58076e-06
0 0.019658 0.00213356 7.04535e-07
0 0.0193748 0.00398188 1.06961e-06
0 -0.0193751 0.00398171 1.42045e-05
1.35525e-20 0.0193748 0.00411568 1.09592e-06
-6.77626e-21 -0.0193751 0.00411583 1.46839e-05
-5.42101e-20 -0.0196507 0.00284929 4.15455e-06
0 0.0196508 0.00284935 5.90095e-07
2.48463e-21 0.0199511 0.000464191 2.05968e-06
1.58113e-21 -0.0199511 0.00046419 3.05792e-05
2.71051e-20 -0.0196742 0.00348114 4.07422e-06
-2.71051e-20 0.0196743 0.00348124 4.53325e-07
0 -0.0195407 0.00420391 1.50026e-05
-6.77626e-21 0.0195414 0.00420428 1.10826e-06
0 0.02 4.81857e-13 2.51268e-06
0 0.02 2.78524e-05 2.51327e-06
0 -0.02 4.82208e-13 3.50999e-05
0 -0.02 2.78703e-05 3.51423e-05
-3.38813e-21 0.02 0.000208128 2.28751e-06
0 -0.02 0.000208218 3.27163e-05
-6.77626e-21 0.0200396 7.19394e-14 2.52259e-06
-6.77626e-21 -0.0200397 7.19946e-14 3.57061e-05
0 -0.0196489 0.00406133 1.45435e-05
-1.0842e-20 0.0196492 0.00406167 1.0845e-06
0 0.0200681 2.37555e-05 2.5142e-06
0 -0.0200682 2.37724e-05 3.55026e-05
-2.35287e-22 -0.0199935 0.00175524 7.8854e-06
1.41172e-22 0.0199936 0.00175513 9.55498e-07
-6.77626e-21 0.0200714 3.9263e-14 2.51344e-06
-6.77626e-21 -0.0200715 3.9285e-14 3.54667e-05
-2.25875e-21 0.0200889 0.000959444 1.48477e-06
0 -0.0200889 0.000959437 2.32309e-05
-8.87368e-22 -0.020018 0.0024485 4.58064e-06
3.22679e-22 0.0200181 0.0024486 7.83088e-07
-6.77626e-21 0.0201757 9.02792e-15 2.57909e-06
0 -0.0201759 9.03188e-15 3.94494e-05
-1.35525e-20 -0.0197164 0.0042974 1.42144e-05
-2.71051e-20 0.0197167 0.00429758 1.04454e-06
-2.82344e-21 -0.019968 0.00317454 4.09827e-06
0 0.019968 0.00317461 5.7626e-07
1.35525e-20 -0.0198178 0.00435143 1.3928e-05
-1.35525e-20 0.0198179 0.00435149 1.00997e-06
1.35525e-20 -0.0198553 0.00424439 1.39684e-05
0 0.0198553 0.00424466 1.01777e-06
1.50584e-21 -0.0199716 0.00386195 9.64134e-06
-1.69407e-21 0.0199717 0.00386203 7.80864e-07
0 0.0204248 0.000311575 2.69179e-06
2.25875e-21 -0.0204248 0.000311594 4.92943e-05
0 -0.02042 0.00146742 1.09139e-05
-2.71051e-20 0.02042 0.00146741 1.3052e-06
0 -0.0202841 0.00282329 4.15751e-06
0 0.0202842 0.00282334 7.99061e-07
6.77626e-21 0.0199999 0.00444852 1.00525e-06
6.77626e-21 -0.0200001 0.00444866 1.42092e-05
-2.71051e-20 -0.0204141 0.00196452 7.09007e-06
-5.42101e-20 0.0204142 0.00196455 1.14237e-06
1.35525e-20 0.0205235 4.55464e-15 2.76962e-06
0 -0.0205236 4.54438e-15 5.12287e-05
6.77626e-21 -0.0200603 0.00448072 1.42103e-05
0 0.0200605 0.00448086 1.00205e-06
-2.71051e-20 -0.0202766 0.00350282 4.01159e-06
-2.71051e-20 0.0202767 0.00350291 4.83937e-07
3.38813e-21 -0.0201017 0.00441369 1.41961e-05
3.38813e-21 0.0201022 0.00441328 1.00573e-06
-6.77626e-21 -0.0201267 0.00451611 1.4503e-05
6.77626e-21 0.0201275 0.00451657 1.00086e-06
-6.77626e-21 -0.0202112 0.00425305 1.34758e-05
5.27043e-21 0.0202113 0.00425322 9.74995e-07
1.77474e-21 -0.0206611 0.000857183 4.35086e-05
-7.26028e-22 0.0206612 0.000857155 2.22138e-06
-2.71051e-20 0.0206907 1.34737e-15 3.03854e-06
0 -0.0206907 1.33314e-15 6.33446e-05
0 -0.020629 0.00169534 9.52199e-06
1.35525e-20 0.020629 0.00169534 1.31121e-06
1.41172e-22 0.0206304 0.00244032 1.12515e-06
0 -0.0206304 0.0024403 5.96578e-06
-5.64689e-22 -0.0205956 0.00315756 4.52263e-06
-1.69407e-21 0.0205957 0.0031576 7.90539e-07
0 -0.0203415 0.00463057 1.52425e-05
-1.35525e-20 0.0203419 0.00463079 9.99108e-07
2.71051e-20 -0.0208462 0.00142109 1.21899e-05
0 0.0208463 0.00142107 1.5169e-06
0 -0.0203946 0.00457335 1.53036e-05
0 0.0203949 0.0045737 1.00273e-06
0 -0.0205528 0.00387349 7.28534e-06
0 0.0205529 0.00387365 6.53148e-07
0 -0.0208258 0.00194371 8.42254e-06
0 0.0208258 0.00194373 1.38598e-06
-3.38813e-21 0.0209525 4.1993e-16 3.59708e-06
0 -0.0209526 4.12756e-16 9.04071e-05
0 -0.0209676 0.000105362 9.28224e-05
3.38813e-21 0.0209677 0.000106546 3.64902e-06
-1.69407e-21 -0.0209754 2.17162e-16 9.17041e-05
1.69407e-21 0.0209756 2.20484e-16 3.6275e-06
-2.71051e-20 -0.0204458 0.00468612 1.6388e-05
0 0.020446 0.00468621 1.02143e-06
-1.12938e-21 0.0209821 0.000349585 3.56943e-06
0 -0.0209822 0.000349599 8.8763e-05
-1.01644e-21 -0.0206056 0.00432302 1.2088e-05
1.12938e-22 0.0206057 0.00432315 8.23399e-07
0 -0.0209339 0.00277547 5.8243e-06
-5.42101e-20 0.0209339 0.00277549 1.27337e-06
1.35525e-20 0.0206249 0.00478151 1.09293e-06
0 -0.0206251 0.00478166 1.89697e-05
0 -0.0208973 0.00349615 4.1518e-06
-2.71051e-20 0.0208974 0.00349622 6.26215e-07
0 0.0212501 -3.25606e-16 3.62941e-06
0 -0.0212501 -3.23147e-16 8.46522e-05
-3.38813e-20 -0.0207393 0.0048425 1.96722e-05
2.71051e-20 0.0207401 0.00484287 1.09874e-06
1.35525e-20 -0.020785 0.00466278 1.84802e-05
0 0.0207851 0.00466305 1.07117e-06
-2.71051e-20 -0.020919 0.0041165 5.65377e-06
2.71051e-20 0.0209191 0.00411663 4.62539e-07
5.64689e-22 0.0212542 0.00168692 1.66307e-06
1.69407e-21 -0.0212543 0.00168692 1.26317e-05
7.52918e-22 -0.0213184 0.000900124 5.89847e-05
-1.50584e-21 0.0213184 0.000900095 2.8785e-06
-2.71051e-20 -0.021346 0.00012185 8.67262e-05
0 0.0213462 0.000122052 3.74486e-06
0 -0.0213548 6.61869e-17 8.62232e-05
0 0.021355 6.76435e-17 3.73438e-06
0 -0.0212894 0.0022942 8.47439e-06
-1.12938e-21 0.0212894 0.00229422 1.57605e-06
1.35525e-20 -0.0214254 -2.81734e-16 8.95102e-05
2.71051e-20 0.0214257 -2.82212e-16 3.78849e-06
-1.12938e-21 -0.0212264 0.0031084 5.38188e-06
1.35525e-21 0.0212264 0.0031085 1.16848e-06
0 -0.0209342 0.00494631 1.8935e-05
-1.35525e-20 0.0209345 0.00494647 1.0279e-06
0 -0.0212107 0.00381738 5.21248e-06
-1.12938e-21 0.0212107 0.00381746 6.17284e-07
-2.71051e-20 -0.0215707 0.0001272 0.000100274
-1.35525e-20 0.0215713 0.000127441 4.00701e-06
0 -0.0216062 1.81935e-16 0.00010049
-2.71051e-20 0.0216069 1.81687e-16 4.00929e-06
2.71051e-20 -0.0210473 0.00500657 1.85256e-05
1.35525e-20 0.0210475 0.00500662 9.85553e-07
0 -0.0210904 0.00488681 1.8527e-05
1.35525e-20 0.0210904 0.00488706 9.95984e-07
2.63521e-21 -0.0212076 0.00450575 1.31458e-05
1.12938e-21 0.0212077 0.00450582 7.71653e-07
-2.71051e-20 -0.0215471 0.00276781 5.65964e-06
2.71051e-20 0.0215471 0.00276784 1.72733e-06
0 -0.0215274 0.00347141 5.03329e-06
0 0.0215275 0.00347145 9.38117e-07
0 0.0212499 0.0051145 9.75116e-07
-1.69407e-20 -0.0212502 0.00511463 2.01122e-05
3.38813e-21 -0.0212808 0.00513096 2.02187e-05
0 0.0212811 0.00513109 9.73718e-07
3.38813e-21 -0.0213032 0.0050955 2.01801e-05
-3.38813e-21 0.0213038 0.00509507 9.76747e-07
0 -0.0215161 0.00414688 5.96983e-06
2.71051e-20 0.0215162 0.00414698 4.66577e-07
-3.38813e-21 -0.0213149 0.00514909 2.05762e-05
0 0.0213156 0.0051495 9.71366e-07
0 -0.0219059 0.00171801 1.79991e-05
-5.42101e-20 0.0219059 0.00171801 2.19791e-06
1.05409e-20 -0.0214404 0.00489776 1.89976e-05
-3.01167e-21 0.0214406 0.00489792 9.51394e-07
2.11758e-22 -0.0218827 0.00243256 9.51553e-06
3.5293e-22 0.0218827 0.00243267 2.08116e-06
-5.42101e-20 -0.0220245 0.000514823 0.000125646
0 0.0220246 0.000514823 4.70808e-06
5.64689e-22 -0.0218548 0.00311111 6.35432e-06
0 0.0218549 0.00311114 1.60031e-06
-3.38813e-21 -0.0218321 0.00380922 5.86685e-06
0 0.0218321 0.00380928 8.30069e-07
0 -0.0215576 0.00527841 2.30514e-05
0 0.021558 0.0052786 9.58175e-07
-2.71051e-20 -0.021618 0.00521401 2.30773e-05
0 0.0216183 0.00521431 9.64009e-07
2.25875e-21 -0.0217926 0.00451289 1.09778e-05
-2.25875e-21 0.0217927 0.00451304 6.46927e-07
2.71051e-20 -0.0216749 0.00534089 2.52437e-05
-2.71051e-20 0.021675 0.00534096 9.93528e-07
-2.71051e-20 -0.0221927 0.00274699 8.8377e-06
-2.71051e-20 0.0221928 0.002747 2.4499e-06
-1.12938e-21 -0.0218358 0.00496905 1.8894e-05
-1.12938e-21 0.021836 0.00496915 8.10173e-07
2.71051e-20 -0.0221555 0.00344892 5.91739e-06
-2.71051e-20 0.0221556 0.00344897 1.29335e-06
-1.35525e-20 -0.0225001 2.20878e-16 0.000136245
-1.35525e-20 0.0225001 2.20537e-16 5.10539e-06
-2.71051e-20 -0.0225001 0.000132713 0.000137505
0 0.0225001 0.000132744 5.14857e-06
0 -0.0221425 0.00413741 6.51608e-06
0 0.0221425 0.00413747 6.32824e-07
6.77626e-21 0.0218749 0.00544743 1.07104e-06
-1.35525e-20 -0.0218752 0.00544758 3.07039e-05
2.25875e-21 -0.0225913 0.00111536 8.61031e-05
0 0.0225913 0.00111536 4.08719e-06
-3.38813e-21 -0.0219451 0.00548483 3.16205e-05
1.01644e-20 0.0219457 0.00548514 1.0753e-06
4.51751e-21 -0.0220189 0.00530689 2.94634e-05
-9.03502e-21 0.0220189 0.00530711 1.0461e-06
0 -0.0221557 0.00476095 1.05817e-05
-2.71051e-20 0.0221557 0.00476106 4.79553e-07
0 -0.022668 -7.76827e-18 0.000142371
2.71051e-20 0.0226682 -7.82573e-18 5.33316e-06
0 -0.0225574 0.00228407 1.42329e-05
0 0.0225574 0.00228408 2.5746e-06
1.12938e-21 -0.0224843 0.00307678 8.02285e-06
-8.47033e-22 0.0224843 0.00307684 2.04467e-06
0 0.0224596 0.00375138 1.11438e-06
-8.47033e-22 -0.0224607 0.00375124 7.08745e-06
0 0.0225 0.00363425 1.28672e-06
-2.11758e-21 -0.0225 0.00363681 7.26822e-06
4.23516e-22 0.0224999 0.00375054 1.13364e-06
0 -0.022505 0.00374493 7.16652e-06
-2.11758e-21 -0.0225 0.00378656 7.28169e-06
2.96462e-21 0.0224999 0.00378766 1.10487e-06
2.71051e-20 -0.0228181 0.000138799 0.000151602
2.71051e-20 0.0228182 0.000138846 5.59339e-06
-2.71051e-20 -0.0228293 -4.78495e-18 0.000151692
2.71051e-20 0.0228295 -4.81285e-18 5.59514e-06
-1.35525e-20 -0.0221583 0.00559842 3.06222e-05
1.35525e-20 0.0221586 0.00559854 1.01014e-06
-1.27055e-21 -0.0225489 0.00374905 7.30443e-06
0 0.02255 0.00374913 1.1606e-06
4.51751e-21 -0.0224518 0.00446282 9.24151e-06
-2.25875e-21 0.0224519 0.00446289 6.08917e-07
-2.71051e-20 -0.0222813 0.00566396 3.00048e-05
2.71051e-20 0.0222814 0.00566399 9.80514e-07
1.35525e-20 -0.0223283 0.00553412 2.99469e-05
2.71051e-20 0.0223283 0.00553432 9.8708e-07
-3.76459e-22 -0.0224429 0.00515556 2.2233e-05
-1.50584e-21 0.022443 0.00515562 7.72535e-07
0 -0.0229083 0.002849 8.9769e-06
-2.71051e-20 0.0229083 0.002849 2.63282e-06
0 -0.0227694 0.00412844 8.36274e-06
0 0.0227694 0.0041285 8.29277e-07
2.71051e-20 -0.022907 0.00330616 8.44152e-06
2.71051e-20 0.022907 0.0033062 2.01049e-06
0 0.0225 0.00578038 9.81057e-07
-8.47033e-22 -0.0225001 0.00578047 3.38048e-05
0 -0.022509 0.0057852 3.38708e-05
0 0.0225092 0.00578529 9.80595e-07
0 -0.0225156 0.00577477 3.38387e-05
8.47033e-22 0.0225161 0.00577445 9.80828e-07
-8.47033e-22 -0.022519 0.00579052 3.40647e-05
-5.42101e-20 -0.0231858 0.00175337 2.63231e-05
0 0.0231858 0.00175338 3.13205e-06
-8.47033e-22 0.0225196 0.00579082 9.81647e-07
0 -0.0232455 0.000558694 0.00016583
5.42101e-20 0.0232456 0.000558713 6.12025e-06
0 -0.0227558 0.00479301 1.13758e-05
2.71051e-20 0.0227558 0.00479309 5.11579e-07
-2.82344e-22 -0.0231485 0.00241746 1.4802e-05
1.41172e-21 0.0231485 0.00241748 2.84602e-06
-1.35525e-20 -0.0231146 0.00307521 9.24605e-06
-1.35525e-20 0.0231146 0.00307523 2.42175e-06
-9.03502e-21 -0.0226734 0.00554801 3.16591e-05
3.01167e-21 0.0226735 0.00554813 9.3672e-07
-7.52918e-22 -0.023097 0.00377997 8.98957e-06
-3.01167e-21 0.023097 0.00377998 1.46979e-06
-2.25875e-21 -0.0230771 0.00445736 1.05922e-05
5.64689e-21 0.0230771 0.0044574 8.48954e-07
-2.71051e-20 -0.0233412 0.0028426 1.0561e-05
-2.71051e-20 0.0233412 0.0028426 2.8606e-06
0 -0.023307 0.00329649 9.53241e-06
0 0.023307 0.00329652 2.30676e-06
0 -0.0227839 0.00593188 3.9544e-05
0 0.0227842 0.005932 1.00073e-06
-1.35525e-20 -0.0228491 0.00586247 3.94083e-05
2.71051e-20 0.0228493 0.00586268 1.00524e-06
0 -0.0230321 0.00515831 1.98588e-05
-6.77626e-21 0.0230321 0.00515843 6.67903e-07
0 -0.0229107 0.00599969 4.21204e-05
0 0.0229108 0.00599972 1.05574e-06
-9.03502e-22 -0.02307 0.00562156 3.30752e-05
-4.06576e-21 0.0230702 0.00562164 8.45736e-07
-1.35525e-20 0.02375 -2.49915e-18 6.40941e-06
0 -0.02375 -2.47639e-18 0.000170343
0 0.02375 0.000110979 6.41598e-06
1.35525e-20 -0.02375 0.000110935 0.000170453
5.42101e-20 -0.0234167 0.00409121 1.00154e-05
2.71051e-20 0.0234167 0.00409123 1.39296e-06
0 -0.0233771 0.00479107 1.24937e-05
2.71051e-20 0.0233771 0.00479113 6.8169e-07
-4.51751e-21 -0.0238362 0.00114849 0.000103892
-2.25875e-21 0.0238362 0.00114849 5.05674e-06
1.35525e-20 -0.0238811 -1.06907e-19 0.000170943
1.35525e-20 0.0238811 -1.06945e-19 6.47728e-06
3.38813e-21 0.0231249 0.00611537 1.18026e-06
-1.35525e-20 -0.0231251 0.00611547 5.12125e-05
2.25875e-21 -0.0238207 0.00236089 2.19559e-05
-6.77626e-21 0.0238207 0.0023609 3.24648e-06
-2.11758e-22 0.02375 0.00306544 2.75998e-06
-4.23516e-22 -0.0237501 0.00306211 1.17753e-05
-1.69407e-20 -0.0231675 0.00613814 5.20262e-05
2.03288e-20 0.0231678 0.00613837 1.18885e-06
0 -0.0239958 0.00011363 0.000174168
1.35525e-20 0.0239958 0.00011366 6.60585e-06
0 -0.0240047 8.64198e-21 0.000174197
0 0.0240047 8.57257e-21 6.60646e-06
0 -0.023258 0.00596075 4.88957e-05
-9.03502e-21 0.0232581 0.00596091 1.14373e-06
0 -0.0233938 0.00541142 2.14236e-05
2.71051e-20 0.0233939 0.00541149 5.12496e-07
5.64689e-22 -0.0237525 0.00364843 1.15097e-05
4.70574e-22 0.0237525 0.00364849 1.91995e-06
-2.25875e-21 -0.0237062 0.00443804 1.26606e-05
2.25875e-21 0.0237062 0.00443807 1.19018e-06
-1.35525e-20 -0.0233932 0.00626093 4.95686e-05
-2.71051e-20 0.0233933 0.00626104 1.13393e-06
4.51751e-21 -0.0236906 0.00510851 1.78719e-05
-4.51751e-21 0.0236906 0.00510857 7.00973e-07
-2.71051e-20 -0.0235127 0.00635105 4.97779e-05
6.77626e-21 0.0235127 0.00635107 1.13033e-06
0 -0.0235683 0.00620582 4.94659e-05
-1.35525e-20 0.0235682 0.00620594 1.12785e-06
2.71051e-20 -0.0240297 0.00408464 1.28886e-05
0 0.0240297 0.00408466 1.65219e-06
1.50584e-21 -0.0236813 0.00581876 3.73204e-05
3.76459e-22 0.0236814 0.0058188 8.63239e-07
0 -0.0240098 0.00476747 1.51845e-05
-2.71051e-20 0.0240099 0.0047675 1.03314e-06
0 -0.0244727 0.00057972 0.000179077
-5.42101e-20 0.0244727 0.000579721 6.92189e-06
0 -0.0244408 0.00176631 3.91657e-05
0 0.0244408 0.00176631 3.94093e-06
0 -0.0236698 0.00645559 4.89138e-05
-3.38813e-21 0.0236701 0.00645581 1.09512e-06
3.38813e-21 -0.0237098 0.00644176 4.86924e-05
0 0.0237098 0.00644204 1.08842e-06
0 -0.02371 0.00648353 4.83531e-05
3.38813e-21 0.02371 0.00648359 1.07592e-06
-5.42101e-20 -0.0243888 0.00306491 1.57731e-05
0 0.0243888 0.00306491 3.20713e-06
0 -0.0239955 0.00544041 2.20643e-05
-2.71051e-20 0.0239956 0.00544047 5.98542e-07
-3.38813e-21 0.02375 0.00643543 1.06206e-06
0 -0.0237501 0.00643512 4.77756e-05
0 0.02375 0.00647616 1.07324e-06
3.38813e-21 -0.0237501 0.00647607 4.82647e-05
0 0.02375 0.00651289 1.06317e-06
0 -0.0237501 0.00651298 4.80152e-05
0 -0.0243624 0.00373227 1.51465e-05
-3.38813e-22 0.0243624 0.00373228 2.20829e-06
-9.03502e-21 -0.0239088 0.00623545 4.676e-05