# kMean  POINT_DATA 27749
# x  y  z  kMean
0.014142 -1.35525e-20 8.4025e-08 5.50407e-07
-0.014142 1.35525e-20 8.4025e-08 2.71468e-06
0.014142 3.38813e-21 0.000246007 5.50303e-07
-0.014142 -3.38813e-21 0.000246007 2.77738e-06
0.014142 1.01644e-20 0.000413834 5.81277e-07
-0.014142 -1.01644e-20 0.000413834 3.01725e-06
-0.014142 0 0.000659755 3.65923e-06
0.014142 0 0.000659755 6.71662e-07
-0.014142 -1.01644e-20 0.000918788 4.53313e-06
0.014142 6.77626e-21 0.000918788 7.77355e-07
-0.014142 1.01644e-20 0.00109554 4.67437e-06
0.014142 0 0.00109554 7.89656e-07
-0.014142 1.35525e-20 0.00135458 4.21642e-06
0.014142 1.35525e-20 0.00135458 7.1944e-07
-0.014142 0 0.00162764 4.02763e-06
0.014142 -1.01644e-20 0.00162764 6.67362e-07
-0.014253 1.35525e-20 0.000123989 2.74602e-06
0.014253 1.35525e-20 0.000123987 5.50012e-07
-0.0142541 0 8.84505e-08 2.74625e-06
0.0142541 0 8.84502e-08 5.50014e-07
-0.014142 3.38813e-21 0.00181395 4.17479e-06
0.014142 3.38813e-21 0.00181395 6.56056e-07
-0.014253 0 0.000533572 3.33143e-06
0.014253 0 0.000533572 6.25604e-07
-0.0142487 0 0.000779064 4.11422e-06
0.0142487 0 0.000779064 7.26754e-07
0.014142 -1.35525e-20 0.002087 6.78505e-07
-0.014142 1.35525e-20 0.002087 4.9013e-06
0.0142487 0 0.00120336 7.56279e-07
-0.0142487 -1.35525e-20 0.00120336 4.45326e-06
0.0142431 -1.35525e-20 0.0014498 6.91275e-07
-0.0142431 -1.35525e-20 0.0014498 4.11153e-06
0.0142431 -1.35525e-20 0.00188515 6.64857e-07
-0.0142431 -1.35525e-20 0.00188515 4.45538e-06
-0.014375 0 9.00162e-08 3.93232e-06
0.014375 2.71051e-20 9.00164e-08 7.04157e-07
-0.014375 -2.71051e-20 0.000646675 3.79704e-06
0.014375 1.35525e-20 0.000646674 6.81766e-07
-0.0142629 6.77626e-21 0.00213232 4.85196e-06
0.0142629 6.77626e-21 0.00213231 6.79034e-07
-0.0142993 0 0.00204071 4.83128e-06
0.0142993 0 0.00204071 6.77805e-07
0.0143912 0 0.00158933 6.38335e-07
-0.0143912 -1.35525e-20 0.00158933 3.76298e-06
-0.014375 -1.35525e-20 0.00187889 3.96133e-06
0.014375 6.77626e-21 0.00187888 5.818e-07
0.0144893 -1.35525e-20 0.000866117 7.67094e-07
-0.0144893 8.13152e-21 0.00086612 4.40689e-06
0.0144695 -9.03502e-21 0.00125597 5.68255e-07
-0.0144695 6.77626e-21 0.00125597 3.19423e-06
-0.014375 0 0.00217431 5.34928e-06
0.014375 0 0.00217432 6.8703e-07
-0.0145461 4.51751e-21 0.000325662 3.76163e-06
0.0145461 6.77626e-21 0.000325655 6.81324e-07
-0.0145532 -2.71051e-20 9.53759e-08 3.95252e-06
0.0145533 1.35525e-20 9.53758e-08 7.1237e-07
-0.0145148 1.35525e-20 0.00222669 5.98779e-06
0.0145148 -1.35525e-20 0.00222669 7.08504e-07
0.0146056 -1.35525e-20 0.0016502 5.0874e-07
-0.0146056 -5.80823e-21 0.0016502 3.18662e-06
0.0145854 4.23516e-22 0.00195226 7.04057e-07
-0.0145817 -9.74088e-21 0.00195131 5.73757e-06
0.0145839 -1.86347e-20 0.00196242 7.0803e-07
-0.0145839 1.60936e-20 0.00196242 5.77952e-06
-0.0147323 0 1.05322e-07 6.05212e-06
0.0147323 2.71051e-20 1.05321e-07 9.5684e-07
0.0147152 0 0.000924056 4.9353e-07
-0.0147152 4.51751e-21 0.000924061 2.92005e-06
-0.0145873 0 0.00225387 5.95139e-06
0.0145873 0 0.00225387 7.00545e-07
0.014694 -2.25875e-21 0.00145649 3.53033e-07
-0.014694 2.25875e-21 0.0014565 2.20098e-06
-0.0148203 -1.35525e-20 0.000134167 7.13734e-06
0.0148203 1.35525e-20 0.000134156 1.07888e-06
-0.0148273 0 9.52383e-08 7.10227e-06
0.0148274 -1.35525e-20 9.52384e-08 1.0746e-06
-0.0148725 0 9.04372e-08 7.34269e-06
0.0148726 0 9.04377e-08 1.08362e-06
-0.0148701 1.29072e-21 0.000655711 4.45751e-06
0.0148701 1.19391e-20 0.000655709 7.15951e-07
0.0148453 4.01556e-21 0.0012075 3.66285e-07
-0.0148453 -3.26265e-21 0.00120751 1.99526e-06
0.0147327 4.06576e-20 0.00230835 7.32879e-07
-0.0147327 0 0.00230836 6.73954e-06
0.0148279 -3.01167e-21 0.00162721 3.89254e-07
-0.0148279 1.50584e-21 0.00162722 2.53625e-06
-0.015 0 7.9027e-08 8.79653e-06
0.015 0 7.90279e-08 1.23222e-06
-0.015 1.35525e-20 0.000133994 8.89156e-06
0.015 -1.35525e-20 0.000133987 1.24192e-06
-0.014972 -1.12938e-21 0.00204137 6.72342e-06
0.014972 0 0.00204135 7.22271e-07
-0.015 1.69407e-21 0.00224825 6.98329e-06
0.015 -1.69407e-21 0.00224824 7.28737e-07
0.015 -3.38813e-21 0.00240854 7.1444e-07
-0.015 0 0.00240855 6.98101e-06
-0.0150379 0 0.00242273 6.9438e-06
0.0150379 -3.38813e-21 0.00242272 7.08807e-07
-0.0152272 -2.71051e-21 0.000388387 9.74003e-06
0.0152272 8.13152e-21 0.000388387 1.31877e-06
0.0152252 4.51751e-21 0.000912537 4.16912e-07
-0.0152252 -4.51751e-21 0.000912539 2.56339e-06
0.0151964 -1.35525e-20 0.0015087 2.56522e-07
-0.0151964 0 0.0015087 1.59846e-06
0.0151247 0 0.00245524 7.09008e-07
-0.0151247 -3.38813e-21 0.00245526 7.03696e-06
0.0153317 0 0.000145238 1.52752e-06
-0.0153317 0 0.000145213 1.1673e-05
0.0153419 -1.35525e-20 1.97573e-08 1.52583e-06
-0.015342 2.71051e-20 1.97534e-08 1.16559e-05
-0.0154305 2.71051e-20 0.000610782 7.21324e-06
0.0154305 2.71051e-20 0.00061078 9.48972e-07
-0.0154188 -2.71051e-20 0.00121423 1.75783e-06
0.0154188 -2.71051e-20 0.00121423 2.88463e-07
0.0154797 0 7.97399e-09 1.59615e-06
-0.0154797 0 7.97114e-09 1.27571e-05
-0.0152781 0 0.00251266 7.22143e-06
0.0152781 6.77626e-21 0.00251265 7.16929e-07
0.0153765 -2.71051e-20 0.00187062 4.23586e-07
-0.0153765 0 0.00187063 3.5039e-06
-0.0153109 0 0.00240206 7.12189e-06
0.0153109 3.38813e-21 0.00240203 7.09433e-07
-0.01538 0 0.00228673 6.93532e-06
0.01538 0 0.00228672 6.98032e-07
-0.015625 -1.35525e-20 7.20976e-09 1.44961e-05
0.015625 2.71051e-20 7.21205e-09 1.73815e-06
-0.015625 1.35525e-20 0.000148486 1.46302e-05
0.015625 -2.71051e-20 0.000148511 1.74863e-06
0.0154678 0 0.00258382 7.2865e-07
-0.0154678 -1.35525e-20 0.00258382 7.26594e-06
-0.0157807 0 0.000401201 1.44178e-05
0.0157807 0 0.000401193 1.65686e-06
0.0157688 4.51751e-21 0.000915445 5.18475e-07
-0.0157688 -2.25875e-21 0.000915445 3.72026e-06
-0.0157417 0 0.00155269 1.64326e-06
0.0157417 9.03502e-21 0.00155269 2.3217e-07
0.015655 -8.47033e-22 0.00231454 6.06408e-07
-0.015655 0 0.00231454 5.82392e-06
-0.015625 -1.35525e-20 0.00255476 7.03281e-06
0.015625 0 0.00255477 7.26667e-07
-0.015625 -2.03288e-20 0.00264258 7.04617e-06
0.015625 1.35525e-20 0.00264259 7.326e-07
-0.0157494 0 0.00207287 3.17581e-06
0.0157494 -4.51751e-21 0.00207287 3.70884e-07
0.0159401 0 0.00015337 2.01504e-06
-0.0159401 1.35525e-20 0.000153353 1.81169e-05
0.0159518 -1.35525e-20 6.42218e-09 2.01411e-06
-0.0159518 1.35525e-20 6.42132e-09 1.81079e-05
-0.0157606 0 0.00269322 7.28526e-06
0.0157606 -4.06576e-20 0.00269323 7.55822e-07
-0.0158013 0 0.00253026 7.2087e-06
0.0158014 -1.0842e-20 0.00253027 7.43348e-07
-0.0161003 2.71051e-20 5.64398e-09 1.90814e-05
0.0161003 0 5.64433e-09 2.06176e-06
-0.0160453 2.71051e-20 0.00191535 2.94924e-06
0.0160453 0 0.00191536 3.37194e-07
-0.0159592 2.71051e-20 0.00276747 1.00238e-05
0.0159593 -2.71051e-20 0.00276748 9.05968e-07
-0.0161558 -1.16165e-20 0.00116884 2.84979e-06
0.0161558 0 0.00116884 3.84541e-07
-0.0161993 9.03502e-21 0.00060793 1.18756e-05
0.0161993 -1.35525e-20 0.000607927 1.30745e-06
-0.0160501 1.35525e-20 0.00232589 5.24304e-06
0.0160502 -2.25875e-21 0.00232591 5.37013e-07
-0.01625 1.35525e-20 4.91538e-09 2.03771e-05
0.01625 0 4.91559e-09 2.14715e-06
-0.01625 1.35525e-20 0.000141083 2.03614e-05
0.01625 -1.35525e-20 0.000141098 2.14616e-06
-0.0162998 0 0.00156752 1.83053e-06
0.0162998 4.51751e-21 0.00156752 2.42591e-07
-0.0164197 -2.71051e-20 0.00030492 2.18653e-05
0.0164197 -2.71051e-20 0.000304919 2.25067e-06
-0.0164161 0 0.000921642 3.82227e-06
0.0164161 0 0.000921642 4.99346e-07
-0.0163188 -5.42101e-21 0.0021118 2.72715e-06
0.0163188 0 0.00211181 3.00757e-07
-0.01625 1.69407e-20 0.00287738 1.2517e-05
0.0162501 -3.38813e-20 0.00287742 1.06214e-06
-0.0162993 2.03288e-20 0.00289583 1.28379e-05
0.0162996 -3.04932e-20 0.00289591 1.08244e-06
-0.0163583 -9.03502e-21 0.00265284 1.13278e-05
0.0163584 -4.51751e-21 0.00265289 9.77726e-07
0.0165943 1.35525e-20 2.17698e-09 2.30904e-06
-0.0165944 1.35525e-20 2.17674e-09 2.30024e-05
0.0165962 0 0.000135304 2.30895e-06
-0.0165962 1.35525e-20 0.000135291 2.30013e-05
-0.0167375 -1.35525e-20 1.46121e-09 2.36243e-05
0.0167375 0 1.4613e-09 2.33249e-06
0.0167399 -2.25875e-21 0.000605599 1.45168e-06
-0.0167399 4.51751e-21 0.000605601 1.42697e-05
-0.0167337 -2.25875e-21 0.00124418 3.05272e-06
0.0167337 6.77626e-21 0.00124418 3.75707e-07
-0.0167344 6.77626e-21 0.00188858 2.03285e-06
0.0167344 0 0.00188859 2.44853e-07
-0.0165907 0 0.00300593 1.31944e-05
0.0165909 -2.71051e-20 0.00300602 1.09704e-06
-0.016875 -1.35525e-20 1.28942e-09 2.46016e-05
0.016875 0 1.28949e-09 2.37387e-06
-0.016875 0 0.000125675 2.45746e-05
0.016875 0 0.000125687 2.37268e-06
-0.0167222 -4.51751e-21 0.00239131 5.74142e-06
0.0167222 -4.51751e-21 0.00239136 5.35932e-07
-0.017064 2.71051e-20 0.000300568 2.57928e-05
0.017064 0 0.000300568 2.43549e-06
-0.0170695 2.71051e-20 0.000918299 5.32476e-06
0.0170695 0 0.0009183 5.91948e-07
-0.0168154 2.71051e-20 0.00309174 1.60163e-05
0.0168157 2.03288e-20 0.00309186 1.26235e-06
-0.0170662 0 0.00156961 1.70652e-06
0.0170662 0 0.00156962 2.24303e-07
-0.016875 3.38813e-21 0.00300896 1.61958e-05
0.0168752 -1.01644e-20 0.00300917 1.27382e-06
-0.016875 0 0.00311456 1.57835e-05
0.0168752 -3.38813e-21 0.00311463 1.24733e-06
-0.0169679 3.38813e-21 0.00280953 1.45845e-05
0.0169681 -5.64689e-21 0.00280961 1.16677e-06
-0.0170644 0 0.00223096 2.62697e-06
0.0170645 2.71051e-20 0.00223098 2.92717e-07
0.0172527 0 5.17857e-10 2.4733e-06
-0.0172527 1.35525e-20 5.17799e-10 2.66148e-05
0.0172567 1.35525e-20 0.000116554 2.47324e-06
-0.0172567 -1.35525e-20 0.000116543 2.66108e-05
-0.0173799 0 3.52934e-10 2.67238e-05
0.0173799 -2.71051e-20 3.52963e-10 2.48142e-06
-0.0170892 -4.06576e-20 0.00319641 1.41475e-05
0.0170896 0 0.00319653 1.14474e-06
0.0173909 -4.51751e-21 0.000597247 1.57e-06
-0.0173909 4.51751e-21 0.000597247 1.65389e-05
-0.0173956 4.51751e-21 0.00123449 3.9827e-06
0.0173956 4.51751e-21 0.00123449 4.42278e-07
-0.017391 -2.25875e-21 0.00191093 2.28922e-06
0.017391 4.51751e-21 0.00191095 2.80583e-07
-0.0175 0 3.17182e-10 2.72633e-05
0.0175 0 3.17204e-10 2.51103e-06
-0.0175 -1.35525e-20 0.000105668 2.7247e-05
0.0175 0 0.000105677 2.51028e-06
-0.0172483 0 0.00325639 1.24609e-05
0.0172486 1.35525e-20 0.00325649 1.10013e-06
-0.0172989 0 0.00309098 1.28427e-05
0.0172992 -2.71051e-20 0.00309115 1.11224e-06
-0.0174288 -2.25875e-21 0.00267373 8.22437e-06
0.0174289 -7.90564e-21 0.00267377 7.3756e-07
-0.0177102 0 0.000293773 2.80793e-05
0.0177102 2.71051e-20 0.000293773 2.54886e-06
0.0177221 0 0.000903907 6.61775e-07
-0.0177221 0 0.000903906 6.54048e-06
-0.0174579 0 0.00333599 1.24971e-05
0.0174583 1.69407e-21 0.00333616 1.0692e-06
-0.017725 0 0.00155852 2.30284e-06
0.017725 -2.71051e-20 0.00155853 2.86507e-07
-0.0174806 1.69407e-21 0.00332679 1.2537e-05
0.0174809 -1.69407e-21 0.00332701 1.06776e-06
-0.0174846 1.69407e-21 0.00334611 1.25666e-05
0.0174848 0 0.00334621 1.06685e-06
-0.0175001 1.69407e-21 0.00332516 1.2418e-05
0.0175002 0 0.00332539 1.05657e-06
-0.0175001 1.69407e-21 0.00334303 1.2513e-05
0.0175002 1.69407e-21 0.00334314 1.06517e-06
-0.0175001 0 0.00335193 1.24869e-05
0.0175002 0 0.00335199 1.06454e-06
-0.0177115 0 0.00226131 2.5005e-06
0.0177116 0 0.00226134 3.17988e-07
-0.0176371 -4.51751e-21 0.00307402 1.23826e-05
0.0176373 -9.03502e-21 0.0030741 1.00603e-06
-0.0176475 -1.35525e-20 0.0030783 1.22951e-05
0.0176477 0 0.00307838 9.98619e-07
0.0179213 1.35525e-20 8.77497e-11 2.55933e-06
-0.0179213 0 8.77386e-11 2.8379e-05
0.0179253 0 9.30043e-05 2.55912e-06
-0.0179253 -1.35525e-20 9.29966e-05 2.83752e-05
-0.0180268 1.35525e-20 5.44518e-11 2.81044e-05
0.0180268 0 5.44566e-11 2.53955e-06
0.018041 -4.51751e-21 0.000581563 1.63052e-06
-0.018041 2.25875e-21 0.000581564 1.7832e-05
-0.0180514 2.25875e-21 0.00121334 4.91253e-06
0.0180514 2.25875e-21 0.00121334 5.14147e-07
-0.0177861 1.35525e-20 0.00345972 1.16978e-05
0.0177863 -1.35525e-20 0.00345982 1.0541e-06
-0.0181253 -1.35525e-20 4.99496e-11 2.83748e-05
0.0181253 -1.35525e-20 4.99535e-11 2.54571e-06
-0.0181254 0 8.36291e-05 2.83728e-05
0.0181254 0 8.36356e-05 2.54574e-06
-0.0180445 -1.88079e-37 0.00190369 2.59847e-06
0.0180446 1.12938e-21 0.0019037 3.41204e-07
-0.0178475 1.35525e-20 0.00338392 1.18184e-05
0.0178477 1.35525e-20 0.00338406 1.05891e-06
-0.0180113 2.25875e-21 0.0026365 5.41095e-06
0.0180114 -4.51751e-21 0.00263657 5.66948e-07
-0.0179205 -2.71051e-20 0.00351035 1.21676e-05
0.0179207 0 0.00351043 1.08003e-06
-0.0180604 9.03502e-22 0.00312046 9.28316e-06
0.0180605 1.35525e-21 0.00312054 8.69978e-07
-0.0183552 0 0.000282486 2.86613e-05
0.0183552 0 0.000282486 2.55587e-06
-0.0183705 0 0.000877851 7.53388e-06
0.0183705 2.71051e-20 0.000877851 7.07401e-07
-0.0183762 0 0.00153194 3.17886e-06
0.0183762 0 0.00153194 3.93333e-07
-0.018125 -6.77626e-21 0.00358731 1.28343e-05
0.0181251 6.77626e-21 0.00358737 1.15149e-06
-0.0183607 -2.71051e-20 0.00224075 2.40806e-06
0.0183607 2.71051e-20 0.00224079 3.65687e-07
-0.0182327 -3.38813e-20 0.00362784 1.27201e-05
0.0185903 -6.77626e-21 1.14543e-11 2.51487e-06
-0.0185903 6.77626e-21 1.14531e-11 2.83072e-05
0.0182331 -2.03288e-20 0.00362801 1.15085e-06
0.0185922 6.77626e-21 7.01706e-05 2.51477e-06
-0.0185923 0 7.01645e-05 2.83052e-05
-0.0182779 -4.51751e-21 0.00344862 1.25041e-05
0.0182781 4.51751e-21 0.00344876 1.12726e-06
-0.0183893 -2.71051e-20 0.00288179 3.61e-06
0.0183895 0 0.00288187 4.78103e-07
-0.0186731 0 7.47954e-12 2.7841e-05
0.0186731 1.35525e-20 7.47989e-12 2.48724e-06
0.0186856 -2.25875e-21 0.000557205 1.63475e-06
-0.0186856 0 0.000557205 1.82637e-05
-0.0187005 2.25875e-21 0.00117605 6.13637e-06
0.0187005 -2.25875e-21 0.00117605 6.30523e-07
-0.01875 0 6.97676e-12 2.78957e-05
0.01875 0 6.97711e-12 2.46939e-06
-0.01875 0 6.37614e-05 2.78962e-05
0.01875 0 6.3763e-05 2.46946e-06
-0.0186963 5.64689e-21 0.00186483 3.25799e-06
0.0186963 -2.25875e-21 0.00186484 4.64871e-07
-0.0184518 -1.35525e-20 0.00371033 1.1651e-05
0.0184522 1.35525e-20 0.00371046 1.07412e-06
-0.0186925 2.25875e-21 0.00255914 2.87748e-06
0.0186926 0 0.00255918 4.46979e-07
-0.0185639 1.35525e-20 0.00375412 1.11215e-05
0.0185642 2.71051e-20 0.00375424 1.05427e-06
-0.0185985 1.35525e-20 0.00364673 1.124e-05
0.0185988 0 0.0036469 1.05892e-06
-0.0187019 7.52918e-22 0.00326239 7.82877e-06
0.0187021 3.76459e-22 0.00326248 8.00214e-07
-0.0189931 0 0.000266634 2.75418e-05
0.0189931 -5.42101e-20 0.000266631 2.42948e-06
-0.0190119 -2.71051e-20 0.000838831 8.72259e-06
0.0190119 0 0.000838832 7.90082e-07
-0.0190242 0 0.00148406 4.92712e-06
0.0190242 0 0.00148407 6.15493e-07
-0.01875 0 0.00382122 1.09186e-05
0.0187502 0 0.00382131 1.03593e-06
-0.0190149 2.71051e-20 0.0021878 2.57027e-06
0.019015 0 0.00218782 4.86632e-07
-0.0188263 0 0.00385065 1.08508e-05
0.0188267 6.77626e-21 0.00385081 1.02354e-06
-0.0190109 -2.71051e-20 0.00288329 2.86623e-06
0.019011 2.71051e-20 0.00288335 4.57587e-07
-0.0188705 6.77626e-21 0.00377231 1.09309e-05
0.0188709 -6.77626e-21 0.0037723 1.02297e-06
0.0192614 6.77626e-21 9.27668e-13 2.38313e-06
-0.0192614 -6.77626e-21 9.27592e-13 2.66248e-05
0.0192616 0 4.56629e-05 2.38314e-06
-0.0192616 -6.77626e-21 4.56581e-05 2.66246e-05
-0.01896 3.01167e-21 0.00363203 1.05167e-05
0.0189603 7.52918e-21 0.00363218 9.78778e-07
-0.0193175 0 5.50543e-13 2.64493e-05
0.0193175 0 5.5057e-13 2.37476e-06
-0.0189237 1.35525e-20 0.00389016 1.07865e-05
0.0189243 -1.35525e-20 0.00389043 1.03393e-06
-0.019323 0 0.000517722 1.86591e-05
0.019323 -1.12938e-21 0.000517722 1.64546e-06
-0.0193664 -6.77626e-21 3.85536e-05 2.65273e-05
0.0193665 0 3.85621e-05 2.37831e-06
-0.0193681 0 5.3174e-13 2.65263e-05
0.0193681 0 5.31759e-13 2.37887e-06
0.0193603 -2.03288e-21 0.00110959 8.58378e-07
-0.0193603 6.77626e-22 0.00110959 8.49677e-06
-0.0193498 5.64689e-22 0.00179964 4.31928e-06
0.0193499 1.12938e-21 0.00179965 6.89903e-07
-0.0193334 0 0.00252257 2.7704e-06
0.0193335 0 0.0025226 5.51253e-07
-0.019126 0 0.00398495 1.0601e-05
0.0191265 0 0.00398518 1.04032e-06
-0.0191704 1.35525e-20 0.00393584 1.06727e-05
0.0191709 0 0.0039361 1.04349e-06
-0.0193002 -6.77626e-21 0.00324573 5.14481e-06
0.0193003 4.51751e-21 0.00324584 6.3873e-07
-0.0196204 0 0.000237248 2.56064e-05
0.0196204 -2.71051e-20 0.000237249 2.33105e-06
-0.0192183 1.35525e-20 0.00403232 1.11726e-05
0.0192187 0 0.00403252 1.067e-06
-0.0196558 -2.71051e-20 0.00077133 1.18683e-05
0.0196558 2.71051e-20 0.000771332 9.53441e-07
-0.0196989 3.38813e-21 2.94745e-13 2.901e-05
0.0196991 -3.38813e-21 2.94591e-13 2.39941e-06
-0.0193646 0 0.00369144 8.21193e-06
0.0193648 1.01644e-21 0.00369158 8.46192e-07
-0.0196876 -2.71051e-20 0.0013927 7.0755e-06
0.0196877 -2.71051e-20 0.0013927 9.79814e-07
-0.0196589 2.71051e-20 0.00213409 2.85606e-06
0.0196589 0 0.00213411 6.87588e-07
-0.0193749 -1.35525e-20 0.00398198 1.17697e-05
0.0193751 0 0.00398219 1.11539e-06
-0.0193749 -6.77626e-21 0.00411562 1.21771e-05
0.0193752 -1.35525e-20 0.00411575 1.14582e-06
-0.0196511 5.42101e-20 0.00284955 2.78678e-06
0.0196512 -2.71051e-20 0.0028496 5.77473e-07
-0.0199546 2.48463e-21 0.000463658 2.53427e-05
0.0199546 1.58113e-21 0.000463658 1.9489e-06
-0.0196745 0 0.00348132 3.08788e-06
0.0196747 2.71051e-20 0.00348143 4.53577e-07
-0.0195416 1.35525e-20 0.00420424 1.24326e-05
0.0195422 2.03288e-20 0.00420454 1.16312e-06
-0.0199999 0 3.09743e-13 3.04218e-05
-0.0199999 6.77626e-21 2.95891e-05 3.04613e-05
0.02 0 3.09472e-13 2.40019e-06
0.02 6.77626e-21 2.95641e-05 2.40058e-06
-0.0199999 -6.77626e-21 0.000221014 2.79461e-05
0.02 -6.77626e-21 0.000220906 2.16707e-06
-0.0200415 -6.77626e-21 5.2324e-14 3.09236e-05
0.0200415 0 5.22712e-14 2.40537e-06
-0.0196493 1.89735e-20 0.00406163 1.20184e-05
0.0196497 1.0842e-20 0.0040619 1.13685e-06
0.0200712 -6.77626e-21 2.48852e-05 2.38636e-06
-0.0200712 6.77626e-21 2.49059e-05 3.03558e-05
-0.0199944 -4.23516e-22 0.00178836 5.60213e-06
0.0199945 2.82344e-22 0.00178812 9.85231e-07
0.0200746 6.77626e-21 3.09659e-14 2.38494e-06
-0.0200747 6.77626e-21 3.10016e-14 3.02959e-05
-0.0200905 2.25875e-21 0.000960743 1.88878e-05
0.0200905 6.77626e-21 0.000960747 1.46898e-06
-0.0200183 9.68038e-22 0.00244899 3.22402e-06
0.0200184 4.84019e-22 0.00244904 7.70598e-07
-0.0197167 0 0.00429743 1.17682e-05
0.0197172 1.35525e-20 0.00429767 1.09747e-06
0.0201821 0 1.06913e-14 2.41714e-06
-0.0201822 0 1.0702e-14 3.2011e-05
-0.0199681 5.64689e-22 0.00317467 2.95304e-06
0.0199682 -1.12938e-21 0.00317474 5.64846e-07
-0.0198179 1.35525e-20 0.00435132 1.16878e-05
0.0198183 0 0.00435153 1.08593e-06
-0.0198553 0 0.0042445 1.16722e-05
0.0198557 1.35525e-20 0.00424476 1.0885e-06
-0.0199718 -3.76459e-22 0.00386197 7.82821e-06
0.0199721 7.52918e-22 0.0038621 8.13497e-07
-0.0204272 -4.51751e-21 0.00031079 3.31497e-05
0.0204272 0 0.000310794 2.42422e-06
-0.0204209 0 0.00146752 8.82367e-06
0.0204209 0 0.00146751 1.44643e-06
-0.0202843 -2.71051e-20 0.0028234 2.97549e-06
0.0202844 -5.42101e-20 0.00282345 7.62579e-07
-0.0199999 0 0.00444833 1.17431e-05
0.0200001 0 0.00444847 1.06293e-06
-0.0204145 2.71051e-20 0.0019651 4.70265e-06
0.0204145 -2.71051e-20 0.00196511 1.17535e-06
0.020525 -2.71051e-20 4.1228e-15 2.47476e-06
-0.0205251 1.35525e-20 4.11913e-15 3.43355e-05
-0.0200605 0 0.00448064 1.16991e-05
0.0200609 0 0.00448086 1.05312e-06
-0.0202767 0 0.00350288 2.94291e-06
0.0202769 2.71051e-20 0.00350297 4.80889e-07
-0.0201022 3.38813e-21 0.00441312 1.16525e-05
0.0201026 0 0.00441316 1.05183e-06
-0.0201274 1.35525e-20 0.00451629 1.19901e-05
0.020128 -6.77626e-21 0.00451661 1.06143e-06
-0.0202113 0 0.00425304 1.09467e-05
0.0202117 2.25875e-21 0.00425325 1.00535e-06
-0.0206625 7.26028e-22 0.00085733 3.09042e-05
0.0206626 0 0.000857304 2.10694e-06
0.0206911 0 7.75388e-16 2.70353e-06
-0.0206911 1.35525e-20 7.66862e-16 4.27498e-05
-0.0206295 0 0.00169559 7.26877e-06
0.0206296 0 0.00169559 1.4185e-06
0.0206304 8.47033e-22 0.00244041 1.1067e-06
-0.0206304 5.64689e-22 0.00244039 4.08575e-06
-0.0205957 1.69407e-21 0.00315759 3.14201e-06
0.0205958 -2.25875e-21 0.00315764 7.59763e-07
-0.0203417 1.35525e-20 0.00463048 1.2566e-05
0.0203423 1.35525e-20 0.00463076 1.06566e-06
-0.0208473 0 0.00142109 9.44621e-06
0.0208474 0 0.00142107 1.67334e-06
-0.0203947 0 0.00457337 1.2618e-05
0.0203952 0 0.00457368 1.06946e-06
-0.0205529 4.51751e-21 0.00387353 5.76118e-06
0.0205531 6.77626e-21 0.00387367 6.8126e-07
-0.0208263 2.71051e-20 0.00194409 6.36757e-06
0.0208264 2.71051e-20 0.00194412 1.49767e-06
0.020952 0 1.83774e-16 3.04776e-06
-0.020952 6.77626e-21 1.79817e-16 5.36572e-05
-0.0209679 8.47033e-22 0.000112156 5.4911e-05
0.020968 8.47033e-22 0.000113077 3.08722e-06
-0.0204458 0 0.00468592 1.36018e-05
-0.020976 1.69407e-20 3.9622e-17 5.49202e-05
0.0209762 0 4.13665e-17 3.0797e-06
0.0204463 0 0.00468616 1.09306e-06
-0.020982 -1.12938e-21 0.000349498 5.45462e-05
0.020982 0 0.000349472 3.0739e-06
-0.0206056 0 0.00432294 9.87494e-06
0.020606 -1.12938e-22 0.00432311 8.75628e-07
-0.020934 -2.71051e-20 0.00277552 3.63042e-06
0.0209341 0 0.00277553 1.16825e-06
-0.0206248 6.77626e-21 0.0047813 1.58134e-05
0.0206252 6.77626e-21 0.00478146 1.17664e-06
-0.0208973 -5.42101e-20 0.00349614 3.03621e-06
0.0208974 0 0.00349622 6.44527e-07
-0.0212499 0 -2.75442e-16 7.18234e-05
0.02125 1.35525e-20 -2.77536e-16 3.46848e-06
-0.0207397 -6.77626e-21 0.00484247 1.6426e-05
0.0207403 0 0.00484278 1.18608e-06
-0.0207849 9.03502e-21 0.00466272 1.53725e-05
0.0207853 -9.03502e-21 0.00466297 1.15293e-06
-0.020919 2.71051e-20 0.00411646 4.39042e-06
0.0209192 -2.71051e-20 0.00411659 4.86679e-07
0.0212543 -5.64689e-22 0.00168707 1.83456e-06
-0.0212543 0 0.00168707 9.23239e-06
-0.0213187 -4.51751e-21 0.000900035 5.02673e-05
0.0213188 7.52918e-22 0.000900008 2.88557e-06
-0.0213462 -2.71051e-20 0.000122217 8.18704e-05
0.0213464 -1.35525e-20 0.00012242 3.7173e-06
-0.0213549 0 -2.33939e-18 8.17934e-05
0.0213552 -1.35525e-20 -1.63806e-18 3.71105e-06
-0.0212895 -1.12938e-21 0.00229431 6.07371e-06
0.0212896 -1.12938e-21 0.00229433 1.61451e-06
-0.0214256 0 -2.50254e-16 7.98321e-05
0.0214259 1.35525e-20 -2.51161e-16 3.70454e-06
-0.0212264 1.35525e-21 0.00310849 3.86371e-06
0.0212264 -4.51751e-22 0.00310854 1.1494e-06
-0.0209343 1.35525e-20 0.00494614 1.58209e-05
0.0209347 0 0.00494637 1.11347e-06
-0.0212106 0 0.00381734 3.94437e-06
0.0212108 0 0.00381742 6.53742e-07
-0.0215712 -2.71051e-20 0.00012748 8.51634e-05
0.0215719 -1.35525e-20 0.000127708 3.89756e-06
-0.0216067 -1.35525e-20 1.47709e-16 8.53275e-05
0.0216074 0 1.47411e-16 3.9013e-06
-0.0210472 -1.35525e-20 0.00500632 1.61462e-05
0.0210476 -1.35525e-20 0.00500653 1.10402e-06
-0.0210903 4.06576e-20 0.00488671 1.59745e-05
0.0210906 -2.71051e-20 0.00488695 1.10624e-06
-0.0212076 -3.76459e-22 0.00450561 1.08342e-05
0.0212079 0 0.00450575 8.42858e-07
-0.0215471 2.71051e-20 0.00276785 4.55094e-06
0.0215472 2.71051e-20 0.00276787 1.68942e-06
-0.0215274 0 0.00347138 3.65723e-06
0.0215275 0 0.00347143 9.70348e-07
-0.0212498 3.38813e-21 0.00511424 1.68572e-05
0.0212501 3.38813e-21 0.00511439 1.06179e-06
-0.0212808 0 0.00513076 1.68563e-05
0.0212812 0 0.00513096 1.05578e-06
-0.0213035 3.38813e-21 0.00509491 1.67518e-05
0.0213039 0 0.00509497 1.05537e-06
-0.0215161 0 0.00414681 4.65104e-06
0.0215163 0 0.00414691 5.37697e-07
-0.0213152 -6.77626e-21 0.00514909 1.72687e-05
0.0213157 0 0.00514937 1.05893e-06
-0.0219061 0 0.00171816 1.23235e-05
0.0219062 0 0.00171816 2.46408e-06
-0.0214404 9.03502e-21 0.00489762 1.52736e-05
0.0214407 0 0.00489781 1.00625e-06
-0.0218827 8.47033e-22 0.00243282 6.56769e-06
0.0218828 3.5293e-22 0.00243287 2.06283e-06
-0.0220248 0 0.000514809 0.000107124
0.0220249 5.42101e-20 0.00051481 4.68687e-06
-0.0218548 1.12938e-21 0.0031111 4.57695e-06
0.0218549 -5.64689e-22 0.00311112 1.59338e-06
-0.0218321 -3.38813e-21 0.00380917 4.54887e-06
0.0218322 1.12938e-21 0.00380923 9.26373e-07
-0.0215576 1.35525e-20 0.00527824 1.93842e-05
0.0215581 1.35525e-20 0.00527848 1.04733e-06
-0.021618 1.35525e-20 0.00521392 1.94053e-05
0.0216184 0 0.00521418 1.05367e-06
-0.0217926 0 0.00451283 8.91083e-06
0.0217928 -2.25875e-21 0.00451296 7.3822e-07
-0.0216748 2.71051e-20 0.00534064 2.13592e-05
0.0216752 2.71051e-20 0.00534085 1.08911e-06
-0.0221928 -2.71051e-20 0.002747 5.5062e-06
0.0221928 0 0.00274702 2.27892e-06
-0.0218358 6.77626e-22 0.0049689 1.56964e-05
0.0218361 -4.51751e-22 0.00496905 8.92329e-07
-0.0221555 0 0.0034489 4.58419e-06
0.0221556 0 0.00344894 1.43313e-06
-0.0224999 -1.35525e-20 1.84423e-16 0.00011604
0.0224999 0 1.84066e-16 5.11483e-06
-0.0224999 -2.71051e-20 0.000132933 0.000117142
0.0224999 -2.71051e-20 0.000132958 5.16126e-06
-0.0221425 0 0.00413734 5.26918e-06
0.0221426 0 0.00413741 7.8518e-07
-0.0218748 -6.77626e-21 0.00544721 2.61659e-05
0.0218751 1.01644e-20 0.00544736 1.17879e-06
-0.0225914 -4.51751e-21 0.00111537 7.20705e-05
0.0225915 -4.51751e-21 0.00111537 4.25666e-06
-0.0219453 1.69407e-20 0.00548473 2.69728e-05
0.0219458 1.69407e-20 0.00548498 1.18465e-06
-0.0220187 0 0.00530677 2.50379e-05
0.0220191 0 0.00530698 1.15039e-06
-0.0221556 2.71051e-20 0.00476086 8.39103e-06
0.0221558 2.71051e-20 0.00476098 5.48866e-07
-0.0226679 -2.71051e-20 -7.53412e-18 0.000121309
0.0226681 0 -7.58207e-18 5.3516e-06
-0.0225575 -3.38813e-21 0.00228412 1.03671e-05
0.0225575 -3.38813e-21 0.00228413 2.71484e-06
-0.0224843 5.64689e-22 0.00307682 5.87294e-06
0.0224843 2.82344e-22 0.00307685 2.1127e-06
0.0224597 0 0.00375134 1.31655e-06
-0.0224599 -3.38813e-21 0.00375127 5.4874e-06
0.0225 0 0.00363425 1.47183e-06
-0.0225 1.27055e-21 0.00363494 5.57751e-06
-0.0225051 0 0.00374485 5.54912e-06
0.0225052 -4.23516e-22 0.00374487 1.34285e-06
-0.0225 4.65868e-21 0.00378724 5.6508e-06
0.0225001 -4.23516e-22 0.00378756 1.3126e-06
-0.0228182 0 0.000138953 0.000129209
0.0228183 0 0.000138995 5.64011e-06
-0.0228294 0 -4.61624e-18 0.000129277
0.0228296 2.71051e-20 -4.63904e-18 5.64194e-06
-0.0221583 1.35525e-20 0.00559821 2.60906e-05
0.0221587 -1.35525e-20 0.00559841 1.11402e-06
-0.0225497 -1.27055e-21 0.00374904 5.66356e-06
0.0225501 -4.23516e-22 0.00374909 1.3769e-06
-0.0224518 2.25875e-21 0.00446274 7.35878e-06
0.022452 -2.25875e-21 0.00446282 7.91118e-07
-0.0222812 1.35525e-20 0.00566371 2.68512e-05
0.0222816 -2.71051e-20 0.00566387 1.09793e-06
-0.0223282 -1.35525e-20 0.00553398 2.64689e-05
0.0223285 1.35525e-20 0.00553418 1.10106e-06
-0.0224429 -7.52918e-22 0.00515541 1.86518e-05
0.0224431 2.63521e-21 0.00515553 8.77937e-07
-0.0229083 0 0.002849 7.64856e-06
0.0229083 -5.42101e-20 0.002849 2.8647e-06
-0.0227694 2.71051e-20 0.0041284 6.5605e-06
0.0227695 -2.71051e-20 0.00412845 1.19641e-06
-0.022907 2.71051e-20 0.00330615 6.23689e-06
0.022907 -2.71051e-20 0.00330618 2.18827e-06
-0.0224999 -8.47033e-22 0.00578016 2.8898e-05
0.0225001 0 0.00578025 1.08515e-06
-0.022509 0 0.00578499 2.89031e-05
0.0225093 0 0.00578515 1.08427e-06
-0.0225157 0 0.00577432 2.88335e-05
0.0225161 0 0.00577434 1.08417e-06
-0.0225192 5.0822e-21 0.00579044 2.91332e-05
-0.0231859 -1.0842e-19 0.00175342 1.97745e-05
0.0231859 5.42101e-20 0.00175342 3.49526e-06
0.0225196 -1.01644e-20 0.00579066 1.08599e-06
-0.0232456 0 0.000558692 0.000141351
0.0232457 -5.42101e-20 0.000558711 6.20792e-06
-0.0227557 0 0.00479293 9.08364e-06
0.0227559 -2.71051e-20 0.00479302 6.57653e-07
-0.0231485 8.47033e-22 0.00241751 1.13297e-05
0.0231485 2.5411e-21 0.00241752 3.06793e-06
-0.0231146 0 0.00307521 7.09375e-06
0.0231146 -1.35525e-20 0.00307522 2.61474e-06
-0.0226733 4.51751e-21 0.00554788 2.58563e-05
0.0226736 1.50584e-21 0.00554803 1.02997e-06
-0.023097 7.52918e-22 0.00377993 7.05613e-06
0.023097 0 0.00377995 1.76707e-06
-0.0230771 -2.25875e-21 0.00445731 8.56045e-06
0.0230772 1.12938e-21 0.00445735 1.11346e-06
-0.0233413 0 0.00284259 7.61788e-06
0.0233413 0 0.0028426 2.95681e-06
-0.023307 8.13152e-20 0.00329649 7.20605e-06
0.0233071 2.71051e-20 0.00329651 2.56791e-06
-0.0227839 0 0.00593173 3.39769e-05
0.0227842 0 0.00593191 1.10552e-06
-0.0228491 0 0.00586239 3.38384e-05
0.0228494 1.35525e-20 0.00586258 1.11116e-06
-0.023032 -2.25875e-21 0.00515826 1.62617e-05
0.0230322 4.51751e-21 0.00515836 8.06643e-07
-0.0229106 0 0.00599952 3.62737e-05
0.0229109 2.71051e-20 0.00599968 1.16868e-06
-0.02307 -4.51751e-22 0.00562146 2.78328e-05
0.0230702 9.03502e-22 0.00562158 9.4741e-07
0.02375 1.35525e-20 -2.43292e-18 6.53766e-06
-0.02375 1.35525e-20 -2.41367e-18 0.000144763
0.02375 0 0.000111054 6.54496e-06
-0.02375 0 0.000111013 0.000144859
-0.0234167 -5.42101e-20 0.00409117 8.24739e-06
0.0234167 -2.71051e-20 0.0040912 1.7034e-06
-0.023377 -2.71051e-20 0.00479103 1.02487e-05
0.0233771 -2.71051e-20 0.00479109 9.22049e-07
-0.0238362 -6.77626e-21 0.0011485 8.62228e-05
0.0238362 -2.25875e-21 0.00114851 5.30169e-06
-0.0238811 0 -9.76369e-20 0.00014518
0.0238811 1.35525e-20 -9.76012e-20 6.61501e-06
-0.0231249 0 0.00611529 4.43375e-05
0.0231251 -6.77626e-21 0.00611542 1.30554e-06
-0.0238207 3.38813e-21 0.0023609 1.58603e-05
0.0238207 3.38813e-21 0.00236091 3.47581e-06
0.02375 -4.23516e-22 0.00306544 2.93059e-06
-0.02375 0 0.00306542 8.61643e-06
-0.0231675 2.71051e-20 0.00613811 4.5064e-05
0.0231678 -1.01644e-20 0.00613829 1.31486e-06
-0.0239958 -2.71051e-20 0.000113682 0.000147869
0.0239958 0 0.000113711 6.75331e-06
-0.0240047 -1.35525e-20 1.15233e-20 0.000147886
0.0240048 -1.35525e-20 1.14799e-20 6.75388e-06
-0.0232579 -9.03502e-21 0.00596069 4.2242e-05
0.0232581 0 0.00596085 1.26526e-06
-0.0233938 -2.71051e-20 0.00541135 1.70245e-05
0.023394 2.71051e-20 0.00541144 6.05833e-07
-0.0237524 1.31761e-21 0.00364844 9.09651e-06
0.0237525 -2.5411e-21 0.00364848 2.25459e-06
-0.0237062 -1.12938e-21 0.00443801 1.05711e-05
0.0237062 1.12938e-21 0.00443804 1.52043e-06
-0.0233932 1.35525e-20 0.00626089 4.28718e-05
0.0233933 0 0.00626103 1.254e-06
-0.0236906 -1.12938e-21 0.00510847 1.45399e-05
0.0236907 0 0.00510853 8.88115e-07
-0.0235126 -2.03288e-20 0.00635102 4.22749e-05
0.0235127 0 0.00635113 1.22891e-06
-0.0235682 -1.35525e-20 0.0062058 4.21737e-05
0.0235683 -2.71051e-20 0.00620594 1.23189e-06
-0.0240297 0 0.00408462 1.07425e-05
0.0240297 0 0.00408465 2.15869e-06
-0.0236813 3.76459e-22 0.00581872 3.16209e-05
0.0236814 3.38813e-21 0.0058188 9.82296e-07
-0.0240098 0 0.00476744 1.29428e-05
0.0240099 -5.42101e-20 0.00476747 1.29839e-06
-0.0244727 5.42101e-20 0.00057972 0.000151658