# kMean  POINT_DATA 14923
# x  y  z  kMean
1.35525e-20 -0.014142 8.4025e-08 3.06823e-06
-1.35525e-20 0.014142 8.4025e-08 5.52668e-07
0 -0.014142 0.000246012 2.99372e-06
-6.77626e-21 0.014142 0.000246009 5.52232e-07
-1.69407e-20 -0.014142 0.000413826 3.26521e-06
6.77626e-21 0.014142 0.00041383 5.81445e-07
-1.35525e-20 -0.014142 0.000659755 4.13429e-06
-1.35525e-20 0.014142 0.000659755 6.67655e-07
0 0.014142 0.000918785 7.44623e-07
3.38813e-21 -0.014142 0.000918783 4.79538e-06
1.35525e-20 0.014142 0.00109555 7.55624e-07
3.38813e-21 -0.014142 0.00109556 4.9566e-06
1.35525e-20 0.014142 0.00135458 7.10751e-07
0 -0.014142 0.00135458 4.76766e-06
0 0.014142 0.00162762 6.42781e-07
-6.77626e-21 -0.014142 0.00162761 4.24482e-06
0 -0.014253 0.00012398 3.03248e-06
0 0.014253 0.000123977 5.52486e-07
0 -0.0142541 8.84505e-08 3.03221e-06
-1.35525e-20 0.0142541 8.84502e-08 5.52484e-07
-3.38813e-21 0.014142 0.00181395 6.30308e-07
-6.77626e-21 -0.014142 0.00181396 4.41647e-06
0 -0.014253 0.000533539 3.69506e-06
0 0.014253 0.000533544 6.23782e-07
0 0.0142487 0.00077903 7.07819e-07
0 -0.0142487 0.000779034 4.48221e-06
-1.35525e-20 0.014142 0.002087 6.64484e-07
1.35525e-20 -0.014142 0.002087 5.5564e-06
-1.35525e-20 0.0142487 0.00120328 7.34222e-07
1.35525e-20 -0.0142487 0.00120328 4.86914e-06
0 0.014243 0.00144974 6.73795e-07
1.35525e-20 -0.014243 0.00144974 4.48581e-06
0 0.014243 0.00188498 6.44662e-07
1.35525e-20 -0.014243 0.00188498 4.88673e-06
-2.71051e-20 -0.014375 9.00163e-08 4.45603e-06
1.35525e-20 0.014375 9.00164e-08 7.00681e-07
1.35525e-20 0.014375 0.0006466 6.7718e-07
-2.71051e-20 -0.014375 0.0006466 4.30047e-06
-6.77626e-21 0.0142627 0.00213224 6.79134e-07
-6.77626e-21 -0.0142627 0.00213225 6.05898e-06
0 0.0142992 0.00204049 6.73335e-07
1.35525e-20 -0.0142992 0.00204049 5.8547e-06
0 0.014391 0.00158911 6.32647e-07
0 -0.014391 0.00158911 4.29284e-06
-6.77626e-21 -0.014375 0.00187841 4.50987e-06
0 0.014375 0.0018784 5.71869e-07
0 0.0144892 0.000865926 7.67344e-07
5.42101e-21 -0.0144892 0.000865928 5.13208e-06
0 0.0144694 0.00125569 5.69605e-07
-4.51751e-21 -0.0144694 0.0012557 3.74737e-06
1.35525e-20 0.014375 0.00217431 6.70644e-07
2.71051e-20 -0.014375 0.00217431 6.0617e-06
-2.25875e-21 -0.0145461 0.000325602 4.26979e-06
-2.25875e-21 0.0145461 0.000325595 6.77352e-07
2.71051e-20 -0.0145532 9.53759e-08 4.59314e-06
1.35525e-20 0.0145533 9.53758e-08 7.09367e-07
2.71051e-20 0.0145143 0.00222654 6.7033e-07
0 -0.0145144 0.00222654 6.12223e-06
-1.93608e-21 0.0146051 0.00164978 5.07759e-07
1.35525e-20 -0.0146051 0.00164978 3.72864e-06
-2.82344e-22 -0.014583 0.00195698 5.56526e-06
-1.41172e-22 0.0145828 0.00195868 6.59809e-07
0 -0.0147323 1.05322e-07 6.88416e-06
0 0.0147324 1.05321e-07 9.41645e-07
-2.25875e-21 0.014715 0.000923757 5.49818e-07
-4.51751e-21 -0.014715 0.000923762 3.15531e-06
-2.71051e-20 0.0145865 0.0022536 6.81848e-07
0 -0.0145866 0.00225361 6.72907e-06
-2.25875e-21 0.0146936 0.00145601 3.95828e-07
2.25875e-21 -0.0146936 0.00145601 2.29101e-06
1.35525e-20 -0.0148202 0.000134139 7.78774e-06
1.35525e-20 0.0148203 0.000134125 1.05137e-06
-1.35525e-20 -0.0148273 9.52379e-08 7.7632e-06
0 0.0148274 9.52384e-08 1.04754e-06
-1.35525e-20 -0.0148725 9.04366e-08 8.35958e-06
1.35525e-20 0.0148726 9.04378e-08 1.06143e-06
6.45358e-21 -0.01487 0.000655521 5.01557e-06
3.22679e-21 0.01487 0.000655519 6.99674e-07
1.00389e-21 0.014845 0.00120712 3.62119e-07
-7.27821e-21 -0.014845 0.00120713 2.28567e-06
0 0.0147312 0.00230781 7.09576e-07
0 -0.0147313 0.00230783 7.60012e-06
3.01167e-21 0.0148274 0.00162659 3.82694e-07
-6.02335e-21 -0.0148274 0.0016266 2.88889e-06
1.35525e-20 -0.015 7.90261e-08 1.00333e-05
-1.35525e-20 0.015 7.90279e-08 1.20105e-06
-1.35525e-20 -0.015 0.000133974 1.01423e-05
-2.71051e-20 0.015 0.000133967 1.21023e-06
-3.76459e-22 0.0149713 0.00204049 6.97049e-07
1.50584e-21 -0.0149714 0.0020405 7.5677e-06
-3.38813e-21 -0.015 0.00225359 7.87327e-06
-1.69407e-21 0.015 0.0022537 7.03973e-07
-3.38813e-21 -0.015 0.00240853 7.86423e-06
3.38813e-21 0.015 0.00240854 6.90243e-07
2.37169e-20 0.0150362 0.00242211 6.85212e-07
0 -0.0150362 0.00242211 7.82582e-06
1.35525e-20 -0.0152271 0.000388227 1.12494e-05
1.35525e-20 0.0152271 0.000388232 1.28186e-06
-4.51751e-21 0.0152249 0.000912209 4.16186e-07
9.03502e-21 -0.0152249 0.000912211 2.96998e-06
4.51751e-21 0.0151957 0.00150814 2.5308e-07
0 -0.0151957 0.00150814 1.82141e-06
-3.38813e-21 0.015119 0.00245307 6.73156e-07
3.38813e-21 -0.015119 0.0024531 7.79572e-06
0 0.0153316 0.000145214 1.47858e-06
1.35525e-20 -0.0153316 0.000145203 1.33484e-05
1.35525e-20 0.0153419 1.97572e-08 1.47695e-06
0 -0.015342 1.97541e-08 1.33297e-05
0 -0.0154304 0.000610593 8.29257e-06
2.71051e-20 0.0154304 0.000610592 9.25381e-07
2.71051e-20 -0.0154185 0.00121382 2.06954e-06
2.71051e-20 0.0154185 0.00121382 2.90881e-07
1.35525e-20 0.0154797 7.97399e-09 1.54342e-06
0 -0.0154798 7.9711e-09 1.45973e-05
-1.35525e-20 0.0152769 0.00251208 6.64183e-07
0 -0.0152769 0.0025121 7.85404e-06
-5.42101e-20 0.0153758 0.00187005 4.16082e-07
-2.71051e-20 -0.0153758 0.00187006 4.02479e-06
-6.77626e-21 0.0153108 0.00239814 6.54364e-07
0 -0.0153108 0.00239814 7.69113e-06
-4.51751e-21 -0.0153783 0.00228563 7.5706e-06
-1.12938e-21 0.0153783 0.00228563 6.50428e-07
-1.35525e-20 0.015625 7.21206e-09 1.66951e-06
0 -0.015625 7.20961e-09 1.65993e-05
0 -0.015625 0.000148496 1.67533e-05
-1.35525e-20 0.015625 0.0001485 1.67917e-06
-1.35525e-20 -0.0154657 0.00258282 8.26899e-06
0 0.0154657 0.00258282 6.98394e-07
4.51751e-21 0.0157806 0.00040103 1.58933e-06
4.51751e-21 -0.0157806 0.000401034 1.65413e-05
2.25875e-21 -0.0157685 0.000915143 4.47087e-06
0 0.0157685 0.000915143 5.21124e-07
1.12938e-20 -0.0157412 0.00155218 1.94279e-06
-2.25875e-21 0.0157412 0.00155219 2.33337e-07
0 -0.0156535 0.0023135 6.67403e-06
-8.47033e-22 0.0156535 0.00231351 5.84008e-07
1.35525e-20 0.0156249 0.00255355 6.94891e-07
1.35525e-20 -0.0156249 0.00255354 8.04396e-06
6.77626e-21 0.0156249 0.0026425 6.99599e-07
-6.77626e-21 -0.0156249 0.00264251 8.07761e-06
-1.35525e-20 -0.0157486 0.00207232 3.73659e-06
0 0.0157486 0.00207233 3.64395e-07
1.35525e-20 0.01594 0.000153358 1.92789e-06
1.35525e-20 -0.01594 0.000153357 2.08129e-05
0 0.0159518 6.42218e-09 1.9272e-06
-2.71051e-20 -0.0159518 6.42129e-09 2.08054e-05
2.71051e-20 -0.0157578 0.00269219 8.39069e-06
2.71051e-20 0.0157578 0.00269219 7.19031e-07
-1.35525e-20 -0.0157996 0.0025293 8.34084e-06
1.35525e-20 0.0157996 0.00252931 7.13789e-07
-1.35525e-20 -0.0161003 5.64387e-09 2.19754e-05
1.35525e-20 0.0161003 5.64434e-09 1.98143e-06
0 -0.0160445 0.00191468 3.46093e-06
0 0.0160445 0.0019147 3.3004e-07
0 -0.0159573 0.00276704 1.15607e-05
0 0.0159573 0.00276704 8.56668e-07
1.16165e-20 0.0161556 0.00116841 3.95187e-07
-1.54886e-20 -0.0161556 0.00116841 3.36938e-06
-9.03502e-21 -0.0161993 0.000607818 1.3741e-05
-4.51751e-21 0.0161993 0.000607817 1.27168e-06
-2.25875e-21 -0.0160484 0.0023249 6.22306e-06
-4.51751e-21 0.0160484 0.00232494 5.22097e-07
1.35525e-20 -0.01625 4.91522e-09 2.35101e-05
2.71051e-20 0.01625 4.91559e-09 2.06163e-06
1.35525e-20 -0.01625 0.000141091 2.34924e-05
0 0.01625 0.000141095 2.0607e-06
-9.03502e-21 -0.0162996 0.00156705 2.18642e-06
4.51751e-21 0.0162996 0.00156705 2.4332e-07
-2.71051e-20 0.0164196 0.000304857 2.15811e-06
0 -0.0164196 0.000304857 2.52786e-05
0 0.0164158 0.000921443 5.15254e-07
0 -0.0164158 0.000921442 4.46602e-06
-1.89735e-20 -0.0163183 0.00211157 3.29768e-06
2.71051e-21 0.0163183 0.00211158 2.91676e-07
-1.35525e-20 0.0162498 0.00287804 9.97142e-07
2.37169e-20 -0.0162499 0.00287808 1.45864e-05
6.77626e-21 -0.016295 0.00289505 1.49383e-05
-1.01644e-20 0.0162953 0.00289514 1.01366e-06
1.12938e-20 -0.0163566 0.00265265 1.32057e-05
-4.51751e-21 0.0163567 0.00265268 9.19328e-07
-1.35525e-20 0.0165943 2.17699e-09 2.22259e-06
1.35525e-20 -0.0165943 2.17678e-09 2.6589e-05
1.35525e-20 0.0165961 0.000135303 2.22253e-06
0 -0.0165961 0.000135298 2.65879e-05
1.35525e-20 -0.0167375 1.46118e-09 2.72985e-05
-1.35525e-20 0.0167375 1.4613e-09 2.25206e-06
9.03502e-21 0.0167397 0.000605527 1.42436e-06
2.25875e-21 -0.0167397 0.000605529 1.66887e-05
0 -0.0167333 0.00124398 3.8227e-06
-6.77626e-21 0.0167333 0.00124398 3.90912e-07
2.25875e-21 -0.0167335 0.00188821 2.54139e-06
6.77626e-21 0.0167335 0.00188822 2.41525e-07
2.71051e-20 -0.0165883 0.00300631 1.53443e-05
2.71051e-20 0.0165884 0.00300634 1.02576e-06
0 -0.016875 1.28939e-09 2.83681e-05
0 0.016875 1.28948e-09 2.29728e-06
0 -0.016875 0.000125695 2.83388e-05
-1.35525e-20 0.016875 0.000125698 2.29601e-06
-4.51751e-21 -0.0167209 0.00239031 6.81069e-06
-9.03502e-21 0.016721 0.00239038 5.06528e-07
-2.71051e-20 0.017064 0.000300536 2.3654e-06
0 -0.017064 0.000300536 2.97447e-05
-6.77626e-21 -0.0168116 0.00309149 1.86104e-05
6.77626e-21 0.0168118 0.00309158 1.17289e-06
0 0.0170693 0.000918164 6.33343e-07
2.71051e-20 -0.0170693 0.000918164 6.99027e-06
0 0.0170657 0.00156933 2.27751e-07
-5.42101e-20 -0.0170657 0.00156932 2.23217e-06
0 0.0168748 0.00300443 1.18362e-06
3.38813e-21 -0.016875 0.0030038 1.88398e-05
6.77626e-21 0.0168748 0.00311544 1.15868e-06
3.38813e-21 -0.0168751 0.00311552 1.83419e-05
2.25875e-21 -0.0169659 0.00280947 1.7025e-05
-4.51751e-21 0.016966 0.00280951 1.08719e-06
2.71051e-20 -0.0170634 0.00223057 3.28786e-06
0 0.0170635 0.00223059 2.83275e-07
-1.35525e-20 0.0172527 5.17858e-10 2.41292e-06
0 -0.0172527 5.17805e-10 3.07763e-05
0 0.0172566 0.000116566 2.41295e-06
1.35525e-20 -0.0172566 0.000116563 3.07741e-05
0 -0.0173799 3.52927e-10 3.10092e-05
1.35525e-20 0.0173799 3.52962e-10 2.42975e-06
0 -0.0170862 0.00319594 1.65302e-05
2.71051e-20 0.0170864 0.00319602 1.06837e-06
-2.25875e-21 0.0173907 0.00059721 1.55576e-06
0 -0.0173907 0.000597212 1.94249e-05
0 0.0173953 0.00123436 4.5573e-07
0 -0.0173953 0.00123436 5.00664e-06
-4.51751e-21 -0.0173902 0.00191068 2.93189e-06
6.77626e-21 0.0173903 0.00191069 2.75237e-07
-1.35525e-20 -0.0175 3.17172e-10 3.16183e-05
0 0.0175 3.17202e-10 2.45935e-06
0 -0.0175 0.000105685 3.16004e-05
0 0.0175 0.000105687 2.45854e-06
1.35525e-20 -0.0172465 0.00325641 1.68215e-05
2.03288e-20 0.0172466 0.00325643 1.03205e-06
0 -0.0172976 0.00309008 1.6796e-05
-1.35525e-20 0.0172976 0.00309027 1.0421e-06
3.76158e-37 -0.017428 0.00267359 9.89283e-06
2.25875e-21 0.017428 0.00267359 6.8757e-07
0 -0.0177101 0.000293755 3.26569e-05
0 0.0177101 0.000293755 2.50753e-06
0 0.0177219 0.000903839 6.77225e-07
2.71051e-20 -0.0177219 0.000903839 7.83596e-06
1.69407e-21 -0.0174509 0.00333352 1.514e-05
1.69407e-21 0.0174516 0.00333379 1.00377e-06
0 -0.0174774 0.00332287 1.4966e-05
1.69407e-21 0.0174776 0.00332332 1.00205e-06
0 0.0177246 0.00155835 2.80947e-07
2.71051e-20 -0.0177246 0.00155834 2.93804e-06
0 -0.0174819 0.00334524 1.48171e-05
0 0.0174821 0.0033453 1.00108e-06
0 0.0174998 0.00332151 9.8991e-07
0 -0.0174999 0.00332104 1.46227e-05
0 0.0174997 0.00334181 9.99409e-07
1.69407e-21 -0.0174999 0.00334168 1.47538e-05
0 0.0174997 0.00335193 9.98852e-07
0 -0.0174999 0.00335198 1.47228e-05
0 -0.0177108 0.00226099 3.25146e-06
2.71051e-20 0.0177108 0.00226103 3.08547e-07
4.51751e-21 -0.0176353 0.00307333 1.34011e-05
-1.807e-20 0.0176354 0.00307341 9.40165e-07
0 -0.0176459 0.00307764 1.32129e-05
-2.71051e-20 0.0176459 0.00307771 9.33086e-07
0 0.0179213 8.77536e-11 2.51938e-06
1.35525e-20 -0.0179213 8.77438e-11 3.28782e-05
0 0.0179252 9.30173e-05 2.51923e-06
2.71051e-20 -0.0179252 9.30153e-05 3.28743e-05
0 -0.0180268 5.44536e-11 3.25502e-05
0 0.0180268 5.44591e-11 2.50548e-06
2.25875e-21 0.0180409 0.00058155 1.62523e-06
1.12938e-20 -0.0180409 0.000581551 2.1068e-05
-2.25875e-21 -0.0180512 0.00121327 6.46054e-06
-3.38813e-21 0.0180512 0.00121327 5.25682e-07
-2.71051e-20 -0.0177836 0.00345876 1.39734e-05
-1.35525e-20 0.0177837 0.00345884 9.9334e-07
0 -0.0181253 4.99506e-11 3.26832e-05
0 0.0181253 4.99554e-11 2.50829e-06
1.35525e-20 -0.0181254 8.3647e-05 3.26831e-05
0 0.0181254 8.3649e-05 2.50832e-06
-1.12938e-21 -0.018044 0.00190351 3.52262e-06
-3.38813e-21 0.018044 0.00190353 3.32996e-07
-2.71051e-20 -0.0178455 0.00338256 1.41096e-05
0 0.0178456 0.00338271 9.97611e-07
9.03502e-21 -0.0180105 0.00263587 6.69179e-06
2.25875e-21 0.0180106 0.00263595 5.36836e-07
0 -0.0179191 0.00350977 1.45014e-05
0 0.0179192 0.00350979 1.01916e-06
1.35525e-21 -0.0180589 0.00311996 1.1268e-05
-1.35525e-21 0.018059 0.00312002 8.22762e-07
-5.42101e-20 -0.0183552 0.000282486 3.28971e-05
-5.42101e-20 0.0183552 0.000282486 2.52006e-06
2.71051e-20 0.0183704 0.000877818 7.48759e-07
0 -0.0183704 0.000877817 1.02857e-05
2.71051e-20 -0.0183759 0.00153184 4.72794e-06
-2.71051e-20 0.018376 0.00153185 3.89535e-07
1.35525e-20 0.0181249 0.00358718 1.08847e-06
0 -0.018125 0.00358724 1.5391e-05
0 -0.0183601 0.00224052 3.19449e-06
0 0.0183602 0.00224054 3.52345e-07
1.35525e-20 -0.0182298 0.00362666 1.52936e-05
6.77626e-21 0.0182303 0.00362685 1.08916e-06
0 0.0185903 1.14547e-11 2.49617e-06
-6.77626e-21 -0.0185903 1.14538e-11 3.26963e-05
-1.35525e-20 0.0185922 7.01833e-05 2.49615e-06
-1.35525e-20 -0.0185922 7.01798e-05 3.26963e-05
-9.03502e-21 -0.0182769 0.00344764 1.50205e-05
1.807e-20 0.018277 0.00344781 1.06585e-06
2.71051e-20 -0.0183886 0.0028814 4.87295e-06
0 0.0183886 0.00288148 4.58722e-07
0 -0.0186731 7.47945e-12 3.24388e-05
0 0.0186731 7.4798e-12 2.47829e-06
0 -0.0186856 0.000557203 2.18124e-05
-1.12938e-21 0.0186856 0.000557203 1.64591e-06
-1.12938e-21 -0.0187004 0.00117602 8.1945e-06
1.12938e-21 0.0187004 0.00117602 6.40887e-07
0 -0.01875 6.97661e-12 3.23634e-05
-2.03288e-20 0.01875 6.97695e-12 2.46366e-06
0 -0.01875 6.37723e-05 3.23639e-05
1.35525e-20 0.01875 6.37728e-05 2.46371e-06
2.25875e-21 -0.018696 0.00186471 4.46782e-06
2.25875e-21 0.018696 0.00186473 4.51534e-07
-1.35525e-20 -0.0184505 0.00370969 1.40512e-05
2.71051e-20 0.0184507 0.00370979 1.01889e-06
3.38813e-21 -0.018692 0.00255887 3.92951e-06
2.25875e-21 0.018692 0.00255892 4.31259e-07
-4.06576e-20 -0.0185631 0.00375372 1.38648e-05
0 0.0185633 0.00375376 9.9264e-07
0 -0.018598 0.00364592 1.39221e-05
1.35525e-20 0.018598 0.00364612 9.98488e-07
-3.76459e-22 -0.0187012 0.00326209 9.66326e-06
1.12938e-21 0.0187012 0.00326214 7.58962e-07
0 -0.0189931 0.000266634 3.21756e-05
0 0.0189931 0.000266631 2.44091e-06
2.71051e-20 -0.0190119 0.00083882 1.11722e-05
0 0.0190119 0.000838822 8.18677e-07
0 -0.0190241 0.00148402 6.42609e-06
0 0.0190241 0.00148403 5.93321e-07
-6.77626e-21 0.0187498 0.00382104 9.868e-07
-1.35525e-20 -0.0187499 0.00382109 1.32288e-05
-2.71051e-20 -0.0190146 0.00218766 3.58248e-06
5.42101e-20 0.0190147 0.00218769 4.7314e-07
-6.77626e-21 -0.0188253 0.00385016 1.29685e-05
0 0.0188256 0.00385027 9.78771e-07
0 -0.0190104 0.00288303 3.99676e-06
2.71051e-20 0.0190105 0.00288309 4.41687e-07
-6.77626e-21 -0.018869 0.00377278 1.29616e-05
0 0.0188695 0.00377247 9.79501e-07
6.77626e-21 0.0192614 9.27756e-13 2.36788e-06
0 -0.0192614 9.27688e-13 3.00612e-05
0 0.0192616 4.56754e-05 2.36788e-06
0 -0.0192616 4.56687e-05 3.00607e-05
0 -0.0189593 0.0036316 1.22576e-05
7.52918e-21 0.0189594 0.00363172 9.39559e-07
1.35525e-20 -0.0189216 0.00388925 1.31006e-05
6.77626e-21 -0.0193175 5.50573e-13 2.97877e-05
0 0.0193175 5.5057e-13 2.35654e-06
-6.77626e-21 0.0189225 0.00388962 9.86258e-07
0 -0.019323 0.000517724 2.21444e-05
0 0.019323 0.000517724 1.67205e-06
0 -0.0193664 3.8562e-05 2.91881e-05
-6.77626e-21 0.0193665 3.85723e-05 2.34263e-06
6.77626e-21 -0.0193681 5.31764e-13 2.92194e-05
6.77626e-21 0.0193682 5.31754e-13 2.34393e-06
2.03288e-21 0.0193603 0.00110958 8.7479e-07
-9.03502e-22 -0.0193603 0.00110958 1.19294e-05
5.64689e-22 -0.0193496 0.00179959 6.20359e-06
1.69407e-21 0.0193497 0.0017996 6.58198e-07
1.12938e-21 -0.0193331 0.00252243 3.88891e-06
-2.25875e-21 0.0193332 0.00252246 5.28322e-07
2.71051e-20 -0.0191251 0.00398458 1.29514e-05
0 0.0191255 0.00398476 9.95959e-07
2.71051e-20 -0.0191698 0.00393531 1.30344e-05
0 0.01917 0.00393559 9.98358e-07
-4.51751e-21 -0.0192999 0.00324536 6.63474e-06
-2.25875e-21 0.0193 0.00324549 6.09868e-07
-2.71051e-20 -0.0196204 0.00023725 2.70718e-05
-2.71051e-20 0.0196204 0.000237252 2.26893e-06
0 -0.0192179 0.00403218 1.35956e-05
0 0.019218 0.00403225 1.02035e-06
0 -0.0196557 0.000771332 1.70467e-05
2.71051e-20 0.0196557 0.000771331 1.07865e-06
-3.38813e-21 -0.019699 2.94695e-13 3.31358e-05
-3.38813e-21 0.0196992 2.94512e-13 2.39635e-06
-4.51751e-22 -0.019364 0.0036912 1.01384e-05
4.51751e-22 0.0193642 0.00369132 8.09326e-07
0 -0.0196876 0.00139268 1.14146e-05
0 0.0196876 0.00139268 9.24202e-07
-2.71051e-20 -0.0196587 0.00213403 3.70497e-06
0 0.0196588 0.00213406 6.528e-07
1.35525e-20 0.0193748 0.00398188 1.06535e-06
-1.35525e-20 -0.0193751 0.00398171 1.43295e-05
1.35525e-20 0.0193748 0.00411568 1.09505e-06
-6.77626e-21 -0.0193751 0.00411583 1.48147e-05
-5.42101e-20 -0.0196509 0.00284941 4.24403e-06
2.71051e-20 0.0196509 0.00284946 5.47749e-07
9.03502e-22 0.0199546 0.000463669 1.98564e-06
2.25875e-21 -0.0199546 0.00046367 3.07023e-05
2.71051e-20 -0.0196743 0.00348115 4.13842e-06
2.71051e-20 0.0196743 0.00348125 4.41002e-07
0 -0.0195407 0.00420391 1.51374e-05
-6.77626e-21 0.0195414 0.00420428 1.1129e-06
0 -0.0199999 3.09655e-13 3.52138e-05
6.77626e-21 -0.0199999 2.958e-05 3.52582e-05
-6.77626e-21 0.02 3.09366e-13 2.41204e-06
0 0.02 2.95532e-05 2.41252e-06
6.77626e-21 -0.02 0.000220921 3.26993e-05
3.38813e-21 0.02 0.00022081 2.18744e-06
0 -0.0200415 5.23094e-14 3.58569e-05
0 0.0200415 5.22561e-14 2.4209e-06
1.35525e-20 -0.0196489 0.00406133 1.46747e-05
1.0842e-20 0.0196492 0.00406167 1.08779e-06
0 0.0200712 2.48757e-05 2.41167e-06
0 -0.0200712 2.48981e-05 3.56273e-05
0 0.0200746 3.09587e-14 2.41098e-06
0 -0.0200747 3.09943e-14 3.55908e-05
0 0.0199955 0.0017906 9.08462e-07
-4.23516e-22 -0.0199954 0.00179105 8.14088e-06
9.03502e-21 0.0200905 0.000960733 1.43212e-06
-4.51751e-21 -0.0200905 0.000960726 2.34404e-05
4.84019e-22 -0.0200182 0.00244878 4.70696e-06
-8.06698e-22 0.0200183 0.00244888 7.27902e-07
-1.35525e-20 -0.0197164 0.0042974 1.43384e-05
-2.71051e-20 0.0197167 0.00429758 1.05416e-06
0 0.020182 1.06922e-14 2.4682e-06
0 -0.0201821 1.07019e-14 3.96933e-05
-5.64689e-22 -0.019968 0.00317457 4.17516e-06
1.12938e-21 0.019968 0.00317464 5.45293e-07
1.35525e-20 -0.0198178 0.00435143 1.40513e-05
-1.35525e-20 0.0198179 0.00435149 1.02566e-06
-1.35525e-20 -0.0198553 0.00424439 1.40919e-05
0 0.0198553 0.00424466 1.03154e-06
7.52918e-22 -0.0199716 0.00386195 9.73776e-06
3.76459e-22 0.0199717 0.00386203 7.82291e-07
2.25875e-21 -0.0204272 0.00031081 4.9277e-05
-2.25875e-21 0.0204272 0.000310799 2.57558e-06
2.71051e-20 -0.0204209 0.00146754 1.13115e-05
-2.71051e-20 0.0204209 0.00146753 1.25253e-06
-2.71051e-20 -0.0202842 0.00282336 4.2475e-06
0 0.0202843 0.00282341 7.32027e-07
6.77626e-21 0.0199999 0.00444852 1.02334e-06
6.77626e-21 -0.0200001 0.00444866 1.4327e-05
-2.71051e-20 -0.0204145 0.00196506 7.32326e-06
0 0.0204145 0.00196508 1.07717e-06
1.35525e-20 0.020525 4.12258e-15 2.64146e-06
2.71051e-20 -0.0205251 4.1176e-15 5.12693e-05
6.77626e-21 -0.0200603 0.00448072 1.43254e-05
0 0.0200605 0.00448086 1.0206e-06
2.71051e-20 -0.0202766 0.00350283 4.07721e-06
0 0.0202767 0.00350292 4.77857e-07
3.38813e-21 -0.0201017 0.00441369 1.43103e-05
3.38813e-21 0.0201022 0.00441328 1.02298e-06
-6.77626e-21 -0.0201267 0.00451611 1.46197e-05
6.77626e-21 0.0201275 0.00451657 1.02215e-06
3.01167e-21 -0.0202112 0.00425305 1.35831e-05
-4.51751e-21 0.0202113 0.00425322 9.87739e-07
1.6134e-22 -0.0206625 0.000857339 4.3842e-05
7.26028e-22 0.0206626 0.00085731 2.13073e-06
-1.35525e-20 0.0206911 7.74573e-16 2.88832e-06
0 -0.0206911 7.64323e-16 6.33661e-05
-1.35525e-20 -0.0206295 0.00169559 9.85213e-06
-1.35525e-20 0.0206296 0.00169559 1.24717e-06
1.41172e-21 -0.0206304 0.00244038 6.13165e-06
-4.23516e-22 0.0206304 0.0024404 1.04679e-06
0 -0.0205956 0.00315757 4.60787e-06
0 0.0205957 0.00315762 7.52609e-07
0 -0.0203415 0.00463057 1.536e-05
-1.35525e-20 0.0203419 0.00463079 1.02629e-06
0 -0.0208473 0.00142111 1.25789e-05
0 0.0208474 0.00142109 1.44932e-06
2.71051e-20 -0.0203946 0.00457335 1.54212e-05
2.71051e-20 0.0203949 0.0045737 1.02934e-06
2.25875e-21 -0.0205528 0.00387349 7.3614e-06
0 0.0205529 0.00387366 6.63646e-07
0 -0.0208263 0.00194408 8.72856e-06
0 0.0208263 0.0019441 1.30885e-06
6.77626e-21 0.020952 1.83096e-16 3.42358e-06
0 -0.0209522 1.78175e-16 9.03738e-05
0 -0.0209679 0.000111585 9.2912e-05
-8.47033e-22 0.020968 0.000112714 3.47621e-06
-2.71051e-20 -0.0204458 0.00468612 1.65058e-05
0 -0.0209761 3.89075e-17 9.17377e-05
0 0.020446 0.00468621 1.04976e-06
-6.77626e-21 0.0209762 4.11732e-17 3.45254e-06
-1.12938e-21 0.020982 0.000349479 3.40393e-06
-5.64689e-22 -0.0209821 0.000349501 8.90291e-05
-3.38813e-22 -0.0206056 0.00432302 1.21846e-05
6.77626e-22 0.0206057 0.00432315 8.43404e-07
-2.71051e-20 -0.020934 0.00277551 5.95248e-06
0 0.020934 0.00277555 1.17384e-06
1.35525e-20 0.0206249 0.00478151 1.12625e-06
0 -0.0206251 0.00478166 1.9095e-05
0 -0.0208973 0.00349615 4.21151e-06
0 0.0208974 0.00349623 6.42542e-07
-2.71051e-20 -0.02125 -2.7536e-16 8.4764e-05
0 0.02125 -2.77493e-16 3.42631e-06
-3.38813e-20 -0.0207393 0.0048425 1.97971e-05
2.71051e-20 0.0207401 0.00484287 1.13435e-06
4.51751e-21 -0.020785 0.00466278 1.86025e-05
9.03502e-21 0.0207851 0.00466305 1.1038e-06
-5.42101e-20 -0.020919 0.0041165 5.71154e-06
0 0.0209191 0.00411663 4.76207e-07
-2.82344e-22 0.0212543 0.00168707 1.58375e-06
-2.82344e-22 -0.0212543 0.00168707 1.29688e-05
3.01167e-21 -0.0213188 0.000900049 5.9237e-05
-1.50584e-21 0.0213188 0.000900019 2.73681e-06
-1.35525e-20 -0.0213463 0.000122192 8.68632e-05
1.35525e-20 0.0213464 0.000122392 3.53001e-06
0 -0.021355 -2.3845e-18 8.63647e-05
0 0.0213552 -1.52921e-18 3.51925e-06
-4.51751e-21 -0.0212895 0.00229431 8.6784e-06
-3.38813e-21 0.0212895 0.00229433 1.4905e-06
-2.71051e-20 -0.0214256 -2.50478e-16 8.96949e-05
-1.35525e-20 0.0214259 -2.50917e-16 3.58568e-06
6.77626e-22 -0.0212264 0.00310846 5.47775e-06
2.25875e-22 0.0212264 0.00310856 1.15026e-06
0 -0.0209342 0.00494631 1.90487e-05
-1.35525e-20 0.0209345 0.00494647 1.06396e-06
-1.12938e-21 -0.0212107 0.00381738 5.26664e-06
0 0.0212107 0.00381746 6.60968e-07
-2.71051e-20 -0.0215712 0.000127436 0.000100527
-1.35525e-20 0.0215719 0.000127681 3.81086e-06
4.06576e-20 -0.0216067 1.47634e-16 0.000100746
-1.35525e-20 0.0216074 1.47373e-16 3.81403e-06
2.71051e-20 -0.0210473 0.00500657 1.8641e-05
1.35525e-20 0.0210475 0.00500662 1.02078e-06
-1.35525e-20 -0.0210904 0.00488681 1.86421e-05
-4.06576e-20 0.0210904 0.00488706 1.03098e-06
-7.52918e-22 -0.0212076 0.00450575 1.32312e-05
-4.89397e-21 0.0212077 0.00450582 8.04397e-07
0 -0.0215471 0.00276786 5.77226e-06
0 0.0215471 0.00276788 1.65467e-06
0 -0.0215274 0.00347141 5.09e-06
-5.42101e-20 0.0215275 0.00347146 1.03777e-06
0 0.0212499 0.0051145 1.01336e-06
-1.69407e-20 -0.0212502 0.00511463 2.02151e-05
3.38813e-21 -0.0212808 0.00513096 2.03196e-05
0 0.0212811 0.00513109 1.01233e-06
0 -0.0213032 0.0050955 2.02804e-05
0 0.0213038 0.00509507 1.01533e-06
-2.71051e-20 -0.0215161 0.00414688 6.01203e-06
2.71051e-20 0.0215162 0.00414698 5.1587e-07
-3.38813e-21 -0.0213149 0.00514909 2.06775e-05
0 0.0213156 0.0051495 1.01015e-06
-5.42101e-20 -0.0219062 0.00171817 1.83294e-05
5.42101e-20 0.0219062 0.00171817 2.0998e-06
4.51751e-21 -0.0214404 0.00489776 1.90901e-05
9.03502e-21 0.0214406 0.00489792 9.88703e-07
2.11758e-22 -0.0218828 0.00243276 9.67423e-06
2.82344e-22 0.0218828 0.00243286 2.02722e-06
5.42101e-20 -0.0220249 0.000514809 0.000126065
-5.42101e-20 0.022025 0.000514815 4.50565e-06
0 -0.0218548 0.00311112 6.43963e-06
0 0.0218549 0.00311114 1.65716e-06
-1.12938e-21 -0.0218321 0.00380922 5.91205e-06
-4.51751e-21 0.0218321 0.00380928 9.63742e-07
0 -0.0215576 0.00527841 2.31476e-05
0 0.021558 0.0052786 9.99359e-07
1.35525e-20 -0.021618 0.00521401 2.31737e-05
0 0.0216183 0.00521431 1.00494e-06
-6.77626e-21 -0.0217926 0.00451289 1.10359e-05
6.77626e-21 0.0217927 0.00451304 7.10653e-07
2.71051e-20 -0.0216749 0.00534089 2.53382e-05
-2.71051e-20 0.021675 0.00534096 1.03536e-06
5.42101e-20 -0.0221928 0.00274702 8.96026e-06
-2.71051e-20 0.0221928 0.00274703 2.41703e-06
-1.807e-21 -0.0218358 0.00496905 1.89736e-05
-4.51751e-22 0.021836 0.00496915 8.46564e-07
-2.71051e-20 -0.0221555 0.00344893 5.96763e-06
-2.71051e-20 0.0221556 0.00344897 1.52045e-06
1.35525e-20 0.0225001 1.83963e-16 4.87899e-06
1.35525e-20 -0.0225001 1.84296e-16 0.000136745
0 0.0225001 0.000132879 4.91982e-06
0 -0.0225001 0.000132845 0.000138008
0 -0.0221425 0.00413741 6.54776e-06
2.71051e-20 0.0221425 0.00413747 7.9281e-07
6.77626e-21 0.0218749 0.00544743 1.11637e-06
-1.35525e-20 -0.0218752 0.00544758 3.07993e-05
0 -0.0225915 0.00111538 8.65308e-05
4.51751e-21 0.0225915 0.00111538 3.90297e-06
-3.38813e-21 -0.0219451 0.00548483 3.17146e-05
1.01644e-20 0.0219457 0.00548514 1.12069e-06
1.35525e-20 -0.0220189 0.00530689 2.95574e-05
-4.51751e-21 0.0220189 0.00530711 1.08951e-06
0 -0.0221557 0.00476095 1.06254e-05
0 0.0221557 0.00476106 5.10094e-07
0 -0.0226681 -7.52888e-18 0.000142902
2.71051e-20 0.0226682 -7.5783e-18 5.09259e-06
0 -0.0225575 0.00228412 1.44105e-05
0 0.0225575 0.00228414 2.53441e-06
-8.47033e-22 -0.0224843 0.00307681 8.10475e-06
7.05861e-22 0.0224843 0.00307687 2.15563e-06
8.47033e-22 0.0224595 0.00375139 1.32193e-06
-2.5411e-21 -0.0224607 0.00375124 7.12769e-06
-2.11758e-21 0.0225 0.00363412 1.48309e-06
1.69407e-21 -0.0225 0.00363668 7.31478e-06
4.23516e-22 0.0225048 0.00375038 1.34642e-06
4.23516e-22 -0.022505 0.00374493 7.20646e-06
-2.5411e-21 -0.0225 0.00378659 7.32132e-06
3.38813e-21 0.0224999 0.00378768 1.31255e-06
-2.71051e-20 -0.0228183 0.000138857 0.000152186
2.71051e-20 0.0228183 0.000138904 5.34365e-06
0 -0.0228295 -4.6137e-18 0.000152276
2.71051e-20 0.0228296 -4.63719e-18 5.34535e-06
-1.35525e-20 -0.0221583 0.00559842 3.07071e-05
1.35525e-20 0.0221586 0.00559854 1.05129e-06
-4.23516e-22 -0.0225489 0.00374905 7.34411e-06
-1.69407e-21 0.0225501 0.00374913 1.37939e-06
3.38813e-21 -0.0224518 0.00446282 9.27378e-06
-1.12938e-21 0.0224519 0.00446289 7.28775e-07
-2.71051e-20 -0.0222813 0.00566396 3.0091e-05
2.71051e-20 0.0222814 0.00566399 1.01677e-06
-2.71051e-20 -0.0223283 0.00553412 3.00332e-05
-1.35525e-20 0.0223283 0.00553432 1.02404e-06
7.52918e-22 -0.0224429 0.00515556 2.22982e-05
-7.52918e-22 0.022443 0.00515562 8.12336e-07
0 0.0229083 0.00284902 2.72207e-06
2.71051e-20 -0.0229083 0.00284902 9.05062e-06
2.71051e-20 -0.0227694 0.00412844 8.38673e-06
0 0.0227694 0.00412849 1.07221e-06
2.71051e-20 0.022907 0.00330621 2.25328e-06
2.71051e-20 -0.022907 0.00330617 8.49752e-06
0 0.0225 0.00578038 1.01807e-06
-8.47033e-22 -0.0225001 0.00578047 3.38795e-05
0 -0.022509 0.0057852 3.3945e-05
0 0.0225092 0.00578529 1.01768e-06
1.69407e-21 -0.0225156 0.00577477 3.39128e-05
8.47033e-22 0.0225161 0.00577445 1.01801e-06
-8.47033e-22 -0.022519 0.00579052 3.41389e-05
-5.42101e-20 -0.0231859 0.00175342 2.65704e-05
0 0.0231859 0.00175343 2.98529e-06
-8.47033e-22 0.0225196 0.00579082 1.01857e-06
0 -0.0232456 0.000558696 0.00016651
5.42101e-20 0.0232457 0.000558712 5.83953e-06
-2.71051e-20 -0.0227558 0.00479301 1.14041e-05
0 0.0227558 0.00479309 5.70288e-07
5.64689e-22 -0.0231485 0.0024175 1.49289e-05
1.69407e-21 0.0231485 0.00241753 2.86007e-06
0 -0.0231146 0.00307523 9.30992e-06
0 0.0231146 0.00307524 2.60125e-06
6.02335e-21 -0.0226734 0.00554801 3.17287e-05
6.02335e-21 0.0226735 0.00554813 9.74816e-07
1.50584e-21 -0.023097 0.00377997 9.02499e-06
0 0.023097 0.00377998 1.75422e-06
0 -0.0230771 0.00445736 1.06162e-05
-3.38813e-21 0.0230771 0.0044574 1.0373e-06
-5.42101e-20 -0.0233412 0.00284261 1.06327e-05
0 0.0233413 0.00284261 2.97972e-06
0 -0.023307 0.0032965 9.58683e-06
-2.71051e-20 0.0233071 0.00329653 2.58849e-06
0 -0.0227839 0.00593188 3.96123e-05
0 0.0227842 0.005932 1.03566e-06
1.35525e-20 -0.0228491 0.00586247 3.94769e-05
2.71051e-20 0.0228493 0.00586268 1.04038e-06
-4.51751e-21 -0.0230321 0.00515831 1.99031e-05
-9.03502e-21 0.0230321 0.00515843 7.21802e-07
0 -0.0229107 0.00599969 4.21859e-05
0 0.0229108 0.00599972 1.09489e-06
1.35525e-21 -0.02307 0.00562156 3.31354e-05
-4.06576e-21 0.0230702 0.00562164 8.77933e-07
0 0.02375 -2.43186e-18 6.0944e-06
-1.35525e-20 -0.02375 -2.41206e-18 0.0001711
0 0.02375 0.000111014 6.10035e-06
-1.35525e-20 -0.02375 0.00011097 0.000171211
0 -0.0234167 0.0040912 1.00397e-05
-2.71051e-20 0.0234167 0.00409123 1.74155e-06
2.71051e-20 -0.0233771 0.00479107 1.25127e-05
2.71051e-20 0.0233771 0.00479113 7.95595e-07
0 -0.0238362 0.0011485 0.000104397
2.25875e-21 0.0238362 0.00114851 4.80524e-06
1.35525e-20 -0.0238811 -9.75667e-20 0.000171721
1.35525e-20 0.0238811 -9.75139e-20 6.15399e-06
3.38813e-21 0.0231249 0.00611537 1.22214e-06
-1.35525e-20 -0.0231251 0.00611547 5.12767e-05
2.25875e-21 0.0238207 0.00236091 3.24959e-06
7.90564e-21 -0.0238207 0.00236091 2.20969e-05
0 0.02375 0.00306544 2.95832e-06
0 -0.0237501 0.00306541 1.18467e-05
-1.69407e-20 -0.0231675 0.00613814 5.20892e-05
2.03288e-20 0.0231678 0.00613837 1.23104e-06
0 -0.0239958 0.000113646 0.000174972
-1.35525e-20 0.0239958 0.000113675 6.2683e-06
0 -0.0240047 1.15459e-20 0.000175001
-1.35525e-20 0.0240047 1.15183e-20 6.26869e-06
-9.03502e-21 -0.023258 0.00596075 4.89592e-05
-9.03502e-21 0.0232581 0.00596091 1.18391e-06
-2.71051e-20 -0.0233938 0.00541142 2.14619e-05
2.71051e-20 0.0233939 0.00541149 5.37019e-07
-2.35287e-21 0.0237525 0.0036485 2.21392e-06
4.70574e-22 -0.0237525 0.00364843 1.15514e-05
1.12938e-21 -0.0237062 0.00443804 1.268e-05
0 0.0237062 0.00443807 1.42009e-06
-1.35525e-20 -0.0233932 0.00626093 4.96201e-05
-2.71051e-20 0.0233933 0.00626104 1.17735e-06
1.12938e-21 -0.0236906 0.00510851 1.78949e-05
-4.51751e-21 0.0236906 0.00510857 7.76858e-07
-2.71051e-20 -0.0235127 0.00635105 4.9835e-05
6.77626e-21 0.0235127 0.00635107 1.17225e-06
1.35525e-20 -0.0235683 0.00620582 4.95223e-05
-1.35525e-20 0.0235682 0.00620594 1.16914e-06
2.71051e-20 -0.0240297 0.00408465 1.29143e-05
0 0.0240297 0.00408467 1.96842e-06
-2.25875e-21 -0.0236813 0.00581876 3.73658e-05
1.12938e-21 0.0236814 0.0058188 8.96552e-07
-2.71051e-20 -0.0240098 0.00476747 1.51934e-05