# kMean  POINT_DATA 27756
# x  y  z  kMean
0.014142 -1.35525e-20 1.6805e-07 8.48205e-07
-0.014142 1.35525e-20 1.6805e-07 3.15355e-06
-0.014142 -6.77626e-21 0.000389161 2.44925e-06
0.014142 -3.38813e-21 0.000389161 6.97717e-07
-0.014142 1.35525e-20 0.000654607 2.37268e-06
0.014142 -1.01644e-20 0.000654607 6.51088e-07
0.014142 0 0.0010436 6.53285e-07
-0.014142 0 0.0010436 2.68425e-06
0.014142 3.38813e-21 0.00143258 6.70792e-07
-0.014142 -3.38813e-21 0.00143258 3.20621e-06
0.0142373 -1.35525e-20 0.000284221 7.58004e-07
-0.0142373 0 0.000284221 2.67992e-06
0.014142 -3.38813e-21 0.00169802 6.86211e-07
-0.014142 3.38813e-21 0.00169802 3.74682e-06
0.0142373 -1.35525e-20 0.000886478 6.5221e-07
-0.0142373 -1.35525e-20 0.00088648 2.50619e-06
-0.0142692 -2.03288e-20 1.47356e-07 3.06376e-06
0.0142693 2.03288e-20 1.47356e-07 8.72635e-07
0.0142379 -1.35525e-20 0.0012254 6.63359e-07
-0.0142379 0 0.0012254 2.97808e-06
0.014142 -1.35525e-20 0.002087 7.18059e-07
-0.014142 1.35525e-20 0.002087 4.91982e-06
-0.0142973 0 0.000101975 3.04085e-06
0.0142973 1.35525e-20 0.000101973 8.62637e-07
0.0142379 0 0.00182879 6.98407e-07
-0.0142379 -1.35525e-20 0.00182879 4.20701e-06
-0.014375 -1.35525e-20 1.30159e-07 3.93093e-06
0.014375 1.35525e-20 1.30159e-07 9.27574e-07
0.0143675 0 0.000671993 6.40592e-07
-0.0143675 -1.35525e-20 0.000671996 2.15356e-06
-0.0142629 6.77626e-21 0.00213232 4.8957e-06
0.0142629 6.77626e-21 0.00213231 7.18027e-07
-0.0142983 0 0.00203123 4.86645e-06
0.0142983 0 0.00203122 7.16805e-07
0.0143695 2.71051e-20 0.00147469 6.67157e-07
-0.0143695 -1.35525e-20 0.0014747 3.21419e-06
0.0145077 4.92819e-21 0.000511288 6.19578e-07
-0.0145077 7.39229e-21 0.000511289 2.06904e-06
-0.0145274 -1.35525e-20 1.02817e-07 4.18159e-06
0.0145274 1.35525e-20 1.02816e-07 9.81139e-07
-0.014375 0 0.00217431 5.38063e-06
0.014375 0 0.00217432 7.23611e-07
0.0144983 -1.12938e-21 0.00108867 4.54468e-07
-0.0144983 0 0.00108868 1.74716e-06
-0.0145754 9.41148e-22 0.000290395 3.45124e-06
0.0145754 -3.76459e-22 0.000290391 9.14231e-07
0.0145113 -6.16024e-21 0.00167641 5.49556e-07
-0.0145113 -2.4641e-21 0.00167642 3.1726e-06
-0.0146106 0 8.78841e-08 5.0633e-06
0.0146106 2.71051e-20 8.78836e-08 1.03086e-06
-0.0145148 1.35525e-20 0.00222669 6.12e-06
0.0145148 -1.35525e-20 0.00222669 7.44543e-07
0.0146674 -2.25875e-21 0.00084634 3.60964e-07
-0.0146674 0 0.000846346 1.24548e-06
0.0145789 -9.41148e-23 0.00192781 7.39163e-07
-0.0145789 9.41148e-23 0.00192783 5.87173e-06
0.0146711 -3.38813e-21 0.00137924 3.34826e-07
-0.0146711 0 0.00137925 1.72505e-06
-0.0145873 0 0.00225387 6.00053e-06
0.0145873 0 0.00225387 7.35016e-07
0.0147492 0 0.000649507 5.31267e-07
-0.0147492 -1.35525e-20 0.00064951 1.65233e-06
0.0147845 5.0822e-21 0.000655261 5.49421e-07
-0.0147845 3.38813e-21 0.000655264 2.0635e-06
0.014799 6.77626e-21 0.00087194 3.80798e-07
-0.014799 -6.77626e-21 0.000871947 1.26674e-06
0.0147848 -1.50584e-21 0.00117685 3.15659e-07
-0.0147848 -6.02335e-21 0.00117685 1.18933e-06
0.0147611 1.35525e-20 0.00160916 4.19621e-07
-0.0147611 0 0.00160917 2.47351e-06
0.0147982 9.85638e-21 0.00158804 4.06029e-07
-0.0147982 1.10884e-20 0.00158805 2.38857e-06
-0.0148904 6.77626e-21 6.18651e-08 6.20406e-06
0.0148905 0 6.18649e-08 1.14194e-06
0.0147327 4.06576e-20 0.00230835 7.67008e-07
-0.0147327 0 0.00230836 6.78514e-06
-0.0149957 4.70574e-23 0.000282714 5.98409e-06
0.0149957 -1.8823e-22 0.000282717 1.12066e-06
-0.015 0 5.8904e-08 7.23066e-06
0.015 6.77626e-21 5.89036e-08 1.21901e-06
-0.0149675 7.52918e-22 0.00202158 6.6873e-06
0.0149675 -3.76459e-22 0.00202157 7.48383e-07
-0.0150978 1.01644e-20 0.000881424 1.36317e-06
0.0150978 1.12938e-21 0.000881419 3.62204e-07
0.015 -3.38813e-21 0.00225502 7.56549e-07
-0.015 0 0.00225504 7.01339e-06
0.0151059 6.77626e-21 0.00145532 2.71825e-07
-0.0151059 2.25875e-21 0.00145533 1.43554e-06
0.015 -3.38813e-21 0.00240854 7.40435e-07
-0.015 0 0.00240855 7.00903e-06
-0.0150379 0 0.00242273 6.97288e-06
0.0150379 -3.38813e-21 0.00242272 7.33762e-07
0.01529 0 2.82763e-08 1.40467e-06
-0.01529 2.71051e-20 2.82765e-08 9.72409e-06
0.0151247 0 0.00245524 7.32315e-07
-0.0151247 -3.38813e-21 0.00245526 7.05977e-06
-0.0153535 2.71051e-20 0.00058317 4.98508e-06
0.0153535 5.42101e-20 0.000583168 8.13287e-07
0.0153939 0 0.00118159 2.80009e-07
-0.0153939 0 0.0011816 1.33012e-06
0.0153693 -2.71051e-20 0.00185215 4.41575e-07
-0.0153693 -2.71051e-20 0.00185216 3.47678e-06
-0.0152781 0 0.00251266 7.24005e-06
0.0152781 6.77626e-21 0.00251265 7.37906e-07
-0.0153114 0 0.00239528 7.13849e-06
0.0153114 -3.38813e-21 0.00239523 7.30999e-07
0.0153767 -4.51751e-21 0.00228002 7.19632e-07
-0.0153767 0 0.00228003 6.9669e-06
-0.015625 1.01644e-20 2.01017e-08 1.29169e-05
0.015625 -2.87991e-20 2.01015e-08 1.66483e-06
0.0156405 -1.52466e-20 1.9576e-08 1.67584e-06
-0.0156405 2.71051e-20 1.95762e-08 1.30607e-05
-0.0156637 -1.12938e-21 0.000293614 1.2439e-05
0.0156637 3.38813e-21 0.000293613 1.61467e-06
0.0154678 0 0.00258382 7.42697e-07
-0.0154678 -1.35525e-20 0.00258382 7.29908e-06
0.0157172 -2.25875e-21 0.00089524 4.5193e-07
-0.0157172 0 0.000895245 2.42247e-06
0.015724 0 0.00153553 2.25386e-07
-0.015724 -2.25875e-21 0.00153553 1.43084e-06
0.0156525 0 0.00230987 6.22311e-07
-0.0156525 0 0.00230987 5.84034e-06
-0.015625 0 0.00255394 7.0748e-06
0.015625 -1.35525e-20 0.00255394 7.38631e-07
-0.015625 -2.03288e-20 0.00264258 7.09167e-06
0.015625 1.35525e-20 0.00264259 7.43937e-07
-0.0157449 -1.35525e-20 0.00206368 3.14228e-06
0.0157449 -4.51751e-21 0.00206369 3.90614e-07
-0.015972 -5.42101e-20 1.0971e-08 1.56769e-05
0.015972 -2.71051e-20 1.0971e-08 1.83544e-06
-0.0157606 0 0.00269322 7.33581e-06
0.0157606 -4.06576e-20 0.00269323 7.66628e-07
-0.0158002 0 0.00252824 7.25506e-06
0.0158002 -8.13152e-21 0.00252825 7.53819e-07
-0.0160283 2.71051e-20 0.000587666 9.02942e-06
0.0160283 2.71051e-20 0.000587665 1.13464e-06
0.016059 -2.71051e-20 0.00121824 3.31032e-07
-0.0160591 0 0.00121824 2.02775e-06
-0.0160388 -2.71051e-20 0.00190504 2.89327e-06
0.0160388 2.71051e-20 0.00190505 3.49446e-07
-0.0159592 2.71051e-20 0.00276747 1.00505e-05
0.0159593 -2.71051e-20 0.00276748 9.19893e-07
-0.0160464 1.12938e-20 0.00232046 5.23095e-06
0.0160464 6.77626e-21 0.00232048 5.52847e-07
-0.01625 1.35525e-20 8.16833e-09 1.8186e-05
0.01625 -1.35525e-20 8.1683e-09 2.02194e-06
-0.0163416 -2.25875e-21 0.000297322 1.76223e-05
0.0163416 -4.51751e-21 0.000297321 1.94917e-06
0.0163888 -3.38813e-20 5.62447e-09 2.09579e-06
-0.0163888 -2.71051e-20 5.62442e-09 1.93073e-05
0.0163802 2.25875e-21 0.000909932 6.15204e-07
-0.0163802 9.03502e-21 0.00090993 4.28606e-06
-0.0163169 1.89735e-20 0.00210721 2.69508e-06
0.0163169 1.6263e-20 0.00210723 3.17797e-07
0.016394 2.25875e-21 0.0015607 2.42257e-07
-0.016394 0 0.00156069 1.67428e-06
-0.01625 1.69407e-20 0.00287738 1.25414e-05
0.0162501 -3.38813e-20 0.00287742 1.07772e-06
-0.0162993 2.03288e-20 0.00289583 1.2861e-05
0.0162996 -3.04932e-20 0.00289591 1.09805e-06
-0.0163574 4.51751e-21 0.00265188 1.13659e-05
0.0163575 2.25875e-21 0.00265193 9.94619e-07
-0.0166549 0 2.57175e-09 2.08559e-05
0.0166549 0 2.57177e-09 2.16621e-06
0.0166925 2.71051e-20 0.00059198 1.36529e-06
-0.0166925 0 0.000591981 1.24427e-05
-0.0165907 0 0.00300593 1.31923e-05
0.0165909 -2.71051e-20 0.00300602 1.11218e-06
-0.0168227 -4.51751e-21 0.00122863 2.95647e-06
0.0168227 4.51751e-21 0.00122863 4.06591e-07
-0.016875 0 2.08171e-09 2.27901e-05
0.016875 1.35525e-20 2.08172e-09 2.25834e-06
-0.0167197 0 0.00238747 5.70223e-06
0.0167198 0 0.00238751 5.48539e-07
-0.0167791 6.77626e-21 0.00193458 2.06909e-06
0.0167791 4.51751e-21 0.00193459 2.62284e-07
0.0169402 0 0.000818281 8.37025e-07
-0.0169402 0 0.000818282 6.89297e-06
-0.0170157 -4.51751e-21 0.000298727 2.17598e-05
0.0170157 4.51751e-21 0.000298727 2.13971e-06
-0.0168154 2.71051e-20 0.00309174 1.59938e-05
0.0168157 2.03288e-20 0.00309186 1.2771e-06
-0.017054 0 0.00156175 1.59575e-06
0.017054 0 0.00156176 2.2569e-07
0.0171302 -1.35525e-20 1.11108e-09 2.35763e-06
-0.0171302 0 1.11107e-09 2.4439e-05
-0.016875 6.77626e-21 0.00300832 1.61735e-05
0.0168752 -6.77626e-21 0.00300853 1.28849e-06
-0.016875 0 0.00311456 1.57582e-05
0.0168752 -3.38813e-21 0.00311463 1.26233e-06
-0.0169671 -3.38813e-21 0.00280904 1.45822e-05
0.0169673 2.25875e-21 0.00280912 1.18269e-06
-0.0170607 0 0.00222781 2.6011e-06
0.0170608 0 0.00222783 3.03674e-07
-0.0173299 2.71051e-20 6.20517e-10 2.47705e-05
0.0173299 -2.71051e-20 6.2052e-10 2.40071e-06
-0.0170892 -4.06576e-20 0.00319641 1.41142e-05
0.0170896 0 0.00319653 1.16076e-06
-0.017405 0 0.000633538 1.41214e-05
0.017405 -2.25875e-21 0.000633539 1.43886e-06
-0.0173772 2.25875e-21 0.00122567 3.67968e-06
0.0173772 -2.25875e-21 0.00122567 4.60366e-07
-0.0173848 4.51751e-21 0.00190647 2.21608e-06
0.0173849 -4.51751e-21 0.00190649 2.85775e-07
-0.0175 0 5.31043e-10 2.57652e-05
0.0175 0 5.31044e-10 2.46585e-06
-0.0175 2.71051e-20 0.000142313 2.57124e-05
0.0175 -1.35525e-20 0.000142315 2.46252e-06
-0.0172483 0 0.00325639 1.24055e-05
0.0172486 1.35525e-20 0.00325649 1.11292e-06
-0.0172988 1.35525e-20 0.00309078 1.27929e-05
0.0172991 0 0.00309094 1.12555e-06
-0.0174281 1.35525e-20 0.0026727 8.18302e-06
0.0174282 6.77626e-21 0.00267274 7.51254e-07
-0.0176747 0 0.000289064 2.6587e-05
0.0176747 0 0.000289064 2.51804e-06
-0.0177004 -2.71051e-20 0.000896457 6.05249e-06
0.0177004 0 0.000896462 6.96114e-07
-0.0174579 0 0.00333599 1.24423e-05
0.0174583 1.69407e-21 0.00333616 1.08927e-06
-0.0177158 0 0.00155351 2.18591e-06
0.0177158 0 0.00155351 2.87769e-07
-0.0174806 0 0.00332675 1.24828e-05
0.0174809 0 0.00332697 1.08849e-06
-0.0174846 1.69407e-21 0.00334611 1.25126e-05
0.0174848 0 0.00334621 1.08822e-06
-0.0175001 1.69407e-21 0.00332514 1.23646e-05
0.0175002 0 0.00332537 1.07797e-06
-0.0175001 0 0.00334303 1.24584e-05
0.0175002 0 0.00334314 1.08681e-06
-0.0175001 0 0.00335193 1.24318e-05
0.0175002 0 0.00335199 1.08634e-06
-0.0177088 -2.71051e-20 0.00225929 2.46326e-06
0.0177089 0 0.00225933 3.25038e-07
0.0178538 0 1.78852e-10 2.54751e-06
-0.0178538 -2.71051e-20 1.78849e-10 2.704e-05
0.0178633 1.35525e-20 0.000120403 2.54687e-06
-0.0178633 0 0.000120401 2.70293e-05
-0.0176368 -4.51751e-21 0.00307374 1.23429e-05
0.017637 4.51751e-21 0.00307382 1.02827e-06
-0.0176473 1.35525e-20 0.00307813 1.22566e-05
0.0176475 -1.35525e-20 0.00307821 1.02128e-06
-0.0179989 1.35525e-20 9.3839e-11 2.67612e-05
0.0179989 1.35525e-20 9.38393e-11 2.53392e-06
-0.0180169 -2.25875e-21 0.000576041 1.69684e-05
0.0180169 4.51751e-21 0.000576041 1.64842e-06
-0.0180393 0 0.00120814 4.62141e-06
0.0180394 2.25875e-21 0.00120814 5.32291e-07
-0.0177861 1.35525e-20 0.00345972 1.16234e-05
0.0177863 -1.35525e-20 0.00345982 1.08265e-06
-0.0181252 0 8.38838e-11 2.72268e-05
0.0181253 0 8.38839e-11 2.56479e-06
-0.0181254 -2.71051e-20 0.000104621 2.72196e-05
0.0181254 0 0.00010462 2.56427e-06
-0.0180404 2.25875e-21 0.00190105 2.51436e-06
0.0180405 -2.25875e-21 0.00190107 3.44933e-07
-0.0178475 1.35525e-20 0.0033839 1.17449e-05
0.0178476 1.35525e-20 0.00338403 1.08708e-06
-0.0180106 -4.51751e-21 0.00263553 5.36629e-06
0.0180107 -4.51751e-21 0.0026356 5.81285e-07
-0.0179205 -2.71051e-20 0.00351035 1.20892e-05
0.0179207 0 0.00351043 1.10892e-06
-0.0180602 -9.03502e-22 0.00312038 9.22313e-06
0.0180604 9.03502e-22 0.00312046 8.96319e-07
-0.0183343 -2.71051e-20 0.000279709 2.7642e-05
0.0183343 0 0.000279703 2.5918e-06
-0.0183566 0 0.000873067 7.10413e-06
0.0183566 2.71051e-20 0.000873065 7.41335e-07
-0.01837 0 0.00152863 3.04634e-06
0.0183701 -2.71051e-20 0.00152863 3.95676e-07
-0.018125 -6.77626e-21 0.00358731 1.27328e-05
0.0181251 6.77626e-21 0.00358737 1.18728e-06
-0.0183588 -2.71051e-20 0.0022394 2.35738e-06
0.0183589 2.71051e-20 0.00223943 3.70314e-07
-0.0185565 0 2.08884e-11 2.74856e-05
0.0185566 1.35525e-20 2.08886e-11 2.57325e-06
-0.0185599 1.35525e-20 8.401e-05 2.74817e-05
0.0185599 0 8.40103e-05 2.57289e-06
-0.0182327 -3.38813e-20 0.00362784 1.26133e-05
0.0182331 -2.03288e-20 0.00362801 1.18832e-06
-0.0182779 -1.807e-20 0.0034486 1.24061e-05
0.0182781 -4.51751e-21 0.00344874 1.16234e-06
-0.018389 0 0.00288151 3.56847e-06
0.0183891 5.42101e-20 0.00288158 5.01644e-07
-0.0186587 0 1.21776e-11 2.69672e-05
0.0186588 0 1.21775e-11 2.53672e-06
-0.0186718 -1.12938e-21 0.000554126 1.76603e-05
0.0186718 0 0.000554126 1.68123e-06
-0.0186932 -3.38813e-21 0.00117299 5.87081e-06
0.0186932 2.25875e-21 0.00117299 6.49975e-07
-0.01875 0 1.12105e-11 2.70964e-05
0.01875 0 1.12104e-11 2.52546e-06
-0.01875 -1.35525e-20 7.46445e-05 2.70967e-05
0.01875 0 7.46508e-05 2.52551e-06
-0.0186938 0 0.00186329 3.14854e-06
0.0186938 0 0.0018633 4.65485e-07
-0.0184518 -1.35525e-20 0.00371033 1.15495e-05
0.0184522 1.35525e-20 0.00371046 1.11086e-06
-0.018692 -1.12938e-21 0.00255869 2.82343e-06
0.018692 1.12938e-21 0.00255873 4.5648e-07
-0.0185639 1.35525e-20 0.00375412 1.102e-05
0.0185642 2.71051e-20 0.00375424 1.09333e-06
-0.0185985 -2.71051e-20 0.00364672 1.11389e-05
0.0185988 -1.35525e-20 0.00364689 1.09741e-06
-0.0189816 0 0.0002651 2.693e-05
0.0189816 0 0.00026511 2.50638e-06
-0.0187018 0 0.00326235 7.75303e-06
0.0187021 -7.52918e-22 0.00326243 8.28168e-07
-0.0190035 5.42101e-20 0.000835928 8.4133e-06
0.0190035 5.42101e-20 0.00083593 8.33934e-07
-0.0190203 0 0.00148196 4.74601e-06
0.0190203 2.71051e-20 0.00148197 6.13045e-07
-0.01875 0 0.00382122 1.08133e-05
0.0187502 0 0.00382131 1.07192e-06
-0.0190138 2.71051e-20 0.00218695 2.4978e-06
0.0190138 -2.71051e-20 0.00218697 4.85416e-07
-0.0188263 0 0.00385065 1.07452e-05
0.0188267 6.77626e-21 0.00385081 1.05936e-06
-0.0190106 -2.71051e-20 0.00288311 2.81231e-06
0.0190107 2.71051e-20 0.00288317 4.67612e-07
-0.0188705 -6.77626e-21 0.00377231 1.08259e-05
0.0188709 0 0.0037723 1.05873e-06
0.0192456 -6.77626e-21 1.60933e-12 2.47037e-06
-0.0192456 0 1.60924e-12 2.61884e-05
0.0192459 0 5.21771e-05 2.47038e-06
-0.0192459 0 5.21707e-05 2.6188e-05
-0.01896 4.51751e-21 0.00363202 1.04179e-05
0.0189603 -4.51751e-21 0.00363217 1.0133e-06
0.0193107 0 8.87425e-13 2.45973e-06
-0.0193107 0 8.87409e-13 2.60102e-05
-0.0189237 1.35525e-20 0.00389016 1.06769e-05
0.0189243 -1.35525e-20 0.00389043 1.06842e-06
0.0193153 0 0.000516097 1.71075e-06
-0.0193153 2.25875e-21 0.000516096 1.83131e-05
0.0193661 -1.35525e-20 4.34935e-05 2.46901e-06
-0.0193661 -6.77626e-21 4.34909e-05 2.61246e-05
0.0193681 -6.77626e-21 8.52462e-13 2.4692e-06
-0.0193681 0 8.52481e-13 2.61208e-05
0.019358 -1.58113e-21 0.00110754 8.72187e-07
-0.019358 -6.77626e-22 0.00110754 8.31072e-06
-0.0193483 5.64689e-22 0.00179883 4.16671e-06
0.0193484 -1.69407e-21 0.00179884 6.75371e-07
-0.0193331 -2.25875e-21 0.00252234 2.69753e-06
0.0193332 2.25875e-21 0.00252237 5.4897e-07
-0.019126 0 0.00398495 1.04842e-05
0.0191265 0 0.00398518 1.07106e-06
-0.0191704 1.35525e-20 0.00393584 1.05559e-05
0.0191709 -1.35525e-20 0.0039361 1.07424e-06
-0.0193001 2.25875e-21 0.00324569 5.07847e-06
0.0193003 6.77626e-21 0.0032458 6.56889e-07
0.0196143 0 0.000236552 2.43269e-06
-0.0196143 -2.71051e-20 0.000236554 2.53873e-05
-0.0192183 1.35525e-20 0.00403232 1.10532e-05
0.0192187 0 0.00403252 1.09438e-06
-0.0196507 0 0.000769621 1.16539e-05
0.0196507 0 0.000769623 9.94724e-07
-0.0193646 -2.25875e-22 0.00369144 8.11985e-06
0.0193648 5.64689e-22 0.00369158 8.73582e-07
-0.0197261 0 4.33323e-13 2.89369e-05
0.0197262 1.01644e-20 4.33135e-13 2.48582e-06
-0.0196852 -2.71051e-20 0.00139142 6.82323e-06
0.0196853 0 0.00139142 9.42028e-07
-0.0196581 0 0.00213359 2.75148e-06
0.0196582 -2.71051e-20 0.00213361 6.71185e-07
-0.0193749 0 0.00398198 1.16421e-05
0.0193751 -1.35525e-20 0.00398219 1.14166e-06
-0.0193749 -6.77626e-21 0.00411562 1.20436e-05
0.0193752 -1.35525e-20 0.00411575 1.16967e-06
-0.0196509 0 0.00284944 2.7244e-06
0.019651 2.71051e-20 0.00284949 5.75536e-07
0.0199511 1.35525e-21 0.000464178 2.0164e-06
-0.0199511 4.51751e-21 0.00046418 2.51953e-05
-0.0196745 -2.71051e-20 0.0034813 3.04074e-06
0.0196747 2.71051e-20 0.00348141 4.75111e-07
-0.0195416 1.35525e-20 0.00420424 1.22949e-05
0.0195422 2.03288e-20 0.00420454 1.18214e-06
-0.0199999 0 4.82349e-13 3.03074e-05
-0.0199999 6.77626e-21 2.78793e-05 3.03449e-05
0.02 0 4.8203e-13 2.48502e-06
0.02 0 2.78629e-05 2.4855e-06
-0.0199999 -3.38813e-21 0.00020828 2.7966e-05
0.02 -3.38813e-21 0.000208219 2.25899e-06
-0.0200396 -6.77626e-21 7.2017e-14 3.07797e-05
0.0200396 0 7.19638e-14 2.49045e-06
-0.0196493 -2.71051e-20 0.00406163 1.18851e-05
0.0196497 0 0.0040619 1.15653e-06
0.0200681 0 2.37653e-05 2.47589e-06
-0.0200681 0 2.37764e-05 3.02574e-05
-0.0199936 -2.82344e-22 0.00175494 5.41417e-06
0.0199936 4.70574e-23 0.00175489 9.39542e-07
0.0200714 0 3.9275e-14 2.47461e-06
-0.0200714 0 3.92932e-14 3.01996e-05
0.0200889 2.25875e-21 0.000959457 1.47556e-06
-0.0200889 -9.03502e-21 0.000959452 1.87239e-05
-0.0200181 0 0.00244871 3.12716e-06
0.0200182 -1.6134e-22 0.00244877 7.53517e-07
0.0201758 6.77626e-21 9.02736e-15 2.50562e-06
-0.0201758 -6.77626e-21 9.03236e-15 3.1857e-05
-0.0197167 0 0.00429743 1.164e-05
0.0197172 1.35525e-20 0.00429767 1.11069e-06
-0.0199681 -1.12938e-21 0.00317465 2.89654e-06
0.0199682 5.64689e-22 0.00317472 5.73377e-07
-0.0198179 1.35525e-20 0.00435132 1.15651e-05
0.0198183 0 0.00435153 1.09681e-06
-0.0198553 1.35525e-20 0.0042445 1.15485e-05
0.0198557 2.71051e-20 0.00424476 1.10026e-06
-0.0199718 1.8823e-22 0.00386197 7.73796e-06
0.0199721 6.2693e-38 0.0038621 8.27395e-07
0.0204248 -2.25875e-21 0.000311566 2.50445e-06
-0.0204248 -2.25875e-21 0.000311579 3.30511e-05
-0.02042 0 0.00146739 8.54702e-06
0.0204201 2.71051e-20 0.00146739 1.34532e-06
-0.0202842 2.71051e-20 0.00282334 2.90303e-06
0.0202843 0 0.00282338 7.65862e-07
-0.0199999 0 0.00444833 1.16225e-05
0.0200001 0 0.00444847 1.06506e-06
-0.0204142 -2.71051e-20 0.00196456 4.53086e-06
0.0204142 0 0.00196457 1.10484e-06
0.0205235 -1.35525e-20 4.55491e-15 2.55988e-06
-0.0205235 0 4.54657e-15 3.42209e-05
-0.0200605 0 0.00448064 1.15787e-05
0.0200609 0 0.00448086 1.05364e-06
-0.0202767 2.71051e-20 0.00350287 2.89757e-06
0.0202769 0 0.00350296 4.90961e-07
-0.0201022 -3.38813e-21 0.00441312 1.15314e-05
0.0201026 0 0.00441316 1.05317e-06
-0.0201274 1.35525e-20 0.00451629 1.18714e-05
0.020128 -6.77626e-21 0.00451661 1.05795e-06
-0.0202113 3.01167e-21 0.00425304 1.08292e-05
0.0202117 3.01167e-21 0.00425325 1.00911e-06
-0.0206612 4.03349e-22 0.000857173 3.06726e-05
0.0206612 -1.6134e-21 0.000857148 2.11577e-06
0.0206906 0 1.34853e-15 2.7936e-06
-0.0206907 -1.35525e-20 1.33611e-15 4.26665e-05
-0.020629 -1.35525e-20 0.00169533 7.03446e-06
0.0206291 1.35525e-20 0.00169533 1.32113e-06
-0.0206304 -5.64689e-22 0.00244032 3.96824e-06
0.0206304 0 0.00244033 1.07069e-06
-0.0205957 5.64689e-22 0.00315757 3.08266e-06
0.0205958 -5.64689e-22 0.00315762 7.58751e-07
-0.0203417 1.35525e-20 0.00463048 1.24514e-05
0.0203423 1.35525e-20 0.00463076 1.04976e-06
-0.0208463 -2.71051e-20 0.00142107 9.16556e-06
0.0208463 0 0.00142105 1.54588e-06
-0.0203947 -2.71051e-20 0.00457337 1.25029e-05
0.0203952 0 0.00457368 1.0539e-06
-0.0205529 -2.25875e-21 0.00387353 5.69754e-06
0.0205531 -2.25875e-21 0.00387367 6.83e-07
-0.0208258 5.42101e-20 0.00194373 6.15395e-06
0.0208259 -2.71051e-20 0.00194374 1.39334e-06
0.0209524 0 4.20741e-16 3.14708e-06
-0.0209524 -8.47033e-21 4.14861e-16 5.36059e-05
-0.0209675 -2.5411e-21 0.000105966 5.47992e-05
0.0209676 0 0.000106769 3.18484e-06
-0.0209754 -1.18585e-20 2.17868e-16 5.48095e-05
0.0209755 0 2.20894e-16 3.17782e-06
-0.0204458 0 0.00468592 1.34873e-05
0.0204463 0 0.00468616 1.0707e-06
0.020982 0 0.000349578 3.16359e-06
-0.020982 1.69407e-21 0.000349595 5.439e-05
-0.0206056 0 0.00432294 9.78463e-06
0.020606 3.38813e-22 0.00432311 8.64702e-07
-0.0209339 0 0.00277546 3.54909e-06
0.020934 2.71051e-20 0.00277549 1.14992e-06
-0.0206248 6.77626e-21 0.0047813 1.56938e-05
0.0206252 6.77626e-21 0.00478146 1.14273e-06
-0.0208973 0 0.00349614 2.99625e-06
0.0208974 0 0.00349621 6.44371e-07
-0.0212499 1.35525e-20 -3.23245e-16 7.16447e-05
0.02125 0 -3.25657e-16 3.55829e-06
-0.0207397 -6.77626e-21 0.00484247 1.63082e-05
0.0207403 0 0.00484278 1.14566e-06
-0.0207849 4.51751e-21 0.00466272 1.52559e-05
0.0207853 0 0.00466297 1.11865e-06
-0.020919 -2.71051e-20 0.00411646 4.3505e-06
0.0209192 0 0.00411659 4.79612e-07
0.0212542 8.47033e-22 0.00168692 1.71047e-06
-0.0212542 1.12938e-21 0.00168692 8.99235e-06
-0.0213183 -5.27043e-21 0.00090011 5.0007e-05
0.0213184 3.76459e-21 0.000900084 2.88439e-06
-0.0213459 2.71051e-20 0.000121878 8.16299e-05
0.0213461 0 0.000122078 3.80519e-06
-0.0213547 -1.35525e-20 6.62743e-17 8.15539e-05
0.0213549 1.35525e-20 6.75068e-17 3.79918e-06
-0.0212894 -1.12938e-21 0.00229421 5.92952e-06
0.0212894 -2.25875e-21 0.00229423 1.55014e-06
-0.0214253 1.35525e-20 -2.81409e-16 7.95776e-05
0.0214256 4.06576e-20 -2.82555e-16 3.78458e-06
-0.0212264 -1.35525e-21 0.00310843 3.79872e-06
0.0212264 9.03502e-22 0.00310848 1.13814e-06
-0.0209343 1.35525e-20 0.00494614 1.57158e-05
0.0209347 0 0.00494637 1.06517e-06
-0.0212106 1.12938e-21 0.00381734 3.91038e-06
0.0212108 -1.12938e-21 0.00381742 6.46197e-07
-0.0215706 0 0.000127244 8.48365e-05
0.0215712 1.35525e-20 0.00012747 3.97095e-06
-0.0216062 1.35525e-20 1.82017e-16 8.4998e-05
0.0216069 1.35525e-20 1.81754e-16 3.97396e-06
-0.0210472 -1.35525e-20 0.00500632 1.6054e-05
0.0210476 -1.35525e-20 0.00500653 1.04918e-06
-0.0210903 -2.71051e-20 0.00488671 1.58789e-05
0.0210906 -2.71051e-20 0.00488695 1.05385e-06
-0.0212076 -1.8823e-21 0.00450561 1.07623e-05
0.0212079 -1.8823e-21 0.00450575 8.0687e-07
-0.0215471 -5.42101e-20 0.0027678 4.46386e-06
0.0215471 0 0.00276782 1.66679e-06
-0.0215274 2.71051e-20 0.00347138 3.62394e-06
0.0215275 -2.71051e-20 0.00347142 9.7981e-07
-0.0212498 3.38813e-21 0.00511424 1.67661e-05
0.0212501 3.38813e-21 0.00511439 1.00285e-06
-0.0212808 0 0.00513076 1.67653e-05
0.0212812 0 0.00513096 9.96634e-07
-0.0213035 6.77626e-21 0.00509491 1.66597e-05
0.0213039 -3.38813e-21 0.00509497 9.97143e-07
-0.0215161 2.71051e-20 0.00414681 4.62882e-06
0.0215163 2.71051e-20 0.00414691 5.05855e-07
-0.0213152 -6.77626e-21 0.00514909 1.71796e-05
0.0213157 0 0.00514937 9.97108e-07
-0.0219058 -5.42101e-20 0.001718 1.20858e-05
0.0219059 -5.42101e-20 0.001718 2.3097e-06
-0.0214404 9.03502e-21 0.00489762 1.51803e-05
0.0214407 -3.01167e-21 0.00489781 9.55137e-07
-0.0218827 -8.47033e-22 0.00243261 6.465e-06
0.0218827 -4.94103e-22 0.00243267 1.98369e-06
-0.0220244 0 0.000514819 0.000106602
0.0220245 0 0.000514821 4.74502e-06
-0.0218548 0 0.00311109 4.52871e-06
0.0218549 5.64689e-22 0.00311111 1.55893e-06
-0.0218321 -1.12938e-21 0.00380917 4.52844e-06
0.0218322 -3.38813e-21 0.00380923 8.96316e-07
-0.0215576 1.35525e-20 0.00527824 1.93026e-05
0.0215581 1.35525e-20 0.00527848 9.72854e-07
-0.021618 0 0.00521392 1.9323e-05
0.0216184 0 0.00521418 9.79432e-07
-0.0217926 -2.25875e-21 0.00451282 8.8715e-06
0.0217928 2.25875e-21 0.00451296 6.83487e-07
-0.0216748 2.71051e-20 0.00534064 2.12796e-05
0.0216752 2.71051e-20 0.00534085 1.00861e-06
-0.0221927 2.71051e-20 0.00274698 5.45293e-06
0.0221928 0 0.00274698 2.1801e-06
-0.0218358 -2.25875e-22 0.0049689 1.56332e-05
0.0218361 -2.25875e-22 0.00496905 8.24593e-07
-0.0221555 0 0.0034489 4.56385e-06
0.0221556 2.71051e-20 0.00344893 1.40759e-06
0.0224999 4.06576e-20 2.20686e-16 5.18076e-06
-0.0224999 2.71051e-20 2.2102e-16 0.000115421
0.0224999 2.71051e-20 0.000132825 5.22784e-06
-0.0224999 0 0.0001328 0.000116518
-0.0221425 0 0.00413734 5.26302e-06
0.0221426 2.71051e-20 0.00413741 7.15164e-07
-0.0218748 -6.77626e-21 0.00544721 2.60896e-05
0.0218751 1.01644e-20 0.00544736 1.08329e-06
-0.0225913 0 0.00111535 7.16124e-05
0.0225913 0 0.00111535 4.21852e-06
-0.0219453 1.69407e-20 0.00548473 2.6899e-05
0.0219458 1.69407e-20 0.00548498 1.08569e-06
-0.0220187 9.03502e-21 0.00530677 2.49625e-05
0.0220191 0 0.00530698 1.05707e-06
-0.0221556 0 0.00476086 8.37008e-06
0.0221558 -2.71051e-20 0.00476098 4.88113e-07
-0.0226679 0 -7.77359e-18 0.000120647
0.022668 2.71051e-20 -7.82958e-18 5.42373e-06
-0.0225574 -1.12938e-21 0.00228407 1.02504e-05
0.0225574 -2.25875e-21 0.00228407 2.58949e-06
-0.0224843 1.41172e-22 0.00307679 5.83457e-06
0.0224843 -1.12938e-21 0.00307682 2.03941e-06
0.0224598 -4.23516e-22 0.00375133 1.23378e-06
-0.02246 1.27055e-21 0.00375126 5.47954e-06
0.0225 -4.23516e-22 0.00363437 1.38791e-06
-0.0225 0 0.00363507 5.56547e-06
-0.0225048 0 0.00375028 5.54208e-06
0.0225052 4.23516e-22 0.00374488 1.25658e-06
-0.0225 4.23516e-22 0.00378721 5.64377e-06
0.0225001 0 0.00378754 1.22511e-06
-0.0228181 2.71051e-20 0.000138892 0.000128478
0.0228182 0 0.000138937 5.71065e-06
-0.0228294 -2.71051e-20 -4.78752e-18 0.000128545
0.0228295 -2.71051e-20 -4.81473e-18 5.71249e-06
-0.0221583 1.35525e-20 0.00559821 2.60279e-05
0.0221587 -1.35525e-20 0.00559841 1.01282e-06
-0.0225496 3.38813e-21 0.00374903 5.65759e-06
0.02255 0 0.00374908 1.28486e-06
-0.0224518 -2.25875e-21 0.00446274 7.35366e-06
0.022452 1.12938e-21 0.00446282 6.83057e-07
-0.0222812 1.35525e-20 0.00566371 2.68014e-05
0.0222816 -2.71051e-20 0.00566387 9.92838e-07
-0.0223282 -1.35525e-20 0.00553398 2.64154e-05
0.0223285 1.35525e-20 0.00553418 9.97369e-07
-0.0224429 -4.89397e-21 0.00515541 1.8612e-05
0.0224431 1.8823e-21 0.00515553 7.82082e-07
-0.0229083 0 0.00284898 7.59674e-06
0.0229083 2.71051e-20 0.00284898 2.74481e-06
-0.0227694 0 0.0041284 6.56914e-06
0.0227695 0 0.00412845 1.00882e-06
-0.022907 -5.42101e-20 0.00330614 6.22871e-06
0.0229071 5.42101e-20 0.00330617 2.11879e-06
-0.0224999 -8.47033e-22 0.00578016 2.88507e-05
0.0225001 0 0.00578025 9.77782e-07
-0.022509 0 0.00578499 2.88558e-05
0.0225093 0 0.00578515 9.76731e-07
-0.0225157 0 0.00577432 2.87858e-05
0.0225161 0 0.00577434 9.76686e-07
-0.0225192 5.0822e-21 0.00579044 2.90866e-05
-0.0231858 0 0.00175337 1.95985e-05
0.0231858 5.42101e-20 0.00175337 3.34162e-06
-0.0232455 0 0.000558691 0.000140502
0.0225196 -1.01644e-20 0.00579066 9.78132e-07
0.0232455 5.42101e-20 0.000558707 6.288e-06
-0.0227557 2.71051e-20 0.00479293 9.08341e-06
0.0227559 -2.71051e-20 0.00479302 5.39178e-07
-0.0231485 -1.97641e-21 0.00241746 1.12501e-05
0.0231485 -1.12938e-21 0.00241748 2.93446e-06
-0.0231146 0 0.0030752 7.07329e-06
0.0231146 1.35525e-20 0.00307521 2.49999e-06
-0.0226733 6.02335e-21 0.00554788 2.58039e-05
0.0226736 1.50584e-21 0.00554803 9.25079e-07
-0.023097 -1.50584e-21 0.00377993 7.06374e-06
0.023097 -1.50584e-21 0.00377994 1.60797e-06
-0.0230771 -2.25875e-21 0.00445731 8.57242e-06
0.0230772 -1.12938e-21 0.00445735 9.37026e-07
-0.0233412 0 0.00284258 7.60264e-06
0.0233413 -2.71051e-20 0.00284259 2.81707e-06
-0.023307 -2.71051e-20 0.00329648 7.20399e-06
0.023307 2.71051e-20 0.0032965 2.42694e-06
-0.0227839 0 0.00593173 3.39417e-05
0.0227842 0 0.00593191 9.92781e-07
-0.0228491 0 0.00586239 3.38026e-05
0.0228494 1.35525e-20 0.00586258 9.97897e-07
-0.023032 4.51751e-21 0.00515826 1.62506e-05
0.0230322 4.51751e-21 0.00515836 6.74261e-07
-0.0229106 0 0.00599952 3.62421e-05
0.0229109 2.71051e-20 0.00599968 1.04837e-06
-0.02307 -4.51751e-22 0.00562146 2.7808e-05
0.0230702 9.03502e-22 0.00562158 8.31351e-07
0.0237499 0 -2.50024e-18 6.6294e-06
-0.02375 0 -2.47802e-18 0.00014386
0.02375 1.35525e-20 0.000111019 6.63693e-06
-0.02375 1.35525e-20 0.000110975 0.000143955
-0.0234167 2.71051e-20 0.00409117 8.26937e-06
0.0234167 -2.71051e-20 0.00409119 1.49513e-06
-0.023377 0 0.00479103 1.02667e-05
0.0233771 2.71051e-20 0.00479109 7.27776e-07
-0.0238361 2.25875e-21 0.00114849 8.56766e-05
0.0238362 4.51751e-21 0.00114849 5.27382e-06
-0.0238811 0 -1.06983e-19 0.000144262
0.0238811 0 -1.07038e-19 6.71179e-06
-0.0231249 0 0.00611529 4.43163e-05
0.0231251 -6.77626e-21 0.00611542 1.17145e-06
-0.0238207 1.12938e-21 0.00236088 1.57888e-05
0.0238207 2.25875e-21 0.00236089 3.3199e-06
-0.0237499 -3.89635e-20 0.00306542 8.61332e-06
0.02375 0 0.00306543 2.78026e-06
-0.0231675 2.71051e-20 0.00613811 4.50447e-05
0.0231678 -1.01644e-20 0.00613829 1.17922e-06
-0.0239958 0 0.000113669 0.000146923
0.0239958 1.35525e-20 0.000113694 6.85299e-06
-0.0240047 0 8.61625e-21 0.000146939
0.0240047 0 8.53205e-21 6.85365e-06
-0.0232579 -4.51751e-21 0.00596069 4.22194e-05
0.0232581 0 0.00596085 1.13422e-06
-0.0233938 -2.71051e-20 0.00541135 1.7027e-05
0.023394 2.71051e-20 0.00541144 4.80199e-07
-0.0237524 -1.12938e-21 0.00364844 9.11229e-06
0.0237525 -2.16464e-21 0.00364847 2.05271e-06
-0.0237062 0 0.00443801 1.05981e-05
0.0237062 1.12938e-21 0.00443804 1.28628e-06
-0.0233932 1.35525e-20 0.00626089 4.28596e-05
0.0233933 0 0.00626103 1.11812e-06
-0.0236906 1.12938e-21 0.00510847 1.45607e-05
0.0236907 -1.12938e-21 0.00510853 6.89359e-07
-0.0235126 -2.03288e-20 0.00635102 4.22764e-05
0.0235127 0 0.00635113 1.09475e-06
-0.0235682 2.71051e-20 0.0062058 4.21709e-05
0.0235683 -2.71051e-20 0.00620594 1.09761e-06
-0.0240297 0 0.00408462 1.07712e-05
0.0240297 2.71051e-20 0.00408465 1.89248e-06
-0.0236813 0 0.00581872 3.16214e-05
0.0236814 3.76459e-22 0.0058188 8.36736e-07
-0.0240098 5.42101e-20 0.00476744 1.29816e-05
0.0240099 0 0.00476747 1.02941e-06
-0.0244726 0 0.000579721 0.000150653
0.0244727 5.42101e-20 0.00057972 7.22516e-06
-0.0244408 0 0.0017663 2.73936e-05
0.0244408 5.42101e-20 0.00176631 4.1243e-06
-0.0236696 -3.38813e-21 0.00645563 4.21123e-05
0.0236698 0 0.00645575 1.06653e-06
-0.0237096 0 0.00644182 4.20601e-05
0.0237098 -3.38813e-21 0.00644193 1.0622e-06
-0.0237098 -3.38813e-21 0.00648356 4.19142e-05
0.02371 0 0.00648366 1.05165e-06
-0.0243888 0 0.00306489 1.14913e-05
0.0243888 0 0.0030649 3.19443e-06
-0.0239955 0 0.00544039 1.77595e-05
0.0239956 0 0.00544045 5.42962e-07
-0.0237499 -1.35525e-20 0.00643519 4.13395e-05
0.0237501 0 0.0064353 1.03738e-06
-0.0237499 3.38813e-21 0.0064761 4.18436e-05
0.0237501 0 0.0064762 1.04794e-06
-0.0237499 0 0.006513 4.16542e-05
0.0237501 0 0.00651309 1.03639e-06
-0.0243624 4.51751e-22 0.00373226 1.23921e-05
0.0243624 -1.12938e-22 0.00373228 2.29628e-06
-0.0239087 9.03502e-21 0.00623548 4.07642e-05
0.0239088 9.03502e-21 0.00623556 1.03313e-06
-0.0243381 -3.38813e-21 0.00441605 1.40367e-05
0.0243382 2.25875e-21 0.00441607 1.61532e-06
-0.0239122 2.71051e-20 0.00663214 4.05292e-05
0.0239123 2.71051e-20 0.00663222 9.68372e-07