# omega  POINT_DATA 14932
# x  y  z  omega
-1.35525e-20 0.014142 1.6805e-07 1661.16
1.35525e-20 -0.014142 1.6805e-07 1661.42
-3.38813e-21 0.014142 0.00038916 2766.87
6.77626e-21 -0.014142 0.000389158 2767.07
3.38813e-21 0.014142 0.000654608 3143.44
1.35525e-20 -0.014142 0.000654611 3143.66
1.35525e-20 0.014142 0.0010436 3123.53
1.35525e-20 -0.014142 0.0010436 3123.8
3.38813e-21 0.014142 0.00143258 3103.66
-3.38813e-21 -0.014142 0.00143258 3103.96
0 -0.0142373 0.000284209 2280.79
-1.35525e-20 0.0142373 0.000284209 2280.58
-1.01644e-20 0.014142 0.00169802 2723.2
-1.69407e-20 -0.014142 0.00169802 2723.62
2.71051e-20 0.0142373 0.000886385 3134.82
0 -0.0142373 0.000886387 3135.06
6.77626e-21 -0.0142692 1.47356e-07 1332.39
0 0.0142693 1.47356e-07 1332.14
-1.35525e-20 0.0142379 0.00122537 3112.29
0 -0.0142379 0.00122537 3112.58
-1.35525e-20 0.014142 0.002087 1622.63
1.35525e-20 -0.014142 0.002087 1623.35
0 -0.0142973 0.00010195 1419.6
0 0.0142973 0.000101947 1419.35
1.35525e-20 0.0142379 0.00182859 2247.68
0 -0.0142379 0.00182859 2248.24
1.35525e-20 -0.014375 1.30158e-07 1445.78
0 0.014375 1.30158e-07 1445.42
-1.35525e-20 0.0143674 0.000671835 3150.24
0 -0.0143674 0.000671836 3150.45
-6.77626e-21 0.0142627 0.00213224 1303.86
-6.77626e-21 -0.0142627 0.00213225 1304.72
0 0.0142982 0.00203098 1409.89
0 -0.0142982 0.00203099 1410.7
0 0.0143693 0.00147446 3096.82
-2.71051e-20 -0.0143693 0.00147446 3097.16
-4.92819e-21 0.0145076 0.000511139 1654.62
2.4641e-21 -0.0145076 0.000511141 1675.25
0 -0.0145274 1.02816e-07 1023.73
-4.06576e-20 0.0145274 1.02816e-07 1023.35
1.35525e-20 0.014375 0.00217431 1428.63
2.71051e-20 -0.014375 0.00217431 1429.46
0 0.0144982 0.00108838 1871.33
1.12938e-21 -0.0144982 0.00108838 1904.4
3.76459e-22 -0.0145753 0.000290334 1031.6
-5.64689e-22 0.0145754 0.000290329 1030.36
1.23205e-21 0.014511 0.00167594 1585.32
0 -0.014511 0.00167595 1615.89
-2.71051e-20 -0.0146106 8.78837e-08 1263.89
2.71051e-20 0.0146106 8.78835e-08 1263.34
2.71051e-20 0.0145143 0.00222654 1035.15
0 -0.0145144 0.00222654 1035.96
-1.12938e-21 0.0146672 0.000846041 1253.21
1.12938e-21 -0.0146672 0.000846045 1218.3
9.41148e-23 0.0145785 0.00192704 1025.31
1.8823e-22 -0.0145785 0.00192707 1027
-3.38813e-21 0.0146707 0.00137874 1200.11
2.25875e-21 -0.0146707 0.00137875 1184.56
-2.71051e-20 0.0145865 0.0022536 1242.66
0 -0.0145866 0.00225361 1243.52
1.35525e-20 0.0147491 0.000649276 948.642
0 -0.0147491 0.000649279 972.43
-8.47033e-21 0.0147844 0.000655031 1071.27
3.38813e-21 -0.0147844 0.000655034 1095.82
0 0.0147988 0.000871585 874.248
6.77626e-21 -0.0147988 0.000871591 911.814
0 0.0147845 0.00117651 921.249
6.02335e-21 -0.0147845 0.00117652 958.233
0 0.0147605 0.00160861 869.348
0 -0.0147605 0.00160862 906.263
-1.35525e-20 0.0147977 0.00158745 931.194
1.72487e-20 -0.0147977 0.00158746 972.694
6.77626e-21 -0.0148904 6.18649e-08 1002.05
1.35525e-20 0.0148905 6.18648e-08 1001.32
0 0.0147312 0.00230781 932.42
0 -0.0147313 0.00230783 933.29
3.29402e-22 -0.0149957 0.000282608 1006.22
-5.64689e-22 0.0149957 0.00028261 1005.23
2.71051e-20 -0.015 5.89037e-08 994.685
0 0.015 5.89034e-08 993.812
2.63521e-21 0.0149668 0.00202068 850.518
-1.8823e-21 -0.0149669 0.00202069 853.267
-2.25875e-21 0.0150976 0.000881085 479.993
-4.51751e-21 -0.0150976 0.00088109 507.463
1.69407e-21 -0.015 0.00226026 1012.62
1.69407e-21 0.015 0.00226035 1011.84
-2.25875e-21 0.0151055 0.00145482 462.388
-2.25875e-21 -0.0151055 0.00145483 489.014
-3.38813e-21 -0.015 0.00240853 1099.63
3.38813e-21 0.015 0.00240854 1098.81
2.37169e-20 0.0150362 0.00242211 1132.6
0 -0.0150362 0.00242211 1133.45
-2.71051e-20 0.01529 2.82762e-08 977.765
-2.71051e-20 -0.01529 2.82764e-08 978.964
-3.38813e-21 0.015119 0.00245307 1186.36
3.38813e-21 -0.015119 0.0024531 1187.23
2.71051e-20 0.0153534 0.000582976 633.478
5.42101e-20 -0.0153534 0.000582978 650.558
-2.71051e-20 0.0153937 0.00118118 330.428
0 -0.0153937 0.00118119 355.837
0 0.0153686 0.00185159 611.091
-2.71051e-20 -0.0153687 0.00185159 638.555
-1.35525e-20 0.0152769 0.00251208 1310.88
0 -0.0152769 0.0025121 1311.69
6.77626e-21 0.0153113 0.00239115 1265.16
6.77626e-21 -0.0153113 0.00239115 1265.96
-2.25875e-21 0.015375 0.00227891 1259.49
0 -0.015375 0.00227891 1261.06
2.20229e-20 0.015625 2.01014e-08 944.133
2.03288e-20 -0.015625 2.01012e-08 945.771
1.18585e-20 0.0156405 1.9576e-08 943.126
1.01644e-20 -0.0156405 1.95765e-08 944.785
1.12938e-21 0.0156636 0.000293521 926.765
2.25875e-21 -0.0156636 0.000293518 929.272
-1.35525e-20 -0.0154657 0.00258282 1590.82
0 0.0154657 0.00258282 1589.97
-2.25875e-21 -0.015717 0.000894934 266.255
-6.77626e-21 0.015717 0.000894932 234.345
0 0.0157234 0.00153502 211.467
4.51751e-21 -0.0157234 0.00153501 248.577
0 -0.015651 0.00230882 1284.66
-8.47033e-22 0.015651 0.00230883 1262.55
-1.35525e-20 0.0156249 0.00255271 1849.06
1.35525e-20 -0.0156249 0.0025527 1849.86
6.77626e-21 0.0156249 0.0026425 1960.33
-6.77626e-21 -0.0156249 0.00264251 1961.15
-9.03502e-21 0.0157441 0.00206315 517.778
1.35525e-20 -0.0157441 0.00206315 580.119
2.71051e-20 0.015972 1.09709e-08 946.621
0 -0.015972 1.09709e-08 948.631
2.71051e-20 -0.0157578 0.00269219 2129.77
2.71051e-20 0.0157578 0.00269219 2129.01
0 -0.0157985 0.00252729 1980.54
-8.13152e-21 0.0157985 0.0025273 1979.75
-2.71051e-20 0.0160282 0.000587523 558.72
2.71051e-20 -0.0160282 0.000587524 575.837
0 0.0160587 0.00121789 152.699
0 -0.0160587 0.00121789 185.915
0 0.0160379 0.00190439 399.95
2.71051e-20 -0.0160379 0.00190438 436.607
0 -0.0159573 0.00276704 1606.6
0 0.0159573 0.00276704 1605.44
1.12938e-20 -0.0160447 0.00231947 1127.3
-4.51751e-21 0.0160447 0.0023195 1097.33
6.77626e-21 0.01625 8.16826e-09 939.639
-6.77626e-21 -0.01625 8.16829e-09 941.982
-2.25875e-21 0.0163415 0.000297249 886.779
2.25875e-21 -0.0163415 0.000297252 891.104
6.77626e-21 0.0163888 5.62448e-09 936.386
-2.03288e-20 -0.0163888 5.62434e-09 938.884
-2.25875e-21 -0.0163799 0.000909686 245.223
4.51751e-21 0.0163799 0.000909686 217.634
-1.6263e-20 0.0163164 0.002107 318.476
0 -0.0163164 0.00210699 356.122
-6.77626e-21 -0.0163934 0.00156024 177.705
2.25875e-21 0.0163934 0.00156024 144.953
-1.35525e-20 0.0162498 0.00287804 1481.77
2.37169e-20 -0.0162499 0.00287808 1483.19
6.77626e-21 -0.016295 0.00289505 1471.72
-1.01644e-20 0.0162953 0.00289514 1470.17
0 -0.0163557 0.00265169 1434.51
0 0.0163557 0.00265171 1429.15
-2.71051e-20 0.0166549 2.57177e-09 938.086
0 -0.0166549 2.57172e-09 940.809
-2.71051e-20 0.0166923 0.000591889 545.833
-2.71051e-20 -0.0166923 0.000591889 561.856
2.71051e-20 -0.0165883 0.00300631 1345.29
2.71051e-20 0.0165884 0.00300634 1343.69
0 0.0168225 0.00122844 118.753
4.51751e-21 -0.0168225 0.00122844 148.345
-1.35525e-20 0.016875 2.08171e-09 933.192
-2.71051e-20 -0.016875 2.08167e-09 936.179
4.51751e-21 -0.0167185 0.00238646 658.25
9.03502e-21 0.0167185 0.00238653 634.458
9.03502e-21 0.0167785 0.00193449 163.069
-6.77626e-21 -0.0167785 0.00193449 197.402
-8.13152e-21 0.0169401 0.000818251 266.742
2.71051e-21 -0.0169401 0.000818252 290.001
0 0.0170157 0.000298678 856.167
-6.77626e-21 -0.0170157 0.000298678 861.989
-6.77626e-21 -0.0168116 0.00309149 925.305
6.77626e-21 0.0168118 0.00309158 922.898
-2.71051e-20 0.0170535 0.00156148 76.5487
0 -0.0170535 0.00156147 106.122
1.35525e-20 -0.0171302 1.11108e-09 938.569
0 0.0171302 1.11109e-09 935.341
-6.77626e-21 0.0168748 0.00300377 898.665
-3.38813e-21 -0.016875 0.00300312 900.912
6.77626e-21 0.0168748 0.00311544 944.876
3.38813e-21 -0.0168751 0.00311552 947.392
2.25875e-21 -0.0169651 0.00280897 937.015
4.51751e-21 0.0169652 0.00280902 931.471
-2.71051e-20 -0.0170597 0.00222742 199.752
-2.71051e-20 0.0170597 0.00222745 174.038
2.71051e-20 0.0173299 6.20518e-10 951.48
-5.42101e-20 -0.0173299 6.2051e-10 954.776
0 -0.0170862 0.00319594 1130.05
2.71051e-20 0.0170864 0.00319602 1128.04
9.03502e-21 0.0174049 0.000633537 502.454
6.77626e-21 -0.0174049 0.000633537 521.792
-4.51751e-21 -0.0173768 0.00122554 141.083
-2.25875e-21 0.0173768 0.00122555 110.457
0 -0.0173842 0.00190622 141.034
-1.35525e-20 0.0173842 0.00190623 108.42
4.06576e-20 0.0175 5.31041e-10 954.802
0 -0.0175 5.31033e-10 958.235
2.71051e-20 0.0175 0.000142326 954.388
-1.35525e-20 -0.0175 0.000142327 957.814
1.35525e-20 -0.0172465 0.00325641 1205.11
2.03288e-20 0.0172466 0.00325643 1203.01
0 -0.0172975 0.00308987 1191.43
2.71051e-20 0.0172975 0.00309007 1189.35
-3.38813e-21 0.0174273 0.00267257 660.816
5.64689e-21 -0.0174273 0.00267255 693.985
-2.71051e-20 0.0176746 0.000289047 957.749
-2.71051e-20 -0.0176746 0.000289047 961.309
0 0.0177002 0.000896397 150.36
0 -0.0177002 0.000896392 187.878
1.69407e-21 -0.0174509 0.00333352 1436.37
1.69407e-21 0.0174516 0.00333379 1435.27
-2.71051e-20 0.0177154 0.00155334 64.3185
0 -0.0177154 0.00155333 93.3854
1.69407e-21 -0.0174773 0.00332283 1458.36
0 0.0174776 0.00332327 1456.88
0 -0.0174819 0.00334524 1478.44
0 0.0174821 0.0033453 1476.64
0 0.0174998 0.00332149 1453.09
1.69407e-21 -0.0174999 0.00332102 1457.2
0 0.0174997 0.00334181 1501.96
1.69407e-21 -0.0174999 0.00334168 1504.19
0 0.0174997 0.00335193 1514.31
0 -0.0174999 0.00335198 1516.75
-2.71051e-20 -0.0177081 0.00225899 158.052
0 0.0177081 0.00225902 111.984
-1.35525e-20 -0.0178538 1.78852e-10 978
-1.35525e-20 0.0178538 1.78853e-10 974.388
1.35525e-20 -0.0178632 0.000120417 978.169
-1.35525e-20 0.0178632 0.000120416 974.558
9.03502e-21 -0.017635 0.00307305 1236.51
-9.03502e-21 0.0176351 0.00307313 1219.21
0 -0.0176457 0.00307746 1235.71
-1.35525e-20 0.0176457 0.00307753 1216.86
-1.35525e-20 0.0179989 9.38387e-11 1001.33
1.35525e-20 -0.0179989 9.38379e-11 1004.91
0 -0.0180168 0.00057603 597.648
0 0.0180168 0.00057603 578.915
4.51751e-21 -0.0180391 0.00120807 141.416
0 0.0180391 0.00120807 108.016
-2.71051e-20 -0.0177836 0.00345876 1830.97
-1.35525e-20 0.0177837 0.00345884 1829.04
1.35525e-20 0.0181253 8.3883e-11 1007.5
0 -0.0181253 8.38822e-11 1011.12
-1.35525e-20 -0.0181254 0.000104633 1010.71
-1.35525e-20 0.0181255 0.000104633 1007.1
0 -0.0180399 0.00190087 117.647
4.51751e-21 0.0180399 0.00190089 77.5266
0 -0.0178455 0.00338254 1778.2
0 0.0178456 0.00338269 1776.32
2.25875e-21 -0.0180098 0.0026349 436.293
0 0.0180098 0.00263498 377.35
0 -0.0179191 0.00350977 1551.5
0 0.0179192 0.00350979 1549.8
-3.61401e-21 -0.0180588 0.00311986 1133.2
-2.25875e-21 0.0180589 0.00311992 1094.72
0 -0.0183343 0.000279701 1027.47
-2.71051e-20 0.0183343 0.000279704 1023.81
0 -0.0183564 0.000873036 189.106
-2.71051e-20 0.0183565 0.000873036 158.146
-2.71051e-20 0.0183698 0.00152854 57.9115
-2.71051e-20 -0.0183698 0.00152853 94.0141
1.35525e-20 0.0181249 0.00358718 1309
0 -0.018125 0.00358724 1310.39
2.71051e-20 -0.0183583 0.00223916 123.581
0 0.0183583 0.0022392 73.6768
0 0.0185566 2.08891e-11 1062.7
0 -0.0185566 2.08891e-11 1066.37
1.35525e-20 -0.0185599 8.40225e-05 1066.45
-1.35525e-20 0.0185599 8.40238e-05 1062.78
1.35525e-20 -0.0182298 0.00362666 1316.73
6.77626e-21 0.0182303 0.00362685 1315.44
9.03502e-21 -0.0182769 0.00344762 1417.05
0 0.018277 0.00344779 1415.63
-5.42101e-20 -0.0183882 0.00288112 343.768
-2.71051e-20 0.0183883 0.00288119 254.31
-1.35525e-20 -0.0186588 1.21775e-11 1101.02
0 0.0186588 1.21774e-11 1097.38
2.25875e-21 -0.0186718 0.000554126 654.829
6.77626e-21 0.0186718 0.000554126 630.966
-1.12938e-21 -0.0186931 0.00117295 152.138
-3.38813e-21 0.0186931 0.00117295 111.812
-1.35525e-20 -0.01875 1.12105e-11 1107.51
1.35525e-20 0.01875 1.12102e-11 1103.87
1.35525e-20 -0.01875 7.46541e-05 1107.43
-1.35525e-20 0.01875 7.46588e-05 1103.79
4.51751e-21 -0.0186935 0.00186318 102.021
3.38813e-21 0.0186935 0.0018632 59.8589
-1.35525e-20 -0.0184505 0.00370969 1538.95
2.71051e-20 0.0184507 0.00370979 1537.53
-1.12938e-21 -0.0186914 0.00255843 200.347
-1.12938e-21 0.0186914 0.00255847 134.387
-4.06576e-20 -0.0185631 0.00375372 1589.98
0 0.0185633 0.00375376 1588.59
-1.35525e-20 -0.018598 0.00364592 1587.36
-4.06576e-20 0.018598 0.00364611 1585.95
0 -0.0189815 0.000265107 1145.07
-2.71051e-20 0.0189816 0.000265108 1141.42
1.12938e-21 -0.0187011 0.00326206 997.275
0 0.0187012 0.0032621 952.068
2.71051e-20 -0.0190034 0.000835917 231.341
0 0.0190034 0.000835918 173.636
-2.71051e-20 -0.0190202 0.00148192 92.3872
5.42101e-20 0.0190202 0.00148194 55.7065
-6.77626e-21 0.0187498 0.00382104 1823.89
-1.35525e-20 -0.0187499 0.00382109 1825.65
0 -0.0190135 0.00218681 98.1319
-2.71051e-20 0.0190135 0.00218684 52.1223
-6.77626e-21 -0.0188253 0.00385016 1821.78
0 0.0188256 0.00385027 1820
-5.42101e-20 -0.0190102 0.00288285 221.568
0 0.0190103 0.00288292 146.089
-6.77626e-21 -0.018869 0.00377278 1783.14
6.77626e-21 0.0188695 0.00377248 1781.16
-1.35525e-20 0.0192456 1.60944e-12 1256.45
-6.77626e-21 -0.0192456 1.60935e-12 1259.9
0 0.0192458 5.21881e-05 1256.48
0 -0.0192459 5.21802e-05 1259.93
4.51751e-21 -0.0189593 0.00363159 1593.26
-4.51751e-21 0.0189594 0.00363171 1580.92
-6.77626e-21 -0.0193107 8.87467e-13 1305.65
0 0.0193107 8.87427e-13 1302.26
1.35525e-20 -0.0189216 0.00388925 1893.18
-6.77626e-21 0.0189225 0.00388962 1891.79
2.25875e-21 -0.0193153 0.000516098 776.568
0 0.0193153 0.000516099 752.145
1.35525e-20 -0.0193661 4.34921e-05 1325.5
-6.77626e-21 0.0193662 4.35036e-05 1322.16
6.77626e-21 -0.0193681 8.52526e-13 1322.87
-6.77626e-21 0.0193681 8.52456e-13 1319.52
9.03502e-22 0.0193579 0.00110753 129.988
-9.03502e-22 -0.0193579 0.00110753 174.115
-1.12938e-21 -0.0193482 0.00179878 94.6551
1.12938e-21 0.0193482 0.00179879 52.074
-1.12938e-21 -0.0193328 0.00252219 139.951
0 0.0193329 0.00252223 80.9302
2.71051e-20 -0.0191251 0.00398458 2159.41
0 0.0191255 0.00398476 2157.33
2.71051e-20 -0.0191698 0.00393531 2111.98
-1.35525e-20 0.01917 0.00393559 2110.03
-1.12938e-20 -0.0192999 0.00324532 612.546
-6.77626e-21 0.0192999 0.00324545 541.879
-2.71051e-20 -0.0196143 0.000236549 1440.05
0 0.0196143 0.000236555 1436.9
0 -0.0192179 0.00403218 1850.78
0 0.019218 0.00403225 1849.32
0 -0.0196507 0.000769621 246.414
-2.71051e-20 0.0196507 0.000769624 211.903
5.64689e-22 -0.019364 0.0036912 1389.01
-7.90564e-22 0.0193642 0.00369131 1346.39
0 -0.0197262 4.3324e-13 1188.54
3.38813e-21 0.0197263 4.33011e-13 1184.65
-2.71051e-20 -0.0196852 0.0013914 108.156
-2.71051e-20 0.0196852 0.0013914 60.2535
5.42101e-20 -0.019658 0.00213353 81.4444
0 0.019658 0.00213356 40.9193
0 0.0193748 0.00398188 1667.01
0 -0.0193751 0.00398171 1668.17
1.35525e-20 0.0193748 0.00411568 1547.29
-6.77626e-21 -0.0193751 0.00411583 1548.15
-5.42101e-20 -0.0196507 0.00284929 155.495
0 0.0196508 0.00284935 82.2506
2.48463e-21 0.0199511 0.000464191 775.302
1.58113e-21 -0.0199511 0.00046419 796.245
2.71051e-20 -0.0196742 0.00348114 418.15
-2.71051e-20 0.0196743 0.00348124 310.862
0 -0.0195407 0.00420391 1475.88
-6.77626e-21 0.0195414 0.00420428 1474.56
0 0.02 4.81857e-13 1138.3
0 0.02 2.78524e-05 1137.37
0 -0.02 4.82208e-13 1142.41
0 -0.02 2.78703e-05 1141.49
-3.38813e-21 0.02 0.000208128 975.257
0 -0.02 0.000208218 987.641
-6.77626e-21 0.0200396 7.19394e-14 1126.92
-6.77626e-21 -0.0200397 7.19946e-14 1131.09
0 -0.0196489 0.00406133 1644.31
-1.0842e-20 0.0196492 0.00406167 1642.97
0 0.0200681 2.37555e-05 1160.52
0 -0.0200682 2.37724e-05 1164.69
-2.35287e-22 -0.0199935 0.00175524 94.4011
1.41172e-22 0.0199936 0.00175513 51.3755
-6.77626e-21 0.0200714 3.9263e-14 1163.3
-6.77626e-21 -0.0200715 3.9285e-14 1167.46
-2.25875e-21 0.0200889 0.000959444 233.638
0 -0.0200889 0.000959437 275.453
-8.87368e-22 -0.020018 0.0024485 116.466
3.22679e-22 0.0200181 0.0024486 60.0231
-6.77626e-21 0.0201757 9.02792e-15 1137.83
0 -0.0201759 9.03188e-15 1142.45
-1.35525e-20 -0.0197164 0.0042974 1632.63
-2.71051e-20 0.0197167 0.00429758 1631.06
-2.82344e-21 -0.019968 0.00317454 241.054
0 0.019968 0.00317461 157.286
1.35525e-20 -0.0198178 0.00435143 1642.85
-1.35525e-20 0.0198179 0.00435149 1641.28
1.35525e-20 -0.0198553 0.00424439 1660.55
0 0.0198553 0.00424466 1658.92
1.50584e-21 -0.0199716 0.00386195 1097.88
-1.69407e-21 0.0199717 0.00386203 1046.05
0 0.0204248 0.000311575 742.039
2.25875e-21 -0.0204248 0.000311594 752.666
0 -0.02042 0.00146742 92.7335
-2.71051e-20 0.02042 0.00146741 54.8253
0 -0.0202841 0.00282329 119.709
0 0.0202842 0.00282334 55.124
6.77626e-21 0.0199999 0.00444852 1797.05
6.77626e-21 -0.0200001 0.00444866 1798.92
-2.71051e-20 -0.0204141 0.00196452 80.1968
-5.42101e-20 0.0204142 0.00196455 39.6058
1.35525e-20 0.0205235 4.55464e-15 913.411
0 -0.0205236 4.54438e-15 919.4
6.77626e-21 -0.0200603 0.00448072 1772.26
0 0.0200605 0.00448086 1770.18
-2.71051e-20 -0.0202766 0.00350282 251.655
-2.71051e-20 0.0202767 0.00350291 164.46
3.38813e-21 -0.0201017 0.00441369 1743.77
3.38813e-21 0.0201022 0.00441328 1741.47
-6.77626e-21 -0.0201267 0.00451611 1812.23
6.77626e-21 0.0201275 0.00451657 1810.48
-6.77626e-21 -0.0202112 0.00425305 1567.91
5.27043e-21 0.0202113 0.00425322 1554.08
1.77474e-21 -0.0206611 0.000857183 380.903
-7.26028e-22 0.0206612 0.000857155 327.601
-2.71051e-20 0.0206907 1.34737e-15 956.642
0 -0.0206907 1.33314e-15 964.059
0 -0.020629 0.00169534 87.6763
1.35525e-20 0.020629 0.00169534 48.7286
1.41172e-22 0.0206304 0.00244032 42.6175
0 -0.0206304 0.0024403 93.422
-5.64689e-22 -0.0205956 0.00315756 159.456
-1.69407e-21 0.0205957 0.0031576 87.9933
0 -0.0203415 0.00463057 2040.46
-1.35525e-20 0.0203419 0.00463079 2038.19
2.71051e-20 -0.0208462 0.00142109 97.8791
0 0.0208463 0.00142107 62.3933
0 -0.0203946 0.00457335 1994.65
0 0.0203949 0.0045737 1992.48
0 -0.0205528 0.00387349 637.02
0 0.0205529 0.00387365 555.782
0 -0.0208258 0.00194371 77.3429
0 0.0208258 0.00194373 36.3624
-3.38813e-21 0.0209525 4.1993e-16 695.072
0 -0.0209526 4.12756e-16 705.429
0 -0.0209676 0.000105362 674.363
3.38813e-21 0.0209677 0.000106546 663.343
-1.69407e-21 -0.0209754 2.17162e-16 689.368
1.69407e-21 0.0209756 2.20484e-16 678.667
-2.71051e-20 -0.0204458 0.00468612 1746.52
0 0.020446 0.00468621 1744.73
-1.12938e-21 0.0209821 0.000349585 639.952
0 -0.0209822 0.000349599 652.038
-1.01644e-21 -0.0206056 0.00432302 1325.76
1.12938e-22 0.0206057 0.00432315 1275.94
0 -0.0209339 0.00277547 89.0525
-5.42101e-20 0.0209339 0.00277549 38.3754
1.35525e-20 0.0206249 0.00478151 1418.44
0 -0.0206251 0.00478166 1419.84
0 -0.0208973 0.00349615 172.516
-2.71051e-20 0.0208974 0.00349622 89.9857
0 0.0212501 -3.25606e-16 726.024
0 -0.0212501 -3.23147e-16 735.709
-3.38813e-20 -0.0207393 0.0048425 1371.16
2.71051e-20 0.0207401 0.00484287 1369.23
1.35525e-20 -0.020785 0.00466278 1535.75
0 0.0207851 0.00466305 1534
-2.71051e-20 -0.020919 0.0041165 429.778
2.71051e-20 0.0209191 0.00411663 301.547
5.64689e-22 0.0212542 0.00168692 47.3609
1.69407e-21 -0.0212543 0.00168692 85.0127
7.52918e-22 -0.0213184 0.000900124 346.836
-1.50584e-21 0.0213184 0.000900095 305.434
-2.71051e-20 -0.021346 0.00012185 571.736
0 0.0213462 0.000122052 561.522
0 -0.0213548 6.61869e-17 574.062
0 0.021355 6.76435e-17 563.915
0 -0.0212894 0.0022942 78.8669
-1.12938e-21 0.0212894 0.00229422 36.3488
1.35525e-20 -0.0214254 -2.81734e-16 542.814
2.71051e-20 0.0214257 -2.82212e-16 532.187
-1.12938e-21 -0.0212264 0.0031084 109.856
1.35525e-21 0.0212264 0.0031085 52.7427
0 -0.0209342 0.00494631 1544.96
-1.35525e-20 0.0209345 0.00494647 1542.82
0 -0.0212107 0.00381738 250.143
-1.12938e-21 0.0212107 0.00381746 155.63
-2.71051e-20 -0.0215707 0.0001272 471.883
-1.35525e-20 0.0215713 0.000127441 459.813
0 -0.0216062 1.81935e-16 466.756
-2.71051e-20 0.0216069 1.81687e-16 454.651
2.71051e-20 -0.0210473 0.00500657 1565.73
1.35525e-20 0.0210475 0.00500662 1563.7
0 -0.0210904 0.00488681 1579.92
1.35525e-20 0.0210904 0.00488706 1577.83
2.63521e-21 -0.0212076 0.00450575 1046.12
1.12938e-21 0.0212077 0.00450582 984.448
-2.71051e-20 -0.0215471 0.00276781 70.0089
2.71051e-20 0.0215471 0.00276784 31.2622
0 -0.0215274 0.00347141 115.191
0 0.0215275 0.00347145 55.0476
0 0.0212499 0.0051145 1745.51
-1.69407e-20 -0.0212502 0.00511463 1748.13
3.38813e-21 -0.0212808 0.00513096 1738.26
0 0.0212811 0.00513109 1735.46
3.38813e-21 -0.0213032 0.0050955 1722.89
-3.38813e-21 0.0213038 0.00509507 1719.85
0 -0.0215161 0.00414688 262.16
2.71051e-20 0.0215162 0.00414698 159.256
-3.38813e-21 -0.0213149 0.00514909 1759.15
0 0.0213156 0.0051495 1756.64
0 -0.0219059 0.00171801 76.6124
-5.42101e-20 0.0219059 0.00171801 40.8292
1.05409e-20 -0.0214404 0.00489776 1517.06
-3.01167e-21 0.0214406 0.00489792 1498.08
2.11758e-22 -0.0218827 0.00243256 68.0763
3.5293e-22 0.0218827 0.00243267 32.0071
-5.42101e-20 -0.0220245 0.000514823 318.719
0 0.0220246 0.000514823 303.783
5.64689e-22 -0.0218548 0.00311111 79.7024
0 0.0218549 0.00311114 37.5313
-3.38813e-21 -0.0218321 0.00380922 154.156
0 0.0218321 0.00380928 85.0779
0 -0.0215576 0.00527841 2017.24
0 0.021558 0.0052786 2013.93
-2.71051e-20 -0.021618 0.00521401 1965.76
0 0.0216183 0.00521431 1962.56
2.25875e-21 -0.0217926 0.00451289 608.9
-2.25875e-21 0.0217927 0.00451304 520.044
2.71051e-20 -0.0216749 0.00534089 1697.96
-2.71051e-20 0.021675 0.00534096 1694.9
-2.71051e-20 -0.0221927 0.00274699 58.508
-2.71051e-20 0.0221928 0.002747 26.2854
-1.12938e-21 -0.0218358 0.00496905 1291.91
-1.12938e-21 0.021836 0.00496915 1235.85
2.71051e-20 -0.0221555 0.00344892 75.3575
-2.71051e-20 0.0221556 0.00344897 37.607
-1.35525e-20 -0.0225001 2.20878e-16 306.844
-1.35525e-20 0.0225001 2.20537e-16 290.723
-2.71051e-20 -0.0225001 0.000132713 305.551
0 0.0225001 0.000132744 289.286
0 -0.0221425 0.00413741 158.857
0 0.0221425 0.00413747 84.6937
6.77626e-21 0.0218749 0.00544743 1349.35
-1.35525e-20 -0.0218752 0.00544758 1352.5
2.25875e-21 -0.0225913 0.00111536 190.884
0 0.0225913 0.00111536 164.608
-3.38813e-21 -0.0219451 0.00548483 1325.95
1.01644e-20 0.0219457 0.00548514 1322.35
4.51751e-21 -0.0220189 0.00530689 1481.44
-9.03502e-21 0.0220189 0.00530711 1478.13
0 -0.0221557 0.00476095 429.281
-2.71051e-20 0.0221557 0.00476106 291.198
0 -0.022668 -7.76827e-18 323.868
2.71051e-20 0.0226682 -7.82573e-18 307.065
0 -0.0225574 0.00228407 64.3934
0 0.0225574 0.00228408 31.0408
1.12938e-21 -0.0224843 0.00307678 63.5689
-8.47033e-22 0.0224843 0.00307684 29.5296
0 0.0224596 0.00375138 54.9805
-8.47033e-22 -0.0224607 0.00375124 105.508
0 0.0225 0.00363425 48.7243
-2.11758e-21 -0.0225 0.00363681 95.53
4.23516e-22 0.0224999 0.00375054 52.7979
0 -0.022505 0.00374493 102.13
-2.11758e-21 -0.0225 0.00378656 110.007
2.96462e-21 0.0224999 0.00378766 58.5783
2.71051e-20 -0.0228181 0.000138799 292.135
2.71051e-20 0.0228182 0.000138846 274.241
-2.71051e-20 -0.0228293 -4.78495e-18 292.079
2.71051e-20 0.0228295 -4.81285e-18 274.174
-1.35525e-20 -0.0221583 0.00559842 1511.77
1.35525e-20 0.0221586 0.00559854 1508.05
-1.27055e-21 -0.0225489 0.00374905 99.8226
0 0.02255 0.00374913 51.5238
4.51751e-21 -0.0224518 0.00446282 238.747
-2.25875e-21 0.0224519 0.00446289 150.279
-2.71051e-20 -0.0222813 0.00566396 1534.86
2.71051e-20 0.0222814 0.00566399 1531.26
1.35525e-20 -0.0223283 0.00553412 1548.74
2.71051e-20 0.0223283 0.00553432 1545.12
-3.76459e-22 -0.0224429 0.00515556 1020.56
-1.50584e-21 0.022443 0.00515562 958.375
0 -0.0229083 0.002849 53.6322
-2.71051e-20 0.0229083 0.002849 22.4837
0 -0.0227694 0.00412844 100.972
0 0.0227694 0.0041285 54.5698
2.71051e-20 -0.022907 0.00330616 61.0741
2.71051e-20 0.022907 0.0033062 27.2286
0 0.0225 0.00578038 1728.81
-8.47033e-22 -0.0225001 0.00578047 1733.22
0 -0.022509 0.0057852 1730.6
0 0.0225092 0.00578529 1726.07
0 -0.0225156 0.00577477 1726.06
8.47033e-22 0.0225161 0.00577445 1721.36
-8.47033e-22 -0.022519 0.00579052 1736.91
-5.42101e-20 -0.0231858 0.00175337 74.9056
0 0.0231858 0.00175338 39.6108
-8.47033e-22 0.0225196 0.00579082 1732.61
0 -0.0232455 0.000558694 276.392
5.42101e-20 0.0232456 0.000558713 256.902
0 -0.0227558 0.00479301 243.096
2.71051e-20 0.0227558 0.00479309 154.257
-2.82344e-22 -0.0231485 0.00241746 59.4841
1.41172e-21 0.0231485 0.00241748 27.6024
-1.35525e-20 -0.0231146 0.00307521 55.1215
-1.35525e-20 0.0231146 0.00307523 23.5739
-9.03502e-21 -0.0226734 0.00554801 1494.42
3.01167e-21 0.0226735 0.00554813 1471.7
-7.52918e-22 -0.023097 0.00377997 73.5631
-3.01167e-21 0.023097 0.00377998 37.4856
-2.25875e-21 -0.0230771 0.00445736 139.347
5.64689e-21 0.0230771 0.0044574 83.0331
-2.71051e-20 -0.0233412 0.0028426 50.7743
-2.71051e-20 0.0233412 0.0028426 20.8594
0 -0.023307 0.00329649 53.9849
0 0.023307 0.00329652 22.5637
0 -0.0227839 0.00593188 2020.54
0 0.0227842 0.005932 2014.98
-1.35525e-20 -0.0228491 0.00586247 1965.47
2.71051e-20 0.0228493 0.00586268 1960.03
0 -0.0230321 0.00515831 575.778
-6.77626e-21 0.0230321 0.00515843 497.589
0 -0.0229107 0.00599969 1666.06
0 0.0229108 0.00599972 1660.73
-9.03502e-22 -0.02307 0.00562156 1270.58
-4.06576e-21 0.0230702 0.00562164 1218.45
-1.35525e-20 0.02375 -2.49915e-18 250.843
0 -0.02375 -2.47639e-18 270.793
0 0.02375 0.000110979 250.668
1.35525e-20 -0.02375 0.000110935 270.63
5.42101e-20 -0.0234167 0.00409121 65.0555
2.71051e-20 0.0234167 0.00409123 35.031
0 -0.0233771 0.00479107 142.223
2.71051e-20 0.0233771 0.00479113 84.0054
-4.51751e-21 -0.0238362 0.00114849 173.025
-2.25875e-21 0.0238362 0.00114849 145.361
1.35525e-20 -0.0238811 -1.06907e-19 269.204
1.35525e-20 0.0238811 -1.06945e-19 249.209
3.38813e-21 0.0231249 0.00611537 1314.88
-1.35525e-20 -0.0231251 0.00611547 1320.99
2.25875e-21 -0.0238207 0.00236089 61.8645
-6.77626e-21 0.0238207 0.0023609 28.725
-2.11758e-22 0.02375 0.00306544 20.5429
-4.23516e-22 -0.0237501 0.00306211 51.8143
-1.69407e-20 -0.0231675 0.00613814 1302.97
2.03288e-20 0.0231678 0.00613837 1296.49
0 -0.0239958 0.00011363 265.102
1.35525e-20 0.0239958 0.00011366 244.753
0 -0.0240047 8.64198e-21 265.058
0 0.0240047 8.57257e-21 244.705
0 -0.023258 0.00596075 1452.06
-9.03502e-21 0.0232581 0.00596091 1445.99
0 -0.0233938 0.00541142 396.558
2.71051e-20 0.0233939 0.00541149 283.741
5.64689e-22 -0.0237525 0.00364843 59.6632
4.70574e-22 0.0237525 0.00364849 28.6288
-2.25875e-21 -0.0237062 0.00443804 86.9834
2.25875e-21 0.0237062 0.00443807 49.299
-1.35525e-20 -0.0233932 0.00626093 1440.46
-2.71051e-20 0.0233933 0.00626104 1434.09
4.51751e-21 -0.0236906 0.00510851 211.594
-4.51751e-21 0.0236906 0.00510857 144.65
-2.71051e-20 -0.0235127 0.00635105 1435.19
6.77626e-21 0.0235127 0.00635107 1428.69
0 -0.0235683 0.00620582 1463.23
-1.35525e-20 0.0235682 0.00620594 1456.77
2.71051e-20 -0.0240297 0.00408464 54.1226
0 0.0240297 0.00408466 26.9005
1.50584e-21 -0.0236813 0.00581876 958.716
3.76459e-22 0.0236814 0.0058188 911.061
0 -0.0240098 0.00476747 85.7296
-2.71051e-20 0.0240099 0.0047675 50.7866
0 -0.0244727 0.00057972 258.911
-5.42101e-20 0.0244727 0.000579721 238.058
0 -0.0244408 0.00176631 74.8094
0 0.0244408 0.00176631 39.2218
0 -0.0236698 0.00645559 1475.65
-3.38813e-21 0.0236701 0.00645581 1469.4
3.38813e-21 -0.0237098 0.00644176 1489
0 0.0237098 0.00644204 1482.72
0 -0.02371 0.00648353 1511.72
3.38813e-21 0.02371 0.00648359 1505.39
-5.42101e-20 -0.0243888 0.00306491 50.2446
0 0.0243888 0.00306491 17.2376
0 -0.0239955 0.00544041 200.834
-2.71051e-20 0.0239956 0.00544047 145.05
-3.38813e-21 0.02375 0.00643543 1446.72
0 -0.0237501 0.00643512 1457.91
0 0.02375 0.00647616 1516.52
3.38813e-21 -0.0237501 0.00647607 1522.89
0 0.02375 0.00651289 1540.63
0 -0.0237501 0.00651298 1547.09
0 -0.0243624 0.00373227 51.4802
-3.38813e-22 0.0243624 0.00373228 22.0621
-9.03502e-21 -0.0239088 0.00623545 1331.63
0 0.0239119 0.00623295 1311.34
-1.69407e-21 -0.0243381 0.00441607 62.1071
1.12938e-21 0.0243381 0.00441608 32.8138
-2.03288e-20 -0.0239124 0.00663207 1678.22
3.38813e-20 0.0239125 0.00663216 1672.23
-1.12938e-21 -0.0243154 0.0050982 115.887
-1.12938e-21 0.0243154 0.00509824 76.3532
1.35525e-20 -0.0240423 0.00655992 1673.44
-2.71051e-20 0.0240424 0.00656003 1667.46
0 -0.0240315 0.00671934 1752.21
0 0.0240316 0.00671938 1746.36
-9.03502e-21 -0.0242743 0.00580723 504.676
6.77626e-21 0.0242743 0.00580731 443.048
0 0.025 -7.23884e-20 237.109
0 -0.025 -7.24066e-20 257.935
-1.35525e-20 0.025 8.97002e-05 237.092
1.35525e-20 -0.025 8.96772e-05 257.919
-2.71051e-20 -0.0246754 0.00405938 49.0939
5.42101e-20 0.0246754 0.00405939 19.9835
-2.71051e-20 -0.0241476 0.00680413 1841.44
0 0.0241477 0.00680414 1835.87
-5.42101e-20 -0.0246399 0.00474331 59.5468
0 0.0246399 0.00474333 33.6519
0 -0.0250975 1.27826e-20 258.212
0 0.0250975 1.27761e-20 237.396
-2.25875e-21 0.0250714 0.00116098 139.163
0 -0.0250714 0.00116098 167.716
-1.35525e-20 -0.024199 0.00668126 1794.43
0 0.024199 0.00668131 1788.76
0 -0.0250417 0.00239864 63.2547
3.38813e-21 0.0250417 0.00239864 27.7742
-3.22679e-22 -0.0243358 0.00637838 1208.39
-1.29072e-21 0.0243358 0.00637842 1160.02
0 -0.0251866 8.68945e-05 257.497
-1.35525e-20 0.0251867 8.69143e-05 236.593
-1.35525e-20 -0.0251905 7.60314e-21 257.496
-1.35525e-20 0.0251905 7.6005e-21 236.591
-2.71051e-20 -0.024626 0.00542264 113.551
0 0.024626 0.00542268 72.6655
0 -0.0250391 0.00359809 49.6755
0 0.0250391 0.0035981 17.7363
0 -0.0243362 0.00694196 2013.66
0 0.0243364 0.00694208 2007.86
0 -0.0243563 0.00693953 2021.97
0 0.0243563 0.00693966 2016.07
0 -0.0243567 0.00695693 2025.7
0 0.0243568 0.00695694 2019.71
0 0.024375 0.00693987 1991.3
0 -0.024375 0.00693974 1999.76
2.82344e-22 -0.0249674 0.00436301 52.8394
-1.12938e-21 0.0249674 0.00436304 23.9383
1.69407e-21 0.024375 0.00695726 2037.42
0 -0.024375 0.00695725 2043.55
0 0.024375 0.00697023 2046.74
0 -0.024375 0.0069703 2052.98
0 -0.0246324 0.00606013 328.246
-2.71051e-20 0.0246324 0.00606018 225.221
-4.51751e-21 -0.0245421 0.00675064 1809.08
4.51751e-21 0.0245421 0.00675067 1789.06
-2.82344e-22 -0.0249887 0.00503246 76.4705
0 0.0249887 0.00503248 45.1038
1.12938e-21 -0.0249373 0.00573814 171.243
0 0.0249373 0.00573816 113.391
-1.35525e-20 -0.0246075 0.00714003 2171.75
-1.35525e-20 0.0246076 0.00714004 2164.66
-1.35525e-20 -0.0246894 0.0070671 2117.76
0 0.0246894 0.00706712 2110.71
5.42101e-20 -0.0256991 0.000582771 256.441
0 0.0256991 0.000582775 235.564
0 -0.0249066 0.00639872 696.047
-2.25875e-21 0.0249066 0.00639877 629.736
2.71051e-20 0.0253985 0.00415565 16.9642
0 -0.0253985 0.00415564 48.7464
0 -0.0256787 0.0017773 76.0129
0 0.0256787 0.00177731 38.7097
2.71051e-20 0.0247468 0.00724165 1709.64