# omega  POINT_DATA 27749
# x  y  z  omega
0.014142 -1.35525e-20 8.4025e-08 1307.47
-0.014142 1.35525e-20 8.4025e-08 1307.8
0.014142 3.38813e-21 0.000246007 1307.48
-0.014142 -3.38813e-21 0.000246007 1307.82
0.014142 1.01644e-20 0.000413834 1410.31
-0.014142 -1.01644e-20 0.000413834 1410.66
-0.014142 0 0.000659755 1712.03
0.014142 0 0.000659755 1711.64
-0.014142 -1.01644e-20 0.000918788 2024.69
0.014142 6.77626e-21 0.000918788 2024.23
-0.014142 1.01644e-20 0.00109554 2186.79
0.014142 0 0.00109554 2186.33
-0.014142 1.35525e-20 0.00135458 2349.28
0.014142 1.35525e-20 0.00135458 2348.89
-0.014142 0 0.00162764 2518.19
0.014142 -1.01644e-20 0.00162764 2517.82
-0.014253 1.35525e-20 0.000123989 1307.81
0.014253 1.35525e-20 0.000123987 1307.47
-0.0142541 0 8.84505e-08 1307.81
0.0142541 0 8.84502e-08 1307.47
-0.014142 3.38813e-21 0.00181395 2347.16
0.014142 3.38813e-21 0.00181395 2346.76
-0.014253 0 0.000533572 1558.79
0.014253 0 0.000533572 1558.42
-0.0142487 0 0.000779064 1875.29
0.0142487 0 0.000779064 1874.86
0.014142 -1.35525e-20 0.002087 1663.61
-0.014142 1.35525e-20 0.002087 1664.16
0.0142487 0 0.00120336 2264
-0.0142487 -1.35525e-20 0.00120336 2264.43
0.0142431 -1.35525e-20 0.0014498 2440.78
-0.0142431 -1.35525e-20 0.0014498 2441.16
0.0142431 -1.35525e-20 0.00188515 2041.06
-0.0142431 -1.35525e-20 0.00188515 2041.53
-0.014375 0 9.00162e-08 1196.18
0.014375 2.71051e-20 9.00164e-08 1195.73
-0.014375 -2.71051e-20 0.000646675 1412.42
0.014375 1.35525e-20 0.000646674 1395.37
-0.0142629 6.77626e-21 0.00213232 1414.07
0.0142629 6.77626e-21 0.00213231 1413.48
-0.0142993 0 0.00204071 1501.9
0.0142993 0 0.00204071 1501.33
0.0143912 0 0.00158933 2575.42
-0.0143912 -1.35525e-20 0.00158933 2575.76
-0.014375 -1.35525e-20 0.00187889 1481.63
0.014375 6.77626e-21 0.00187888 1458.62
0.0144893 -1.35525e-20 0.000866117 1851.27
-0.0144893 8.13152e-21 0.00086612 1860.93
0.0144695 -9.03502e-21 0.00125597 1715.43
-0.0144695 6.77626e-21 0.00125597 1746.35
-0.014375 0 0.00217431 1493.85
0.014375 0 0.00217432 1493.21
-0.0145461 4.51751e-21 0.000325662 1193.79
0.0145461 6.77626e-21 0.000325655 1188.92
-0.0145532 -2.71051e-20 9.53759e-08 1189.91
0.0145533 1.35525e-20 9.53758e-08 1189.45
-0.0145148 1.35525e-20 0.00222669 1174.78
0.0145148 -1.35525e-20 0.00222669 1174.06
0.0146056 -1.35525e-20 0.0016502 1488.48
-0.0146056 -5.80823e-21 0.0016502 1522.04
0.0145854 4.23516e-22 0.00195226 1183.74
-0.0145817 -9.74088e-21 0.00195131 1185.17
0.0145839 -1.86347e-20 0.00196242 1187.47
-0.0145839 1.60936e-20 0.00196242 1188.17
-0.0147323 0 1.05322e-07 1038.09
0.0147323 2.71051e-20 1.05321e-07 1037.42
0.0147152 0 0.000924056 977.809
-0.0147152 4.51751e-21 0.000924061 1147.51
-0.0145873 0 0.00225387 1315.32
0.0145873 0 0.00225387 1314.62
0.014694 -2.25875e-21 0.00145649 1082.61
-0.014694 2.25875e-21 0.0014565 1278.72
-0.0148203 -1.35525e-20 0.000134167 951.316
0.0148203 1.35525e-20 0.000134156 950.542
-0.0148273 0 9.52383e-08 955.168
0.0148274 -1.35525e-20 9.52384e-08 954.396
-0.0148725 0 9.04372e-08 997.128
0.0148726 0 9.04377e-08 996.298
-0.0148701 1.29072e-21 0.000655711 835.269
0.0148701 1.19391e-20 0.000655709 809.73
0.0148453 4.01556e-21 0.0012075 774.124
-0.0148453 -3.26265e-21 0.00120751 809.417
0.0147327 4.06576e-20 0.00230835 1010.97
-0.0147327 0 0.00230836 1011.72
0.0148279 -3.01167e-21 0.00162721 833.286
-0.0148279 1.50584e-21 0.00162722 863.768
-0.015 0 7.9027e-08 954.206
0.015 0 7.90279e-08 953.219
-0.015 1.35525e-20 0.000133994 950.956
0.015 -1.35525e-20 0.000133987 949.958
-0.014972 -1.12938e-21 0.00204137 917.973
0.014972 0 0.00204135 915.74
-0.015 1.69407e-21 0.00224825 1056.95
0.015 -1.69407e-21 0.00224824 1056.14
0.015 -3.38813e-21 0.00240854 1151.69
-0.015 0 0.00240855 1152.52
-0.0150379 0 0.00242273 1188.07
0.0150379 -3.38813e-21 0.00242272 1187.25
-0.0152272 -2.71051e-21 0.000388387 767.483
0.0152272 8.13152e-21 0.000388387 761.272
0.0152252 4.51751e-21 0.000912537 310.318
-0.0152252 -4.51751e-21 0.000912539 339.919
0.0151964 -1.35525e-20 0.0015087 319.678
-0.0151964 0 0.0015087 348.507
0.0151247 0 0.00245524 1238.24
-0.0151247 -3.38813e-21 0.00245526 1239.09
0.0153317 0 0.000145238 836.119
-0.0153317 0 0.000145213 837.408
0.0153419 -1.35525e-20 1.97573e-08 836.135
-0.015342 2.71051e-20 1.97534e-08 837.422
-0.0154305 2.71051e-20 0.000610782 565.668
0.0154305 2.71051e-20 0.00061078 547.598
-0.0154188 -2.71051e-20 0.00121423 318.289
0.0154188 -2.71051e-20 0.00121423 291.132
0.0154797 0 7.97399e-09 838.341
-0.0154797 0 7.97114e-09 839.75
-0.0152781 0 0.00251266 1354.11
0.0152781 6.77626e-21 0.00251265 1353.27
0.0153765 -2.71051e-20 0.00187062 638.888
-0.0153765 0 0.00187063 666.176
-0.0153109 0 0.00240206 1311.33
0.0153109 3.38813e-21 0.00240203 1310.46
-0.01538 0 0.00228673 1305.67
0.01538 0 0.00228672 1303.91
-0.015625 -1.35525e-20 7.20976e-09 838.063
0.015625 2.71051e-20 7.21205e-09 836.457
-0.015625 1.35525e-20 0.000148486 838.073
0.015625 -2.71051e-20 0.000148511 836.452
0.0154678 0 0.00258382 1626.83
-0.0154678 -1.35525e-20 0.00258382 1627.58
-0.0157807 0 0.000401201 735.853
0.0157807 0 0.000401193 728.388
0.0157688 4.51751e-21 0.000915445 245.282
-0.0157688 -2.25875e-21 0.000915445 274.121
-0.0157417 0 0.00155269 253.119
0.0157417 9.03502e-21 0.00155269 219.719
0.015655 -8.47033e-22 0.00231454 1295.07
-0.015655 0 0.00231454 1315.82
-0.015625 -1.35525e-20 0.00255476 1878.22
0.015625 0 0.00255477 1877.59
-0.015625 -2.03288e-20 0.00264258 1986.48
0.015625 1.35525e-20 0.00264259 1985.88
-0.0157494 0 0.00207287 601.208
0.0157494 -4.51751e-21 0.00207287 542.916
0.0159401 0 0.00015337 840.262
-0.0159401 1.35525e-20 0.000153353 842.288
0.0159518 -1.35525e-20 6.42218e-09 840.409
-0.0159518 1.35525e-20 6.42132e-09 842.434
-0.0157606 0 0.00269322 2153.65
0.0157606 -4.06576e-20 0.00269323 2153.08
-0.0158013 0 0.00253026 2005.7
0.0158014 -1.0842e-20 0.00253027 2005.11
-0.0161003 2.71051e-20 5.64398e-09 851.724
0.0161003 0 5.64433e-09 849.579
-0.0160453 2.71051e-20 0.00191535 447.85
0.0160453 0 0.00191536 414.235
-0.0159592 2.71051e-20 0.00276747 1629.39
0.0159593 -2.71051e-20 0.00276748 1628.41
-0.0161558 -1.16165e-20 0.00116884 176.933
0.0161558 0 0.00116884 147.525
-0.0161993 9.03502e-21 0.00060793 523.413
0.0161993 -1.35525e-20 0.000607927 508.06
-0.0160501 1.35525e-20 0.00232589 1110.11
0.0160502 -2.25875e-21 0.00232591 1080.79
-0.01625 1.35525e-20 4.91538e-09 858.417
0.01625 0 4.91559e-09 856.121
-0.01625 1.35525e-20 0.000141083 858.34
0.01625 -1.35525e-20 0.000141098 856.045
-0.0162998 0 0.00156752 202.191
0.0162998 4.51751e-21 0.00156752 172.606
-0.0164197 -2.71051e-20 0.00030492 863.128
0.0164197 -2.71051e-20 0.000304919 860.659
-0.0164161 0 0.000921642 174.526
0.0164161 0 0.000921642 146.48
-0.0163188 -5.42101e-21 0.0021118 361.815
0.0163188 0 0.00211181 327.499
-0.01625 1.69407e-20 0.00287738 1496.31
0.0162501 -3.38813e-20 0.00287742 1495.14
-0.0162993 2.03288e-20 0.00289583 1482.32
0.0162996 -3.04932e-20 0.00289591 1481.09
-0.0163583 -9.03502e-21 0.00265284 1445.78
0.0163584 -4.51751e-21 0.00265289 1440.93
0.0165943 1.35525e-20 2.17698e-09 868.134
-0.0165944 1.35525e-20 2.17674e-09 870.743
0.0165962 0 0.000135304 868.126
-0.0165962 1.35525e-20 0.000135291 870.735
-0.0167375 -1.35525e-20 1.46121e-09 876.64
0.0167375 0 1.4613e-09 873.952
0.0167399 -2.25875e-21 0.000605599 512.872
-0.0167399 4.51751e-21 0.000605601 528.062
-0.0167337 -2.25875e-21 0.00124418 144.285
0.0167337 6.77626e-21 0.00124418 116.607
-0.0167344 6.77626e-21 0.00188858 188.035
0.0167344 0 0.00188859 157.231
-0.0165907 0 0.00300593 1354.77
0.0165909 -2.71051e-20 0.00300602 1353.39
-0.016875 -1.35525e-20 1.28942e-09 880.587
0.016875 0 1.28949e-09 877.778
-0.016875 0 0.000125675 880.417
0.016875 0 0.000125687 877.611
-0.0167222 -4.51751e-21 0.00239131 666.773
0.0167222 -4.51751e-21 0.00239136 645.283
-0.017064 2.71051e-20 0.000300568 888.591
0.017064 0 0.000300568 885.635
-0.0170695 2.71051e-20 0.000918299 171.762
0.0170695 0 0.0009183 143.875
-0.0168154 2.71051e-20 0.00309174 927.008
0.0168157 2.03288e-20 0.00309186 925.169
-0.0170662 0 0.00156961 100.325
0.0170662 0 0.00156962 75.8358
-0.016875 3.38813e-21 0.00300896 904.041
0.0168752 -1.01644e-20 0.00300917 902.227
-0.016875 0 0.00311456 947.61
0.0168752 -3.38813e-21 0.00311463 945.737
-0.0169679 3.38813e-21 0.00280953 938.863
0.0169681 -5.64689e-21 0.00280961 933.872
-0.0170644 0 0.00223096 198.222
0.0170645 2.71051e-20 0.00223098 175.181
0.0172527 0 5.17857e-10 896.76
-0.0172527 1.35525e-20 5.17799e-10 899.819
0.0172567 1.35525e-20 0.000116554 896.805
-0.0172567 -1.35525e-20 0.000116543 899.863
-0.0173799 0 3.52934e-10 913.191
0.0173799 -2.71051e-20 3.52963e-10 910.12
-0.0170892 -4.06576e-20 0.00319641 1132.7
0.0170896 0 0.00319653 1130.96
0.0173909 -4.51751e-21 0.000597247 530.962
-0.0173909 4.51751e-21 0.000597247 547.088
-0.0173956 4.51751e-21 0.00123449 135.301
0.0173956 4.51751e-21 0.00123449 108.075
-0.017391 -2.25875e-21 0.00191093 137.019
0.017391 4.51751e-21 0.00191095 108.556
-0.0175 0 3.17182e-10 919.578
0.0175 0 3.17204e-10 916.441
-0.0175 -1.35525e-20 0.000105668 919.267
0.0175 0 0.000105677 916.132
-0.0172483 0 0.00325639 1206.41
0.0172486 1.35525e-20 0.00325649 1204.82
-0.0172989 0 0.00309098 1193.21
0.0172992 -2.71051e-20 0.00309115 1191.59
-0.0174288 -2.25875e-21 0.00267373 701.152
0.0174289 -7.90564e-21 0.00267377 672.207
-0.0177102 0 0.000293773 930.724
0.0177102 2.71051e-20 0.000293773 927.485
0.0177221 0 0.000903907 147.357
-0.0177221 0 0.000903906 178.704
-0.0174579 0 0.00333599 1442.78
0.0174583 1.69407e-21 0.00333616 1441.43
-0.017725 0 0.00155852 89.217
0.017725 -2.71051e-20 0.00155853 63.9052
-0.0174806 1.69407e-21 0.00332679 1461.62
0.0174809 -1.69407e-21 0.00332701 1460.13
-0.0174846 1.69407e-21 0.00334611 1478.86
0.0174848 0 0.00334621 1477.25
-0.0175001 1.69407e-21 0.00332516 1460.32
0.0175002 0 0.00332539 1456.7
-0.0175001 1.69407e-21 0.00334303 1501.03
0.0175002 1.69407e-21 0.00334314 1499.29
-0.0175001 0 0.00335193 1511.83
0.0175002 0 0.00335199 1510.02
-0.0177115 0 0.00226131 153.249
0.0177116 0 0.00226134 112.279
-0.0176371 -4.51751e-21 0.00307402 1236.17
0.0176373 -9.03502e-21 0.0030741 1220.3
-0.0176475 -1.35525e-20 0.0030783 1235.17
0.0176477 0 0.00307838 1217.87
0.0179213 1.35525e-20 8.77497e-11 951.534
-0.0179213 0 8.77386e-11 954.811
0.0179253 0 9.30043e-05 951.594
-0.0179253 -1.35525e-20 9.29966e-05 954.87
-0.0180268 1.35525e-20 5.44518e-11 976.527
0.0180268 0 5.44566e-11 973.285
0.018041 -4.51751e-21 0.000581563 564.29
-0.018041 2.25875e-21 0.000581564 582.429
-0.0180514 2.25875e-21 0.00121334 136.715
0.0180514 2.25875e-21 0.00121334 106.55
-0.0177861 1.35525e-20 0.00345972 1827.81
0.0177863 -1.35525e-20 0.00345982 1826.31
-0.0181253 -1.35525e-20 4.99496e-11 983.667
0.0181253 -1.35525e-20 4.99535e-11 980.393
-0.0181254 0 8.36291e-05 983.397
0.0181254 0 8.36356e-05 980.124
-0.0180445 -1.88079e-37 0.00190369 112.928
0.0180446 1.12938e-21 0.0019037 77.4251
-0.0178475 1.35525e-20 0.00338392 1775.64
0.0178477 1.35525e-20 0.00338406 1774.15
-0.0180113 2.25875e-21 0.0026365 433.156
0.0180114 -4.51751e-21 0.00263657 379.032
-0.0179205 -2.71051e-20 0.00351035 1550.9
0.0179207 0 0.00351043 1549.45
-0.0180604 9.03502e-22 0.00312046 1122.76
0.0180605 1.35525e-21 0.00312054 1087.08
-0.0183552 0 0.000282486 1007.46
0.0183552 0 0.000282486 1004.16
-0.0183705 0 0.000877851 191.673
0.0183705 2.71051e-20 0.000877851 156.058
-0.0183762 0 0.00153194 86.6745
0.0183762 0 0.00153194 57.7273
-0.018125 -6.77626e-21 0.00358731 1310.88
0.0181251 6.77626e-21 0.00358737 1309.56
-0.0183607 -2.71051e-20 0.00224075 120.964
0.0183607 2.71051e-20 0.00224079 73.648
-0.0182327 -3.38813e-20 0.00362784 1317.18
0.0185903 -6.77626e-21 1.14543e-11 1049.03
-0.0185903 6.77626e-21 1.14531e-11 1052.29
0.0182331 -2.03288e-20 0.00362801 1315.92
0.0185922 6.77626e-21 7.01706e-05 1049.06
-0.0185923 0 7.01645e-05 1052.33
-0.0182779 -4.51751e-21 0.00344862 1417.13
0.0182781 4.51751e-21 0.00344876 1415.82
-0.0183893 -2.71051e-20 0.00288179 336.503
0.0183895 0 0.00288187 254.623
-0.0186731 0 7.47954e-12 1081.68
0.0186731 1.35525e-20 7.47989e-12 1078.48
0.0186856 -2.25875e-21 0.000557205 621.949
-0.0186856 0 0.000557205 643.618
-0.0187005 2.25875e-21 0.00117605 146.259
0.0187005 -2.25875e-21 0.00117605 111
-0.01875 0 6.97676e-12 1088.44
0.01875 0 6.97711e-12 1085.23
-0.01875 0 6.37614e-05 1088.39
0.01875 0 6.3763e-05 1085.18
-0.0186963 5.64689e-21 0.00186483 97.3784
0.0186963 -2.25875e-21 0.00186484 59.8422
-0.0184518 -1.35525e-20 0.00371033 1538.16
0.0184522 1.35525e-20 0.00371046 1536.88
-0.0186925 2.25875e-21 0.00255914 194.741
0.0186926 0 0.00255918 134.43
-0.0185639 1.35525e-20 0.00375412 1589.07
0.0185642 2.71051e-20 0.00375424 1587.75
-0.0185985 1.35525e-20 0.00364673 1586.43
0.0185988 0 0.0036469 1585.11
-0.0187019 7.52918e-22 0.00326239 996.452
0.0187021 3.76459e-22 0.00326248 955.73
-0.0189931 0 0.000266634 1131.95
0.0189931 -5.42101e-20 0.000266631 1128.79
-0.0190119 -2.71051e-20 0.000838831 217.852
0.0190119 0 0.000838832 172.398
-0.0190242 0 0.00148406 87.9189
0.0190242 0 0.00148407 55.8851
-0.01875 0 0.00382122 1824.03
0.0187502 0 0.00382131 1822.66
-0.0190149 2.71051e-20 0.0021878 94.0412
0.019015 0 0.00218782 52.1369
-0.0188263 0 0.00385065 1820.2
0.0188267 6.77626e-21 0.00385081 1818.87
-0.0190109 -2.71051e-20 0.00288329 213.687
0.019011 2.71051e-20 0.00288335 146.081
-0.0188705 6.77626e-21 0.00377231 1781.09
0.0188709 -6.77626e-21 0.0037723 1779.7
0.0192614 6.77626e-21 9.27668e-13 1249.47
-0.0192614 -6.77626e-21 9.27592e-13 1252.55
0.0192616 0 4.56629e-05 1249.5
-0.0192616 -6.77626e-21 4.56581e-05 1252.58
-0.01896 3.01167e-21 0.00363203 1591.62
0.0189603 7.52918e-21 0.00363218 1580.52
-0.0193175 0 5.50543e-13 1292.85
0.0193175 0 5.5057e-13 1289.8
-0.0189237 1.35525e-20 0.00389016 1892.49
0.0189243 -1.35525e-20 0.00389043 1891.34
-0.019323 0 0.000517722 774.124
0.019323 -1.12938e-21 0.000517722 746.551
-0.0193664 -6.77626e-21 3.85536e-05 1311.06
0.0193665 0 3.85621e-05 1307.99
-0.0193681 0 5.3174e-13 1308.72
0.0193681 0 5.31759e-13 1305.65
0.0193603 -2.03288e-21 0.00110959 128.462
-0.0193603 6.77626e-22 0.00110959 170.443
-0.0193498 5.64689e-22 0.00179964 89.0853
0.0193499 1.12938e-21 0.00179965 52.0669
-0.0193334 0 0.00252257 136.284
0.0193335 0 0.0025226 81.2808
-0.019126 0 0.00398495 2157.53
0.0191265 0 0.00398518 2156.28
-0.0191704 1.35525e-20 0.00393584 2110.34
0.0191709 0 0.0039361 2109.12
-0.0193002 -6.77626e-21 0.00324573 607.498
0.0193003 4.51751e-21 0.00324584 542.173
-0.0196204 0 0.000237248 1431.8
0.0196204 -2.71051e-20 0.000237249 1428.81
-0.0192183 1.35525e-20 0.00403232 1850.28
0.0192187 0 0.00403252 1849.15
-0.0196558 -2.71051e-20 0.00077133 269.384
0.0196558 2.71051e-20 0.000771332 211.323
-0.0196989 3.38813e-21 2.94745e-13 1188.94
0.0196991 -3.38813e-21 2.94591e-13 1185.5
-0.0193646 0 0.00369144 1383.81
0.0193648 1.01644e-21 0.00369158 1344.79
-0.0196876 -2.71051e-20 0.0013927 94.9263
0.0196877 -2.71051e-20 0.0013927 59.3011
-0.0196589 2.71051e-20 0.00213409 80.3234
0.0196589 0 0.00213411 41.5454
-0.0193749 -1.35525e-20 0.00398198 1668.32
0.0193751 0 0.00398219 1667.25
-0.0193749 -6.77626e-21 0.00411562 1548.87
0.0193752 -1.35525e-20 0.00411575 1547.79
-0.0196511 5.42101e-20 0.00284955 153.347
0.0196512 -2.71051e-20 0.0028496 82.7115
-0.0199546 2.48463e-21 0.000463658 789.119
0.0199546 1.58113e-21 0.000463658 770.015
-0.0196745 0 0.00348132 409.308
0.0196747 2.71051e-20 0.00348143 310.929
-0.0195416 1.35525e-20 0.00420424 1476.21
0.0195422 2.03288e-20 0.00420454 1474.9
-0.0199999 0 3.09743e-13 1139.84
-0.0199999 6.77626e-21 2.95891e-05 1138.87
0.02 0 3.09472e-13 1136.24
0.02 6.77626e-21 2.95641e-05 1135.26
-0.0199999 -6.77626e-21 0.000221014 975.144
0.02 -6.77626e-21 0.000220906 964.462
-0.0200415 -6.77626e-21 5.2324e-14 1127.92
0.0200415 0 5.22712e-14 1124.27
-0.0196493 1.89735e-20 0.00406163 1644.53
0.0196497 1.0842e-20 0.0040619 1643.32
0.0200712 -6.77626e-21 2.48852e-05 1159.63
-0.0200712 6.77626e-21 2.49059e-05 1163.24
-0.0199944 -4.23516e-22 0.00178836 88.8374
0.0199945 2.82344e-22 0.00178812 51.1771
0.0200746 6.77626e-21 3.09659e-14 1162.48
-0.0200747 6.77626e-21 3.10016e-14 1166.09
-0.0200905 2.25875e-21 0.000960743 263.101
0.0200905 6.77626e-21 0.000960747 231.344
-0.0200183 9.68038e-22 0.00244899 113.32
0.0200184 4.84019e-22 0.00244904 60.1745
-0.0197167 0 0.00429743 1632.65
0.0197172 1.35525e-20 0.00429767 1631.28
0.0201821 0 1.06913e-14 1136.33
-0.0201822 0 1.0702e-14 1140.1
-0.0199681 5.64689e-22 0.00317467 235.977
0.0199682 -1.12938e-21 0.00317474 157.313
-0.0198179 1.35525e-20 0.00435132 1642.9
0.0198183 0 0.00435153 1641.54
-0.0198553 0 0.0042445 1660.53
0.0198557 1.35525e-20 0.00424476 1659.16
-0.0199718 -3.76459e-22 0.00386197 1096.45
0.0199721 7.52918e-22 0.0038621 1048.63
-0.0204272 -4.51751e-21 0.00031079 749.313
0.0204272 0 0.000310794 743.532
-0.0204209 0 0.00146752 94.3123
0.0204209 0 0.00146751 56.3836
-0.0202843 -2.71051e-20 0.0028234 116.535
0.0202844 -5.42101e-20 0.00282345 54.8894
-0.0199999 0 0.00444833 1798.82
0.0200001 0 0.00444847 1797.35
-0.0204145 2.71051e-20 0.0019651 74.2411
0.0204145 -2.71051e-20 0.00196511 39.1611
0.020525 -2.71051e-20 4.1228e-15 914.857
-0.0205251 1.35525e-20 4.11913e-15 918.88
-0.0200605 0 0.00448064 1771.98
0.0200609 0 0.00448086 1770.45
-0.0202767 0 0.00350288 246.414
0.0202769 2.71051e-20 0.00350297 164.476
-0.0201022 3.38813e-21 0.00441312 1743.3
0.0201026 0 0.00441316 1741.7
-0.0201274 1.35525e-20 0.00451629 1812.28
0.020128 -6.77626e-21 0.00451661 1810.81
-0.0202113 0 0.00425304 1567.23
0.0202117 2.25875e-21 0.00425325 1554.46
-0.0206625 7.26028e-22 0.00085733 364.388
0.0206626 0 0.000857304 325.29
0.0206911 0 7.75388e-16 957.266
-0.0206911 1.35525e-20 7.66862e-16 962.255
-0.0206295 0 0.00169559 84.4041
0.0206296 0 0.00169559 49.1725
0.0206304 8.47033e-22 0.00244041 42.4807
-0.0206304 5.64689e-22 0.00244039 90.6248
-0.0205957 1.69407e-21 0.00315759 156.802
0.0205958 -2.25875e-21 0.00315764 87.9656
-0.0203417 1.35525e-20 0.00463048 2040.15
0.0203423 1.35525e-20 0.00463076 2038.5
-0.0208473 0 0.00142109 92.0937
0.0208474 0 0.00142107 62.6238
-0.0203947 0 0.00457337 1994.43
0.0203952 0 0.00457368 1992.8
-0.0205529 4.51751e-21 0.00387353 633.837
0.0205531 6.77626e-21 0.00387367 556.007
-0.0208263 2.71051e-20 0.00194409 73.7735
0.0208264 2.71051e-20 0.00194412 36.6667
0.020952 0 1.83774e-16 696.805
-0.020952 6.77626e-21 1.79817e-16 702.764
-0.0209679 8.47033e-22 0.000112156 669.867
0.020968 8.47033e-22 0.000113077 663.48
-0.0204458 0 0.00468592 1746.63
-0.020976 1.69407e-20 3.9622e-17 685.841
0.0209762 0 4.13665e-17 679.586
0.0204463 0 0.00468616 1745.01
-0.020982 -1.12938e-21 0.000349498 648.708
0.020982 0 0.000349472 641.056
-0.0206056 0 0.00432294 1321.49
0.020606 -1.12938e-22 0.00432311 1273.67
-0.020934 -2.71051e-20 0.00277552 89.3538
0.0209341 0 0.00277553 38.3392
-0.0206248 6.77626e-21 0.0047813 1420.3
0.0206252 6.77626e-21 0.00478146 1418.6
-0.0208973 -5.42101e-20 0.00349614 170.212
0.0208974 0 0.00349622 90.1382
-0.0212499 0 -2.75442e-16 735.076
0.02125 1.35525e-20 -2.77536e-16 726.843
-0.0207397 -6.77626e-21 0.00484247 1371.29
0.0207403 0 0.00484278 1369.37
-0.0207849 9.03502e-21 0.00466272 1535.96
0.0207853 -9.03502e-21 0.00466297 1534.18
-0.020919 2.71051e-20 0.00411646 425.884
0.0209192 -2.71051e-20 0.00411659 301.751
0.0212543 -5.64689e-22 0.00168707 47.6274
-0.0212543 0 0.00168707 80.4177
-0.0213187 -4.51751e-21 0.000900035 342.551
0.0213188 7.52918e-22 0.000900008 305.726
-0.0213462 -2.71051e-20 0.000122217 571.508
0.0213464 -1.35525e-20 0.00012242 561.798
-0.0213549 0 -2.33939e-18 573.854
0.0213552 -1.35525e-20 -1.63806e-18 564.159
-0.0212895 -1.12938e-21 0.00229431 76.7252
0.0212896 -1.12938e-21 0.00229433 36.6536
-0.0214256 0 -2.50254e-16 541.894
0.0214259 1.35525e-20 -2.51161e-16 532.384
-0.0212264 1.35525e-21 0.00310849 108.63
0.0212264 -4.51751e-22 0.00310854 52.9077
-0.0209343 1.35525e-20 0.00494614 1544.89
0.0209347 0 0.00494637 1542.94
-0.0212106 0 0.00381734 247.262
0.0212108 0 0.00381742 155.765
-0.0215712 -2.71051e-20 0.00012748 470.109
0.0215719 -1.35525e-20 0.000127708 459.812
-0.0216067 -1.35525e-20 1.47709e-16 464.985
0.0216074 0 1.47411e-16 454.66
-0.0210472 -1.35525e-20 0.00500632 1565.78
0.0210476 -1.35525e-20 0.00500653 1563.7
-0.0210903 4.06576e-20 0.00488671 1579.93
0.0210906 -2.71051e-20 0.00488695 1577.88
-0.0212076 -3.76459e-22 0.00450561 1046.69
0.0212079 0 0.00450575 988.101
-0.0215471 2.71051e-20 0.00276785 68.1752
0.0215472 2.71051e-20 0.00276787 31.7158
-0.0215274 0 0.00347138 114.445
0.0215275 0 0.00347143 55.1507
-0.0212498 3.38813e-21 0.00511424 1747.88
0.0212501 3.38813e-21 0.00511439 1745.69
-0.0212808 0 0.00513076 1737.87
0.0212812 0 0.00513096 1735.65
-0.0213035 3.38813e-21 0.00509491 1722.32
0.0213039 0 0.00509497 1720.06
-0.0215161 0 0.00414681 257.978
0.0215163 0 0.00414691 159.332
-0.0213152 -6.77626e-21 0.00514909 1759.01
0.0213157 0 0.00514937 1756.82
-0.0219061 0 0.00171816 72.5291
0.0219062 0 0.00171816 41.3455
-0.0214404 9.03502e-21 0.00489762 1515.98
0.0214407 0 0.00489781 1498.34
-0.0218827 8.47033e-22 0.00243282 66.0569
0.0218828 3.5293e-22 0.00243287 32.2835
-0.0220248 0 0.000514809 316.592
0.0220249 5.42101e-20 0.00051481 303.805
-0.0218548 1.12938e-21 0.0031111 79.1584
0.0218549 -5.64689e-22 0.00311112 37.606
-0.0218321 -3.38813e-21 0.00380917 153.888
0.0218322 1.12938e-21 0.00380923 85.4186
-0.0215576 1.35525e-20 0.00527824 2016.75
0.0215581 1.35525e-20 0.00527848 2014.3
-0.021618 1.35525e-20 0.00521392 1965.34
0.0216184 0 0.00521418 1962.9
-0.0217926 0 0.00451283 606.278
0.0217928 -2.25875e-21 0.00451296 520.456
-0.0216748 2.71051e-20 0.00534064 1697.78
0.0216752 2.71051e-20 0.00534085 1695.18
-0.0221928 -2.71051e-20 0.002747 57.227
0.0221928 0 0.00274702 26.3016
-0.0218358 6.77626e-22 0.0049689 1284.86
0.0218361 -4.51751e-22 0.00496905 1231.09
-0.0221555 0 0.0034489 77.0571
0.0221556 0 0.00344894 37.3674
-0.0224999 -1.35525e-20 1.84423e-16 304.543
0.0224999 0 1.84066e-16 290.746
-0.0224999 -2.71051e-20 0.000132933 303.238
0.0224999 -2.71051e-20 0.000132958 289.313
-0.0221425 0 0.00413734 160.293
0.0221426 0 0.00413741 85.5837
-0.0218748 -6.77626e-21 0.00544721 1352.55
0.0218751 1.01644e-20 0.00544736 1349.44
-0.0225914 -4.51751e-21 0.00111537 187.591
0.0225915 -4.51751e-21 0.00111537 164.873
-0.0219453 1.69407e-20 0.00548473 1325.78
0.0219458 1.69407e-20 0.00548498 1322.5
-0.0220187 0 0.00530677 1481.32
0.0220191 0 0.00530698 1478.31
-0.0221556 2.71051e-20 0.00476086 424.175
0.0221558 2.71051e-20 0.00476098 291.533
-0.0226679 -2.71051e-20 -7.53412e-18 321.512
0.0226681 0 -7.58207e-18 307.12
-0.0225575 -3.38813e-21 0.00228412 62.0251
0.0225575 -3.38813e-21 0.00228413 31.498
-0.0224843 5.64689e-22 0.00307682 62.8809
0.0224843 2.82344e-22 0.00307685 29.7694
0.0224597 0 0.00375134 55.1864
-0.0224599 -3.38813e-21 0.00375127 104.99
0.0225 0 0.00363425 48.9386
-0.0225 1.27055e-21 0.00363494 94.8369
-0.0225051 0 0.00374485 101.55
0.0225052 -4.23516e-22 0.00374487 53.0065
-0.0225 4.65868e-21 0.00378724 109.466
0.0225001 -4.23516e-22 0.00378756 58.7846
-0.0228182 0 0.000138953 289.584
0.0228183 0 0.000138995 274.244
-0.0228294 0 -4.61624e-18 289.526
0.0228296 2.71051e-20 -4.63904e-18 274.178
-0.0221583 1.35525e-20 0.00559821 1511.51
0.0221587 -1.35525e-20 0.00559841 1508.29
-0.0225497 -1.27055e-21 0.00374904 99.1479
0.0225501 -4.23516e-22 0.00374909 51.7448
-0.0224518 2.25875e-21 0.00446274 236.186
0.022452 -2.25875e-21 0.00446282 150.518
-0.0222812 1.35525e-20 0.00566371 1534.8
0.0222816 -2.71051e-20 0.00566387 1531.52
-0.0223282 -1.35525e-20 0.00553398 1548.63
0.0223285 1.35525e-20 0.00553418 1545.38
-0.0224429 -7.52918e-22 0.00515541 1021.35
0.0224431 2.63521e-21 0.00515553 963.302
-0.0229083 0 0.002849 52.7544
0.0229083 -5.42101e-20 0.002849 23.3897
-0.0227694 2.71051e-20 0.0041284 98.4812
0.0227695 -2.71051e-20 0.00412845 54.4413
-0.022907 2.71051e-20 0.00330615 58.4472
0.022907 -2.71051e-20 0.00330618 27.7424
-0.0224999 -8.47033e-22 0.00578016 1732.78
0.0225001 0 0.00578025 1729.13
-0.022509 0 0.00578499 1730.09
0.0225093 0 0.00578515 1726.4
-0.0225157 0 0.00577432 1725.44
0.0225161 0 0.00577434 1721.7
-0.0225192 5.0822e-21 0.00579044 1736.55
-0.0231859 -1.0842e-19 0.00175342 70.6496
0.0231859 5.42101e-20 0.00175342 40.1468
0.0225196 -1.01644e-20 0.00579066 1732.92
-0.0232456 0 0.000558692 273.631
0.0232457 -5.42101e-20 0.000558711 256.909
-0.0227557 0 0.00479293 240.266
0.0227559 -2.71051e-20 0.00479302 154.462
-0.0231485 8.47033e-22 0.00241751 57.4814
0.0231485 2.5411e-21 0.00241752 28.2404
-0.0231146 0 0.00307521 53.7471
0.0231146 -1.35525e-20 0.00307522 24.1202
-0.0226733 4.51751e-21 0.00554788 1492.52
0.0226736 1.50584e-21 0.00554803 1472.08
-0.023097 7.52918e-22 0.00377993 72.1526
0.023097 0 0.00377995 37.791
-0.0230771 -2.25875e-21 0.00445731 137.502
0.0230772 1.12938e-21 0.00445735 83.3809
-0.0233413 0 0.00284259 49.7333
0.0233413 0 0.0028426 21.3409
-0.023307 8.13152e-20 0.00329649 53.0739
0.0233071 2.71051e-20 0.00329651 22.859
-0.0227839 0 0.00593173 2019.81
0.0227842 0 0.00593191 2015.41
-0.0228491 0 0.00586239 1964.8
0.0228494 1.35525e-20 0.00586258 1960.43
-0.023032 -2.25875e-21 0.00515826 570.819
0.0230322 4.51751e-21 0.00515836 498.012
-0.0229106 0 0.00599952 1665.56
0.0229109 2.71051e-20 0.00599968 1660.95
-0.02307 -4.51751e-22 0.00562146 1259.77
0.0230702 9.03502e-22 0.00562158 1211.76
0.02375 1.35525e-20 -2.43292e-18 250.849
-0.02375 1.35525e-20 -2.41367e-18 267.921
0.02375 0 0.000111054 250.674
-0.02375 0 0.000111013 267.757
-0.0234167 -5.42101e-20 0.00409117 65.6015
0.0234167 -2.71051e-20 0.0040912 35.8881
-0.023377 -2.71051e-20 0.00479103 139.732
0.0233771 -2.71051e-20 0.00479109 84.4855
-0.0238362 -6.77626e-21 0.0011485 169.447
0.0238362 -2.25875e-21 0.00114851 145.653
-0.0238811 0 -9.76369e-20 266.315
0.0238811 1.35525e-20 -9.76012e-20 249.214
-0.0231249 0 0.00611529 1320.44
0.0231251 -6.77626e-21 0.00611542 1314.79
-0.0238207 3.38813e-21 0.0023609 59.3
0.0238207 3.38813e-21 0.00236091 29.2978
0.02375 -4.23516e-22 0.00306544 21.0072
-0.02375 0 0.00306542 50.7935
-0.0231675 2.71051e-20 0.00613811 1302.26
0.0231678 -1.01644e-20 0.00613829 1296.47
-0.0239958 -2.71051e-20 0.000113682 262.157
0.0239958 0 0.000113711 244.755
-0.0240047 -1.35525e-20 1.15233e-20 262.111
0.0240048 -1.35525e-20 1.14799e-20 244.708
-0.0232579 -9.03502e-21 0.00596069 1451.44
0.0232581 0 0.00596085 1446.06
-0.0233938 -2.71051e-20 0.00541135 387.202
0.023394 2.71051e-20 0.00541144 284.171
-0.0237524 1.31761e-21 0.00364844 58.7448
0.0237525 -2.5411e-21 0.00364848 28.9438
-0.0237062 -1.12938e-21 0.00443801 85.5307
0.0237062 1.12938e-21 0.00443804 49.6244
-0.0233932 1.35525e-20 0.00626089 1439.6
0.0233933 0 0.00626103 1434.1
-0.0236906 -1.12938e-21 0.00510847 206.219
0.0236907 0 0.00510853 145.053
-0.0235126 -2.03288e-20 0.00635102 1434.06
0.0235127 0 0.00635113 1428.7
-0.0235682 -1.35525e-20 0.0062058 1462.18
0.0235683 -2.71051e-20 0.00620594 1456.82
-0.0240297 0 0.00408462 52.3765
0.0240297 0 0.00408465 26.6416
-0.0236813 3.76459e-22 0.00581872 956.829
0.0236814 3.38813e-21 0.0058188 916.483
-0.0240098 0 0.00476744 83.704
0.0240099 -5.42101e-20 0.00476747 51.0833
-0.0244727 5.42101e-20 0.00057972 255.854
0.0244727 0 0.000579724 238.06
-0.0244408 5.42101e-20 0.00176632 70.5198
0.0244408 5.42101e-20 0.00176633 39.8627
-0.0236696 -3.38813e-21 0.00645563 1474.5
0.0236698 0 0.00645575 1469.17
-0.0237096 3.38813e-21 0.00644182 1487.85
0.0237098 -3.38813e-21 0.00644193 1482.52
-0.0237098 -3.38813e-21 0.00648356 1510.56
0.02371 0 0.00648366 1505.25
-0.0243888 0 0.00306491 49.1151
0.0243888 5.42101e-20 0.00306491 17.9142
-0.0239955 2.71051e-20 0.00544039 193.762
0.0239956 -2.71051e-20 0.00544045 145.447
-0.0237499 0 0.00643519 1455.69
0.0237501 0 0.0064353 1446.39
-0.0237499 0 0.0064761 1521.7
0.0237501 0 0.0064762 1516.41
-0.0237499 0 0.006513 1545.86
0.0237501 0 0.00651309 1540.6
-0.0243624 0 0.00373226 50.3988
0.0243624 2.82344e-22 0.00373228 22.4584
-0.0239087 -9.03502e-21 0.00623548 1327.65
0.0239088 4.51751e-21 0.00623556 1311.29
-0.0243381 -3.38813e-21 0.00441605 61.0858
0.0243382 1.12938e-21 0.00441607 33.0227
-0.0239122 2.71051e-20 0.00663214 1676.9
0.0239123 2.71051e-20 0.00663222 1671.85
-0.0243154 -2.25875e-21 0.00509819 112.539
0.0243154 -2.25875e-21 0.00509822 76.9287
-0.0240421 -1.35525e-20 0.00655998 1672.16
0.0240423 -1.35525e-20 0.00656006 1667.09
-0.0240313 -1.35525e-20 0.00671945 1750.95
0.0240314 -1.35525e-20 0.00671952 1745.93
-0.0242743 6.77626e-21 0.00580724 493.382
0.0242743 -2.25875e-21 0.00580731 443.941
0.025 0 -6.78659e-20 237.113
-0.025 0 -6.79172e-20 254.811
0.025 0 8.97343e-05 237.096
-0.025 0 8.9709e-05 254.795
-0.0246754 -2.71051e-20 0.00405937 48.6505
0.0246754 2.71051e-20 0.00405938 20.8608
-0.0241475 0 0.00680428 1840.4
0.0241476 1.35525e-20 0.00680434 1835.37
-0.0246399 0 0.0047433 59.6733
0.02464 0 0.00474333 33.5874
-0.0250975 1.35525e-20 1.25225e-20 255.077
0.0250975 0 1.25174e-20 237.4
-0.0250714 2.25875e-21 0.00116098 164.056
0.0250714 0 0.00116099 139.493
-0.0241989 1.35525e-20 0.00668135 1793.34
0.024199 0 0.00668141 1788.28
-0.0250417 1.12938e-21 0.00239864 60.6196
0.0250417 -4.51751e-21 0.00239864 28.4603
-0.0243357 -1.77474e-21 0.00637844 1197.91
0.0243358 8.06698e-22 0.0063785 1160.72
-0.0251867 -1.35525e-20 8.69183e-05 254.342
0.0251867 1.35525e-20 8.69404e-05 236.596
-0.0251905 -1.35525e-20 7.48163e-21 254.341
0.0251905 0 7.4798e-21 236.595
-0.0246259 2.71051e-20 0.00542264 109.276
0.024626 0 0.00542268 74.3423
-0.0250391 4.51751e-21 0.00359809 48.8834
0.0250391 0 0.00359809 18.3418
-0.0243359 1.69407e-21 0.00694205 2012.21
0.024336 -1.69407e-21 0.00694207 2006.85
-0.0243561 0 0.00693961 2020.53
0.0243561 1.69407e-21 0.00693962 2015.16
-0.0243565 0 0.00695709 2024.26
0.0243566 1.69407e-21 0.00695714 2018.85
-0.0243749 0 0.00693981 1997.53
0.024375 0 0.00693983 1990.12
-0.0249674 -5.64689e-22 0.00436302 52.1514
0.0249674 -5.64689e-22 0.00436303 24.3903
-0.0243749 0 0.00695741 2042.2
0.024375 0 0.00695746 2036.78