# omega  POINT_DATA 27756
# x  y  z  omega
0.014142 -1.35525e-20 1.6805e-07 1659.72
-0.014142 1.35525e-20 1.6805e-07 1659.93
-0.014142 -6.77626e-21 0.000389161 2764.42
0.014142 -3.38813e-21 0.000389161 2764.25
-0.014142 1.35525e-20 0.000654607 3140.21
0.014142 -1.01644e-20 0.000654607 3140.03
0.014142 0 0.0010436 3119.05
-0.014142 0 0.0010436 3119.27
0.014142 3.38813e-21 0.00143258 3098.11
-0.014142 -3.38813e-21 0.00143258 3098.4
0.0142373 -1.35525e-20 0.000284221 2278.35
-0.0142373 0 0.000284221 2278.52
0.014142 -3.38813e-21 0.00169802 2718.88
-0.014142 3.38813e-21 0.00169802 2719.26
0.0142373 -1.35525e-20 0.000886478 3130.95
-0.0142373 -1.35525e-20 0.00088648 3131.15
-0.0142692 -2.03288e-20 1.47356e-07 1331.25
0.0142693 2.03288e-20 1.47356e-07 1331.05
0.0142379 -1.35525e-20 0.0012254 3107.21
-0.0142379 0 0.0012254 3107.47
0.014142 -1.35525e-20 0.002087 1622.81
-0.014142 1.35525e-20 0.002087 1623.39
-0.0142973 0 0.000101975 1418.38
0.0142973 1.35525e-20 0.000101973 1418.19
0.0142379 0 0.00182879 2245.15
-0.0142379 -1.35525e-20 0.00182879 2245.61
-0.014375 -1.35525e-20 1.30159e-07 1444.52
0.014375 1.35525e-20 1.30159e-07 1444.21
0.0143675 0 0.000671993 3147.18
-0.0143675 -1.35525e-20 0.000671996 3147.33
-0.0142629 6.77626e-21 0.00213232 1306.06
0.0142629 6.77626e-21 0.00213231 1305.44
-0.0142983 0 0.00203123 1411.53
0.0142983 0 0.00203122 1410.93
0.0143695 2.71051e-20 0.00147469 3090.92
-0.0143695 -1.35525e-20 0.0014747 3091.21
0.0145077 4.92819e-21 0.000511288 1653.44
-0.0145077 7.39229e-21 0.000511289 1672.1
-0.0145274 -1.35525e-20 1.02817e-07 1022.96
0.0145274 1.35525e-20 1.02816e-07 1022.61
-0.014375 0 0.00217431 1430.47
0.014375 0 0.00217432 1429.8
0.0144983 -1.12938e-21 0.00108867 1869.46
-0.0144983 0 0.00108868 1899.42
-0.0145754 9.41148e-22 0.000290395 1031
0.0145754 -3.76459e-22 0.000290391 1029.62
0.0145113 -6.16024e-21 0.00167641 1583.75
-0.0145113 -2.4641e-21 0.00167642 1612.45
-0.0146106 0 8.78841e-08 1262.81
0.0146106 2.71051e-20 8.78836e-08 1262.33
-0.0145148 1.35525e-20 0.00222669 1037.3
0.0145148 -1.35525e-20 0.00222669 1036.57
0.0146674 -2.25875e-21 0.00084634 1255.38
-0.0146674 0 0.000846346 1418.42
0.0145789 -9.41148e-23 0.00192781 1026.79
-0.0145789 9.41148e-23 0.00192783 1028.39
0.0146711 -3.38813e-21 0.00137924 1204.3
-0.0146711 0 0.00137925 1419.83
-0.0145873 0 0.00225387 1244.6
0.0145873 0 0.00225387 1243.87
0.0147492 0 0.000649507 948.412
-0.0147492 -1.35525e-20 0.00064951 979.553
0.0147845 5.0822e-21 0.000655261 1070.66
-0.0147845 3.38813e-21 0.000655264 1092.56
0.014799 6.77626e-21 0.00087194 873.064
-0.014799 -6.77626e-21 0.000871947 870.436
0.0147848 -1.50584e-21 0.00117685 920.31
-0.0147848 -6.02335e-21 0.00117685 943.735
0.0147611 1.35525e-20 0.00160916 868.608
-0.0147611 0 0.00160917 906.704
0.0147982 9.85638e-21 0.00158804 930.103
-0.0147982 1.10884e-20 0.00158805 950.339
-0.0148904 6.77626e-21 6.18651e-08 1001.22
0.0148905 0 6.18649e-08 1000.58
0.0147327 4.06576e-20 0.00230835 932.895
-0.0147327 0 0.00230836 933.659
-0.0149957 4.70574e-23 0.000282714 1005.77
0.0149957 -1.8823e-22 0.000282717 1004.86
-0.015 0 5.8904e-08 993.863
0.015 6.77626e-21 5.89036e-08 993.094
-0.0149675 7.52918e-22 0.00202158 854.086
0.0149675 -3.76459e-22 0.00202157 851.588
-0.0150978 1.01644e-20 0.000881424 507.204
0.0150978 1.12938e-21 0.000881419 479.904
0.015 -3.38813e-21 0.00225502 1007.94
-0.015 0 0.00225504 1008.74
0.0151059 6.77626e-21 0.00145532 453.645
-0.0151059 2.25875e-21 0.00145533 481.846
0.015 -3.38813e-21 0.00240854 1097.69
-0.015 0 0.00240855 1098.48
-0.0150379 0 0.00242273 1133.68
0.0150379 -3.38813e-21 0.00242272 1132.9
0.01529 0 2.82763e-08 977.133
-0.01529 2.71051e-20 2.82765e-08 978.175
0.0151247 0 0.00245524 1189.01
-0.0151247 -3.38813e-21 0.00245526 1189.81
-0.0153535 2.71051e-20 0.00058317 648.694
0.0153535 5.42101e-20 0.000583168 633.127
0.0153939 0 0.00118159 330.296
-0.0153939 0 0.0011816 353.593
0.0153693 -2.71051e-20 0.00185215 611.377
-0.0153693 -2.71051e-20 0.00185216 636.873
-0.0152781 0 0.00251266 1310.35
0.0152781 6.77626e-21 0.00251265 1309.57
-0.0153114 0 0.00239528 1266.02
0.0153114 -3.38813e-21 0.00239523 1265.22
0.0153767 -4.51751e-21 0.00228002 1259.5
-0.0153767 0 0.00228003 1261.03
-0.015625 1.01644e-20 2.01017e-08 944.997
0.015625 -2.87991e-20 2.01015e-08 943.59
0.0156405 -1.52466e-20 1.9576e-08 942.587
-0.0156405 2.71051e-20 1.95762e-08 944.011
-0.0156637 -1.12938e-21 0.000293614 928.406
0.0156637 3.38813e-21 0.000293613 926.206
0.0154678 0 0.00258382 1589.79
-0.0154678 -1.35525e-20 0.00258382 1590.58
0.0157172 -2.25875e-21 0.00089524 234.481
-0.0157172 0 0.000895245 265.251
0.015724 0 0.00153553 212.097
-0.015724 -2.25875e-21 0.00153553 245.554
0.0156525 0 0.00230987 1262.48
-0.0156525 0 0.00230987 1282.92
-0.015625 0 0.00255394 1846.28
0.015625 -1.35525e-20 0.00255394 1845.53
-0.015625 -2.03288e-20 0.00264258 1955.75
0.015625 1.35525e-20 0.00264259 1955.03
-0.0157449 -1.35525e-20 0.00206368 579.125
0.0157449 -4.51751e-21 0.00206369 521.581
-0.015972 -5.42101e-20 1.0971e-08 947.903
0.015972 -2.71051e-20 1.0971e-08 946.169
-0.0157606 0 0.00269322 2127.84
0.0157606 -4.06576e-20 0.00269323 2127.1
-0.0158002 0 0.00252824 1978.53
0.0158002 -8.13152e-21 0.00252825 1977.79
-0.0160283 2.71051e-20 0.000587666 573.821
0.0160283 2.71051e-20 0.000587665 558.492
0.016059 -2.71051e-20 0.00121824 152.79
-0.0160591 0 0.00121824 182.875
-0.0160388 -2.71051e-20 0.00190504 433.936
0.0160388 2.71051e-20 0.00190505 400.641
-0.0159592 2.71051e-20 0.00276747 1608.22
0.0159593 -2.71051e-20 0.00276748 1607.16
-0.0160464 1.12938e-20 0.00232046 1088.73
0.0160464 6.77626e-21 0.00232048 1059.79
-0.01625 1.35525e-20 8.16833e-09 941.283
0.01625 -1.35525e-20 8.1683e-09 939.251
-0.0163416 -2.25875e-21 0.000297322 890.25
0.0163416 -4.51751e-21 0.000297321 886.393
0.0163888 -3.38813e-20 5.62447e-09 936.034
-0.0163888 -2.71051e-20 5.62442e-09 938.201
0.0163802 2.25875e-21 0.000909932 217.71
-0.0163802 9.03502e-21 0.00090993 242.572
-0.0163169 1.89735e-20 0.00210721 352.917
0.0163169 1.6263e-20 0.00210723 319.307
0.016394 2.25875e-21 0.0015607 145.411
-0.016394 0 0.00156069 174.953
-0.01625 1.69407e-20 0.00287738 1487.18
0.0162501 -3.38813e-20 0.00287742 1485.92
-0.0162993 2.03288e-20 0.00289583 1474.74
0.0162996 -3.04932e-20 0.00289591 1473.42
-0.0163574 4.51751e-21 0.00265188 1435.85
0.0163575 2.25875e-21 0.00265193 1431.06
-0.0166549 0 2.57175e-09 940.16
0.0166549 0 2.57177e-09 937.8
0.0166925 2.71051e-20 0.00059198 545.702
-0.0166925 0 0.000591981 560.293
-0.0165907 0 0.00300593 1348.08
0.0165909 -2.71051e-20 0.00300602 1346.66
-0.0168227 -4.51751e-21 0.00122863 146.156
0.0168227 4.51751e-21 0.00122863 118.843
-0.016875 0 2.08171e-09 935.559
0.016875 1.35525e-20 2.08172e-09 932.963
-0.0167197 0 0.00238747 658.294
0.0167198 0 0.00238751 637.129
-0.0167791 6.77626e-21 0.00193458 193.511
0.0167791 4.51751e-21 0.00193459 163.298
0.0169402 0 0.000818281 266.822
-0.0169402 0 0.000818282 291.226
-0.0170157 -4.51751e-21 0.000298727 861.108
0.0170157 4.51751e-21 0.000298727 855.944
-0.0168154 2.71051e-20 0.00309174 925.141
0.0168157 2.03288e-20 0.00309186 923.301
-0.017054 0 0.00156175 101.135
0.017054 0 0.00156176 76.6573
0.0171302 -1.35525e-20 1.11108e-09 935.168
-0.0171302 0 1.11107e-09 937.963
-0.016875 6.77626e-21 0.00300832 902.23
0.0168752 -6.77626e-21 0.00300853 900.418
-0.016875 0 0.00311456 945.908
0.0168752 -3.38813e-21 0.00311463 944.038
-0.0169671 -3.38813e-21 0.00280904 936.162
0.0169673 2.25875e-21 0.00280912 931.256
-0.0170607 0 0.00222781 196.872
0.0170608 0 0.00222783 174.185
-0.0173299 2.71051e-20 6.20517e-10 954.166
0.0173299 -2.71051e-20 6.2052e-10 951.331
-0.0170892 -4.06576e-20 0.00319641 1131.06
0.0170896 0 0.00319653 1129.31
-0.017405 0 0.000633538 520.372
0.017405 -2.25875e-21 0.000633539 502.459
-0.0173772 2.25875e-21 0.00122567 137.73
0.0173772 -2.25875e-21 0.00122567 110.46
-0.0173848 4.51751e-21 0.00190647 136.869
0.0173849 -4.51751e-21 0.00190649 108.521
-0.0175 0 5.31043e-10 957.629
0.0175 0 5.31044e-10 954.672
-0.0175 2.71051e-20 0.000142313 957.206
0.0175 -1.35525e-20 0.000142315 954.256
-0.0172483 0 0.00325639 1205.13
0.0172486 1.35525e-20 0.00325649 1203.54
-0.0172988 1.35525e-20 0.00309078 1191.72
0.0172991 0 0.00309094 1190.1
-0.0174281 1.35525e-20 0.0026727 699.236
0.0174282 6.77626e-21 0.00267274 670.61
-0.0176747 0 0.000289064 960.697
0.0176747 0 0.000289064 957.64
-0.0177004 -2.71051e-20 0.000896457 181.955
0.0177004 0 0.000896462 150.344
-0.0174579 0 0.00333599 1441.97
0.0174583 1.69407e-21 0.00333616 1440.61
-0.0177158 0 0.00155351 89.7963
0.0177158 0 0.00155351 64.2144
-0.0174806 0 0.00332675 1460.8
0.0174809 0 0.00332697 1459.3
-0.0174846 1.69407e-21 0.00334611 1478.08
0.0174848 0 0.00334621 1476.47
-0.0175001 1.69407e-21 0.00332514 1459.51
0.0175002 0 0.00332537 1455.92
-0.0175001 0 0.00334303 1500.27
0.0175002 0 0.00334314 1498.53
-0.0175001 0 0.00335193 1511.07
0.0175002 0 0.00335199 1509.26
-0.0177088 -2.71051e-20 0.00225929 152.841
0.0177089 0 0.00225933 112.266
0.0178538 0 1.78852e-10 974.315
-0.0178538 -2.71051e-20 1.78849e-10 977.417
0.0178633 1.35525e-20 0.000120403 974.486
-0.0178633 0 0.000120401 977.588
-0.0176368 -4.51751e-21 0.00307374 1235.23
0.017637 4.51751e-21 0.00307382 1219.51
-0.0176473 1.35525e-20 0.00307813 1234.25
0.0176475 -1.35525e-20 0.00307821 1217.12
-0.0179989 1.35525e-20 9.3839e-11 1004.34
0.0179989 1.35525e-20 9.38393e-11 1001.28
-0.0180169 -2.25875e-21 0.000576041 597.14
0.0180169 4.51751e-21 0.000576041 578.847
-0.0180393 0 0.00120814 138.468
0.0180394 2.25875e-21 0.00120814 107.846
-0.0177861 1.35525e-20 0.00345972 1827.39
0.0177863 -1.35525e-20 0.00345982 1825.9
-0.0181252 0 8.38838e-11 1010.58
0.0181253 0 8.38839e-11 1007.48
-0.0181254 -2.71051e-20 0.000104621 1010.17
0.0181254 0 0.00010462 1007.07
-0.0180404 2.25875e-21 0.00190105 113.058
0.0180405 -2.25875e-21 0.00190107 77.5499
-0.0178475 1.35525e-20 0.0033839 1775.21
0.0178476 1.35525e-20 0.00338403 1773.73
-0.0180106 -4.51751e-21 0.00263553 432.209
0.0180107 -4.51751e-21 0.0026356 378.571
-0.0179205 -2.71051e-20 0.00351035 1550.48
0.0179207 0 0.00351043 1549.02
-0.0180602 -9.03502e-22 0.00312038 1122.17
0.0180604 9.03502e-22 0.00312046 1086.8
-0.0183343 -2.71051e-20 0.000279709 1026.96
0.0183343 0 0.000279703 1023.81
-0.0183566 0 0.000873067 194.419
0.0183566 2.71051e-20 0.000873065 157.932
-0.01837 0 0.00152863 87.1124
0.0183701 -2.71051e-20 0.00152863 57.537
-0.018125 -6.77626e-21 0.00358731 1310.68
0.0181251 6.77626e-21 0.00358737 1309.33
-0.0183588 -2.71051e-20 0.0022394 120.839
0.0183589 2.71051e-20 0.00223943 73.9793
-0.0185565 0 2.08884e-11 1065.87
0.0185566 1.35525e-20 2.08886e-11 1062.71
-0.0185599 1.35525e-20 8.401e-05 1065.94
0.0185599 0 8.40103e-05 1062.78
-0.0182327 -3.38813e-20 0.00362784 1317.06
0.0182331 -2.03288e-20 0.00362801 1315.77
-0.0182779 -1.807e-20 0.0034486 1416.92
0.0182781 -4.51751e-21 0.00344874 1415.57
-0.018389 0 0.00288151 336.012
0.0183891 5.42101e-20 0.00288158 254.724
-0.0186587 0 1.21776e-11 1100.5
0.0186588 0 1.21775e-11 1097.37
-0.0186718 -1.12938e-21 0.000554126 652.836
0.0186718 0 0.000554126 630.578
-0.0186932 -3.38813e-21 0.00117299 147.489
0.0186932 2.25875e-21 0.00117299 111.343
-0.01875 0 1.12105e-11 1107.02
0.01875 0 1.12104e-11 1103.86
-0.01875 -1.35525e-20 7.46445e-05 1106.94
0.01875 0 7.46508e-05 1103.78
-0.0186938 0 0.00186329 97.558
0.0186938 0 0.0018633 59.864
-0.0184518 -1.35525e-20 0.00371033 1538.08
0.0184522 1.35525e-20 0.00371046 1536.75
-0.018692 -1.12938e-21 0.00255869 194.572
0.018692 1.12938e-21 0.00255873 134.221
-0.0185639 1.35525e-20 0.00375412 1588.99
0.0185642 2.71051e-20 0.00375424 1587.64
-0.0185985 -2.71051e-20 0.00364672 1586.35
0.0185988 -1.35525e-20 0.00364689 1585
-0.0189816 0 0.0002651 1144.59
0.0189816 0 0.00026511 1141.4
-0.0187018 0 0.00326235 996.295
0.0187021 -7.52918e-22 0.00326243 955.622
-0.0190035 5.42101e-20 0.000835928 219.503
0.0190035 5.42101e-20 0.00083593 172.285
-0.0190203 0 0.00148196 88.2566
0.0190203 2.71051e-20 0.00148197 55.676
-0.01875 0 0.00382122 1824
0.0187502 0 0.00382131 1822.58
-0.0190138 2.71051e-20 0.00218695 94.0381
0.0190138 -2.71051e-20 0.00218697 52.2422
-0.0188263 0 0.00385065 1820.21
0.0188267 6.77626e-21 0.00385081 1818.81
-0.0190106 -2.71051e-20 0.00288311 213.544
0.0190107 2.71051e-20 0.00288317 144.599
-0.0188705 -6.77626e-21 0.00377231 1781.11
0.0188709 0 0.0037723 1779.64
0.0192456 -6.77626e-21 1.60933e-12 1256.46
-0.0192456 0 1.60924e-12 1259.52
0.0192459 0 5.21771e-05 1256.5
-0.0192459 0 5.21707e-05 1259.56
-0.01896 4.51751e-21 0.00363202 1591.61
0.0189603 -4.51751e-21 0.00363217 1580.57
0.0193107 0 8.87425e-13 1302.27
-0.0193107 0 8.87409e-13 1305.28
-0.0189237 1.35525e-20 0.00389016 1892.49
0.0189243 -1.35525e-20 0.00389043 1891.29
0.0193153 0 0.000516097 751.981
-0.0193153 2.25875e-21 0.000516096 779.866
0.0193661 -1.35525e-20 4.34935e-05 1322.17
-0.0193661 -6.77626e-21 4.34909e-05 1325.19
0.0193681 -6.77626e-21 8.52462e-13 1319.54
-0.0193681 0 8.52481e-13 1322.55
0.019358 -1.58113e-21 0.00110754 129.205
-0.019358 -6.77626e-22 0.00110754 171.588
-0.0193483 5.64689e-22 0.00179883 89.2321
0.0193484 -1.69407e-21 0.00179884 52.11
-0.0193331 -2.25875e-21 0.00252234 136.268
0.0193332 2.25875e-21 0.00252237 80.7842
-0.019126 0 0.00398495 2157.54
0.0191265 0 0.00398518 2156.27
-0.0191704 1.35525e-20 0.00393584 2110.35
0.0191709 -1.35525e-20 0.0039361 2109.12
-0.0193001 2.25875e-21 0.00324569 607.374
0.0193003 6.77626e-21 0.0032458 541.965
0.0196143 0 0.000236552 1436.94
-0.0196143 -2.71051e-20 0.000236554 1439.83
-0.0192183 1.35525e-20 0.00403232 1850.28
0.0192187 0 0.00403252 1849.15
-0.0196507 0 0.000769621 270.254
0.0196507 0 0.000769623 212.49
-0.0193646 -2.25875e-22 0.00369144 1383.7
0.0193648 5.64689e-22 0.00369158 1345.09
-0.0197261 0 4.33323e-13 1188.1
0.0197262 1.01644e-20 4.33135e-13 1184.68
-0.0196852 -2.71051e-20 0.00139142 95.1166
0.0196853 0 0.00139142 59.3246
-0.0196581 0 0.00213359 80.3533
0.0196582 -2.71051e-20 0.00213361 41.8137
-0.0193749 0 0.00398198 1668.32
0.0193751 -1.35525e-20 0.00398219 1667.24
-0.0193749 -6.77626e-21 0.00411562 1548.87
0.0193752 -1.35525e-20 0.00411575 1547.8
-0.0196509 0 0.00284944 153.333
0.019651 2.71051e-20 0.00284949 81.7925
0.0199511 1.35525e-21 0.000464178 769.251
-0.0199511 4.51751e-21 0.00046418 788.344
-0.0196745 -2.71051e-20 0.0034813 409.034
0.0196747 2.71051e-20 0.00348141 311.459
-0.0195416 1.35525e-20 0.00420424 1476.2
0.0195422 2.03288e-20 0.00420454 1474.91
-0.0199999 0 4.82349e-13 1141.9
-0.0199999 6.77626e-21 2.78793e-05 1140.98
0.02 0 4.8203e-13 1138.32
0.02 0 2.78629e-05 1137.39
-0.0199999 -3.38813e-21 0.00020828 985.504
0.02 -3.38813e-21 0.000208219 975.223
-0.0200396 -6.77626e-21 7.2017e-14 1130.57
0.0200396 0 7.19638e-14 1126.93
-0.0196493 -2.71051e-20 0.00406163 1644.52
0.0196497 0 0.0040619 1643.33
0.0200681 0 2.37653e-05 1160.54
-0.0200681 0 2.37764e-05 1164.15
-0.0199936 -2.82344e-22 0.00175494 89.2882
0.0199936 4.70574e-23 0.00175489 51.613
0.0200714 0 3.9275e-14 1163.31
-0.0200714 0 3.92932e-14 1166.92
0.0200889 2.25875e-21 0.000959457 232.33
-0.0200889 -9.03502e-21 0.000959452 263.952
-0.0200181 0 0.00244871 113.292
0.0200182 -1.6134e-22 0.00244877 59.8317
0.0201758 6.77626e-21 9.02736e-15 1137.85
-0.0201758 -6.77626e-21 9.03236e-15 1141.59
-0.0197167 0 0.00429743 1632.64
0.0197172 1.35525e-20 0.00429767 1631.29
-0.0199681 -1.12938e-21 0.00317465 235.902
0.0199682 5.64689e-22 0.00317472 156.826
-0.0198179 1.35525e-20 0.00435132 1642.89
0.0198183 0 0.00435153 1641.54
-0.0198553 1.35525e-20 0.0042445 1660.52
0.0198557 2.71051e-20 0.00424476 1659.17
-0.0199718 1.8823e-22 0.00386197 1096.37
0.0199721 6.2693e-38 0.0038621 1048.68
0.0204248 -2.25875e-21 0.000311566 742.045
-0.0204248 -2.25875e-21 0.000311579 747.726
-0.02042 0 0.00146739 94.4009
0.0204201 2.71051e-20 0.00146739 56.9272
-0.0202842 2.71051e-20 0.00282334 116.584
0.0202843 0 0.00282338 54.5981
-0.0199999 0 0.00444833 1798.81
0.0200001 0 0.00444847 1797.35
-0.0204142 -2.71051e-20 0.00196456 74.2636
0.0204142 0 0.00196457 38.9397
0.0205235 -1.35525e-20 4.55491e-15 913.46
-0.0205235 0 4.54657e-15 917.388
-0.0200605 0 0.00448064 1771.97
0.0200609 0 0.00448086 1770.45
-0.0202767 2.71051e-20 0.00350287 246.365
0.0202769 0 0.00350296 163.159
-0.0201022 -3.38813e-21 0.00441312 1743.29
0.0201026 0 0.00441316 1741.71
-0.0201274 1.35525e-20 0.00451629 1812.27
0.020128 -6.77626e-21 0.00451661 1810.81
-0.0202113 3.01167e-21 0.00425304 1567.2
0.0202117 3.01167e-21 0.00425325 1554.61
-0.0206612 4.03349e-22 0.000857173 363.63
0.0206612 -1.6134e-21 0.000857148 324.564
0.0206906 0 1.34853e-15 956.71
-0.0206907 -1.35525e-20 1.33611e-15 961.646
-0.020629 -1.35525e-20 0.00169533 84.4379
0.0206291 1.35525e-20 0.00169533 49.2213
-0.0206304 -5.64689e-22 0.00244032 90.6675
0.0206304 0 0.00244033 42.4167
-0.0205957 5.64689e-22 0.00315757 156.836
0.0205958 -5.64689e-22 0.00315762 87.3564
-0.0203417 1.35525e-20 0.00463048 2040.14
0.0203423 1.35525e-20 0.00463076 2038.51
-0.0208463 -2.71051e-20 0.00142107 92.0943
0.0208463 0 0.00142105 62.2206
-0.0203947 -2.71051e-20 0.00457337 1994.42
0.0203952 0 0.00457368 1992.8
-0.0205529 -2.25875e-21 0.00387353 633.785
0.0205531 -2.25875e-21 0.00387367 555.964
-0.0208258 5.42101e-20 0.00194373 73.7891
0.0208259 -2.71051e-20 0.00194374 36.7557
0.0209524 0 4.20741e-16 695.167
-0.0209524 -8.47033e-21 4.14861e-16 701.185
-0.0209675 -2.5411e-21 0.000105966 669.782
0.0209676 0 0.000106769 663.379
-0.0209754 -1.18585e-20 2.17868e-16 685.021
0.0209755 0 2.20894e-16 678.73
-0.0204458 0 0.00468592 1746.62
0.0204463 0 0.00468616 1745.01
0.020982 0 0.000349578 640.171
-0.020982 1.69407e-21 0.000349595 647.877
-0.0206056 0 0.00432294 1321.43
0.020606 3.38813e-22 0.00432311 1274.07
-0.0209339 0 0.00277546 89.4256
0.020934 2.71051e-20 0.00277549 38.4104
-0.0206248 6.77626e-21 0.0047813 1420.29
0.0206252 6.77626e-21 0.00478146 1418.6
-0.0208973 0 0.00349614 170.275
0.0208974 0 0.00349621 89.2674
-0.0212499 1.35525e-20 -3.23245e-16 734.291
0.02125 0 -3.25657e-16 726.066
-0.0207397 -6.77626e-21 0.00484247 1371.28
0.0207403 0 0.00484278 1369.37
-0.0207849 4.51751e-21 0.00466272 1535.95
0.0207853 0 0.00466297 1534.18
-0.020919 -2.71051e-20 0.00411646 425.782
0.0209192 0 0.00411659 302.57
0.0212542 8.47033e-22 0.00168692 47.4156
-0.0212542 1.12938e-21 0.00168692 80.421
-0.0213183 -5.27043e-21 0.00090011 342.362
0.0213184 3.76459e-21 0.000900084 305.628
-0.0213459 2.71051e-20 0.000121878 571.221
0.0213461 0 0.000122078 561.529
-0.0213547 -1.35525e-20 6.62743e-17 573.6
0.0213549 1.35525e-20 6.75068e-17 563.922
-0.0212894 -1.12938e-21 0.00229421 76.7656
0.0212894 -2.25875e-21 0.00229423 36.6985
-0.0214253 1.35525e-20 -2.81409e-16 541.695
0.0214256 4.06576e-20 -2.82555e-16 532.2
-0.0212264 -1.35525e-21 0.00310843 108.704
0.0212264 9.03502e-22 0.00310848 52.7805
-0.0209343 1.35525e-20 0.00494614 1544.88
0.0209347 0 0.00494637 1542.94
-0.0212106 1.12938e-21 0.00381734 247.307
0.0212108 -1.12938e-21 0.00381742 155.878
-0.0215706 0 0.000127244 470.081
0.0215712 1.35525e-20 0.00012747 459.812
-0.0216062 1.35525e-20 1.82017e-16 464.944
0.0216069 1.35525e-20 1.81754e-16 454.647
-0.0210472 -1.35525e-20 0.00500632 1565.77
0.0210476 -1.35525e-20 0.00500653 1563.7
-0.0210903 -2.71051e-20 0.00488671 1579.92
0.0210906 -2.71051e-20 0.00488695 1577.88
-0.0212076 -1.8823e-21 0.00450561 1046.68
0.0212079 -1.8823e-21 0.00450575 988.529
-0.0215471 -5.42101e-20 0.0027678 68.2319
0.0215471 0 0.00276782 31.9361
-0.0215274 2.71051e-20 0.00347138 114.574
0.0215275 -2.71051e-20 0.00347142 55.209
-0.0212498 3.38813e-21 0.00511424 1747.87
0.0212501 3.38813e-21 0.00511439 1745.69
-0.0212808 0 0.00513076 1737.86
0.0212812 0 0.00513096 1735.65
-0.0213035 6.77626e-21 0.00509491 1722.31
0.0213039 -3.38813e-21 0.00509497 1720.07
-0.0215161 2.71051e-20 0.00414681 258.083
0.0215163 2.71051e-20 0.00414691 159.738
-0.0213152 -6.77626e-21 0.00514909 1759
0.0213157 0 0.00514937 1756.82
-0.0219058 -5.42101e-20 0.001718 72.5296
0.0219059 -5.42101e-20 0.001718 40.9368
-0.0214404 9.03502e-21 0.00489762 1515.97
0.0214407 -3.01167e-21 0.00489781 1498.54
-0.0218827 -8.47033e-22 0.00243261 66.0955
0.0218827 -4.94103e-22 0.00243267 32.3633
-0.0220244 0 0.000514819 316.537
0.0220245 0 0.000514821 303.795
-0.0218548 0 0.00311109 79.2471
0.0218549 5.64689e-22 0.00311111 37.7414
-0.0218321 -1.12938e-21 0.00380917 154.02
0.0218322 -3.38813e-21 0.00380923 85.7343
-0.0215576 1.35525e-20 0.00527824 2016.74
0.0215581 1.35525e-20 0.00527848 2014.3
-0.021618 0 0.00521392 1965.33
0.0216184 0 0.00521418 1962.91
-0.0217926 -2.25875e-21 0.00451282 606.346
0.0217928 2.25875e-21 0.00451296 521.147
-0.0216748 2.71051e-20 0.00534064 1697.77
0.0216752 2.71051e-20 0.00534085 1695.18
-0.0221927 2.71051e-20 0.00274698 57.2771
0.0221928 0 0.00274698 26.5306
-0.0218358 -2.25875e-22 0.0049689 1284.87
0.0218361 -2.25875e-22 0.00496905 1231.56
-0.0221555 0 0.0034489 77.1748
0.0221556 2.71051e-20 0.00344893 37.4056
0.0224999 4.06576e-20 2.20686e-16 290.746
-0.0224999 2.71051e-20 2.2102e-16 304.489
0.0224999 2.71051e-20 0.000132825 289.308
-0.0224999 0 0.0001328 303.179
-0.0221425 0 0.00413734 160.471
0.0221426 2.71051e-20 0.00413741 86.3437
-0.0218748 -6.77626e-21 0.00544721 1352.54
0.0218751 1.01644e-20 0.00544736 1349.44
-0.0225913 0 0.00111535 187.551
0.0225913 0 0.00111535 164.742
-0.0219453 1.69407e-20 0.00548473 1325.77
0.0219458 1.69407e-20 0.00548498 1322.5
-0.0220187 9.03502e-21 0.00530677 1481.31
0.0220191 0 0.00530698 1478.31
-0.0221556 0 0.00476086 424.262
0.0221558 -2.71051e-20 0.00476098 292.43
-0.0226679 0 -7.77359e-18 321.436
0.022668 2.71051e-20 -7.82958e-18 307.1
-0.0225574 -1.12938e-21 0.00228407 62.049
0.0225574 -2.25875e-21 0.00228407 31.5861
-0.0224843 1.41172e-22 0.00307679 62.952
0.0224843 -1.12938e-21 0.00307682 29.9367
0.0224598 -4.23516e-22 0.00375133 55.4576
-0.02246 1.27055e-21 0.00375126 105.12
0.0225 -4.23516e-22 0.00363437 49.197
-0.0225 0 0.00363507 94.967
-0.0225048 0 0.00375028 101.682
0.0225052 4.23516e-22 0.00374488 53.2763
-0.0225 4.23516e-22 0.00378721 109.595
0.0225001 0 0.00378754 59.0716
-0.0228181 2.71051e-20 0.000138892 289.532
0.0228182 0 0.000138937 274.256
-0.0228294 -2.71051e-20 -4.78752e-18 289.474
0.0228295 -2.71051e-20 -4.81473e-18 274.189
-0.0221583 1.35525e-20 0.00559821 1511.5
0.0221587 -1.35525e-20 0.00559841 1508.3
-0.0225496 3.38813e-21 0.00374903 99.2794
0.02255 0 0.00374908 52.0158
-0.0224518 -2.25875e-21 0.00446274 236.332
0.022452 1.12938e-21 0.00446282 151.13
-0.0222812 1.35525e-20 0.00566371 1534.79
0.0222816 -2.71051e-20 0.00566387 1531.53
-0.0223282 -1.35525e-20 0.00553398 1548.62
0.0223285 1.35525e-20 0.00553418 1545.39
-0.0224429 -4.89397e-21 0.00515541 1021.39
0.0224431 1.8823e-21 0.00515553 963.775
-0.0229083 0 0.00284898 52.7932
0.0229083 2.71051e-20 0.00284898 23.8463
-0.0227694 0 0.0041284 98.6314
0.0227695 0 0.00412845 54.6904
-0.022907 -5.42101e-20 0.00330614 58.5166
0.0229071 5.42101e-20 0.00330617 27.8343
-0.0224999 -8.47033e-22 0.00578016 1732.77
0.0225001 0 0.00578025 1729.14
-0.022509 0 0.00578499 1730.08
0.0225093 0 0.00578515 1726.41
-0.0225157 0 0.00577432 1725.43
0.0225161 0 0.00577434 1721.71
-0.0225192 5.0822e-21 0.00579044 1736.54
-0.0231858 0 0.00175337 70.6381
0.0231858 5.42101e-20 0.00175337 40.0128
-0.0232455 0 0.000558691 273.571
0.0225196 -1.01644e-20 0.00579066 1732.93
0.0232455 5.42101e-20 0.000558707 256.924
-0.0227557 2.71051e-20 0.00479293 240.445
0.0227559 -2.71051e-20 0.00479302 154.973
-0.0231485 -1.97641e-21 0.00241746 57.5063
0.0231485 -1.12938e-21 0.00241748 28.4521
-0.0231146 0 0.0030752 53.7988
0.0231146 1.35525e-20 0.00307521 24.4115
-0.0226733 6.02335e-21 0.00554788 1492.51
0.0226736 1.50584e-21 0.00554803 1472.3
-0.023097 -1.50584e-21 0.00377993 72.2504
0.023097 -1.50584e-21 0.00377994 38.074
-0.0230771 -2.25875e-21 0.00445731 137.635
0.0230772 -1.12938e-21 0.00445735 83.9103
-0.0233412 0 0.00284258 49.7761
0.0233413 -2.71051e-20 0.00284259 21.7041
-0.023307 -2.71051e-20 0.00329648 53.1272
0.023307 2.71051e-20 0.0032965 23.191
-0.0227839 0 0.00593173 2019.8
0.0227842 0 0.00593191 2015.41
-0.0228491 0 0.00586239 1964.79
0.0228494 1.35525e-20 0.00586258 1960.43
-0.023032 4.51751e-21 0.00515826 570.9
0.0230322 4.51751e-21 0.00515836 498.753
-0.0229106 0 0.00599952 1665.55
0.0229109 2.71051e-20 0.00599968 1660.95
-0.02307 -4.51751e-22 0.00562146 1259.79
0.0230702 9.03502e-22 0.00562158 1212.22
0.0237499 0 -2.50024e-18 250.866
-0.02375 0 -2.47802e-18 267.857
0.02375 1.35525e-20 0.000111019 250.691
-0.02375 1.35525e-20 0.000110975 267.692
-0.0234167 2.71051e-20 0.00409117 65.6893
0.0234167 -2.71051e-20 0.00409119 36.3699
-0.023377 0 0.00479103 139.843
0.0233771 2.71051e-20 0.00479109 85.3726
-0.0238361 2.25875e-21 0.00114849 169.406
0.0238362 4.51751e-21 0.00114849 145.622
-0.0238811 0 -1.06983e-19 266.25
0.0238811 0 -1.07038e-19 249.232
-0.0231249 0 0.00611529 1320.43
0.0231251 -6.77626e-21 0.00611542 1314.79
-0.0238207 1.12938e-21 0.00236088 59.3149
0.0238207 2.25875e-21 0.00236089 29.5014
-0.0237499 -3.89635e-20 0.00306542 50.8384
0.02375 0 0.00306543 21.4022
-0.0231675 2.71051e-20 0.00613811 1302.25
0.0231678 -1.01644e-20 0.00613829 1296.47
-0.0239958 0 0.000113669 262.09
0.0239958 1.35525e-20 0.000113694 244.775
-0.0240047 0 8.61625e-21 262.045
0.0240047 0 8.53205e-21 244.728
-0.0232579 -4.51751e-21 0.00596069 1451.43
0.0232581 0 0.00596085 1446.06
-0.0233938 -2.71051e-20 0.00541135 387.322
0.023394 2.71051e-20 0.00541144 284.993
-0.0237524 -1.12938e-21 0.00364844 58.8095
0.0237525 -2.16464e-21 0.00364847 29.3332
-0.0237062 0 0.00443801 85.6128
0.0237062 1.12938e-21 0.00443804 50.2049
-0.0233932 1.35525e-20 0.00626089 1439.59
0.0233933 0 0.00626103 1434.1
-0.0236906 1.12938e-21 0.00510847 206.324
0.0236907 -1.12938e-21 0.00510853 145.845
-0.0235126 -2.03288e-20 0.00635102 1434.06
0.0235127 0 0.00635113 1428.7
-0.0235682 2.71051e-20 0.0062058 1462.18
0.0235683 -2.71051e-20 0.00620594 1456.82
-0.0240297 0 0.00408462 52.4311
0.0240297 2.71051e-20 0.00408465 26.9004
-0.0236813 0 0.00581872 956.828
0.0236814 3.76459e-22 0.0058188 916.958
-0.0240098 5.42101e-20 0.00476744 83.7786
0.0240099 0 0.00476747 51.7689
-0.0244726 0 0.000579721 255.782
0.0244727 5.42101e-20 0.00057972 238.082
-0.0244408 0 0.0017663 70.503
0.0244408 5.42101e-20 0.00176631 39.8339
-0.0236696 -3.38813e-21 0.00645563 1474.5
0.0236698 0 0.00645575 1469.18
-0.0237096 0 0.00644182 1487.84
0.0237098 -3.38813e-21 0.00644193 1482.53
-0.0237098 -3.38813e-21 0.00648356 1510.55
0.02371 0 0.00648366 1505.25
-0.0243888 0 0.00306489 49.1518
0.0243888 0 0.0030649 18.4929
-0.0239955 0 0.00544039 193.875
0.0239956 0 0.00544045 146.192
-0.0237499 -1.35525e-20 0.00643519 1455.67
0.0237501 0 0.0064353 1446.47
-0.0237499 3.38813e-21 0.0064761 1521.69
0.0237501 0 0.0064762 1516.41
-0.0237499 0 0.006513 1545.85
0.0237501 0 0.00651309 1540.6
-0.0243624 4.51751e-22 0.00373226 50.4464
0.0243624 -1.12938e-22 0.00373228 22.9023
-0.0239087 9.03502e-21 0.00623548 1327.6
0.0239088 9.03502e-21 0.00623556 1311.5
-0.0243381 -3.38813e-21 0.00441605 61.1436
0.0243382 2.25875e-21 0.00441607 33.5293
-0.0239122 2.71051e-20 0.00663214 1676.89
0.0239123 2.71051e-20 0.00663222 1671.85
-0.0243154 4.51751e-21 0.00509819 112.609
0.0243154 -2.25875e-21 0.00509822 77.7694
-0.0240421 1.35525e-20 0.00655998 1672.15
0.0240423 -1.35525e-20 0.00656006 1667.09
-0.0240313 -1.35525e-20 0.00671945 1750.95
0.0240314 -1.35525e-20 0.00671952 1745.94
-0.0242743 9.03502e-21 0.00580724 493.298
0.0242743 -6.77626e-21 0.00580731 445.049
0.025 -1.35525e-20 -7.24116e-20 237.137
-0.025 0 -7.24266e-20 254.739
0.025 -1.35525e-20 8.97242e-05 237.121
-0.025 -1.35525e-20 8.97024e-05 254.723
-0.0246754 2.71051e-20 0.00405937 48.6962
0.0246754 -2.71051e-20 0.00405938 21.4072
-0.0241475 0 0.00680428 1840.4
0.0241476 1.35525e-20 0.00680434 1835.38
-0.0246399 0 0.0047433 59.7301
0.02464 0 0.00474333 34.1236
-0.0250975 0 1.27835e-20 255.005
0.0250975 1.35525e-20 1.27788e-20 237.425
-0.0250714 -2.25875e-21 0.00116098 164.01
0.0250714 -2.25875e-21 0.00116098 139.555
-0.0241989 0 0.00668135 1793.34
0.024199 0 0.00668141 1788.29
-0.0250417 0 0.00239863 60.6271
0.0250417 -2.25875e-21 0.00239864 28.7709
-0.0243357 -1.6134e-21 0.00637844 1197.78
0.0243358 -4.84019e-22 0.0063785 1161.44
-0.0251867 0 8.69151e-05 254.268
0.0251867 0 8.69364e-05 236.622
-0.0251905 -1.35525e-20 7.60347e-21 254.267
0.0251905 -1.35525e-20 7.60173e-21 236.62
-0.0246259 -2.71051e-20 0.00542264 109.306
0.024626 -2.71051e-20 0.00542268 75.7592
-0.0250391 0 0.00359808 48.9252
0.0250391 -2.25875e-21 0.00359809 18.8535
-0.0243359 1.69407e-21 0.00694205 2012.21
0.024336 -1.69407e-21 0.00694207 2006.86
-0.0243561 0 0.00693961 2020.53
0.0243561 1.69407e-21 0.00693962 2015.17
-0.0243565 0 0.00695709 2024.26
0.0243566 1.69407e-21 0.00695714 2018.86
-0.0243749 0 0.00693981 1997.52
0.024375 0 0.00693983 1990.18
-0.0249674 1.12938e-21 0.00436302 52.2015
0.0249674 -1.41172e-21 0.00436303 24.9029
-0.0243749 0 0.00695741 2042.2
0.024375 0 0.00695746 2036.79
-0.0243749 0 0.00697053 2051.67
0.024375 0 0.0069706 2046.23
-0.0246323 2.71051e-20 0.00606017 305.24
0.0246324 2.71051e-20 0.00606021 228.4
-0.024542 9.03502e-21 0.00675076 1803.92
0.024542 -1.20467e-20 0.0067508 1788.79
-0.0249887 -5.64689e-22 0.00503246 74.0099
0.0249887 0 0.00503248 46.685
-0.0249372 0 0.00573816 160.277
0.0249373 3.38813e-21 0.00573819 116.15
-0.0246074 0 0.0071402 2170.36
0.0246074 -1.35525e-20 0.00714023 2163.85
-0.0246893 0 0.00706723 2116.35
0.0246893 0 0.00706726 2109.92
-0.0256991 -5.42101e-20 0.000582778 253.146
0.0256991 0 0.000582772 235.597
-0.0249065 0 0.00639879 678.206
0.0249065 2.25875e-21 0.00639883 631.56
0.0253985 2.71051e-20 0.00415564 17.602
-0.0253985 0 0.00415564 48.0146
-0.0256787 5.42101e-20 0.0017773 71.8945
0.0256787 0 0.0017773 39.6237
-0.0247466 0 0.00724188 1715.74
0.0247466 2.71051e-20 0.0072419 1708.92
-0.0253985 0 0.00459139 51.2129
0.0253985 2.71051e-20 0.0045914 24.2492
-0.0252589 -2.71051e-20 0.00540213 69.0458
0.025259 0 0.00540216 46.1971