# omega  POINT_DATA 14923
# x  y  z  omega
1.35525e-20 -0.014142 8.4025e-08 1308.22
-1.35525e-20 0.014142 8.4025e-08 1307.84
0 -0.014142 0.000246012 1308.21
-6.77626e-21 0.014142 0.000246009 1307.84
-1.69407e-20 -0.014142 0.000413826 1411.23
6.77626e-21 0.014142 0.00041383 1410.86
-1.35525e-20 -0.014142 0.000659755 1713.22
-1.35525e-20 0.014142 0.000659755 1712.76
0 0.014142 0.000918785 2025.84
3.38813e-21 -0.014142 0.000918783 2026.35
1.35525e-20 0.014142 0.00109555 2188.53
3.38813e-21 -0.014142 0.00109556 2189.06
1.35525e-20 0.014142 0.00135458 2352.26
0 -0.014142 0.00135458 2352.77
0 0.014142 0.00162762 2522.34
-6.77626e-21 -0.014142 0.00162761 2522.8
0 -0.014253 0.00012398 1308.22
0 0.014253 0.000123977 1307.85
0 -0.0142541 8.84505e-08 1308.22
-1.35525e-20 0.0142541 8.84502e-08 1307.85
-3.38813e-21 0.014142 0.00181395 2350.36
-6.77626e-21 -0.014142 0.00181396 2350.87
0 -0.014253 0.000533539 1559.66
0 0.014253 0.000533544 1559.25
0 0.0142487 0.00077903 1876.28
0 -0.0142487 0.000779034 1876.77
-1.35525e-20 0.014142 0.002087 1663.56
1.35525e-20 -0.014142 0.002087 1664.29
-1.35525e-20 0.0142487 0.00120328 2266.75
1.35525e-20 -0.0142487 0.00120328 2267.27
0 0.014243 0.00144974 2444.83
1.35525e-20 -0.014243 0.00144974 2445.3
0 0.014243 0.00188498 2043.1
1.35525e-20 -0.014243 0.00188498 2043.72
-2.71051e-20 -0.014375 9.00163e-08 1196.66
1.35525e-20 0.014375 9.00164e-08 1196.15
1.35525e-20 0.014375 0.0006466 1395.98
-2.71051e-20 -0.014375 0.0006466 1414.35
-6.77626e-21 0.0142627 0.00213224 1411.93
-6.77626e-21 -0.0142627 0.00213225 1412.77
0 0.0142992 0.00204049 1500.35
1.35525e-20 -0.0142992 0.00204049 1501.15
0 0.014391 0.00158911 2580.38
0 -0.014391 0.00158911 2580.84
-6.77626e-21 -0.014375 0.00187841 1483.37
0 0.014375 0.0018784 1458.87
0 0.0144892 0.000865926 1852.65
5.42101e-21 -0.0144892 0.000865928 1863.1
0 0.0144694 0.00125569 1717.12
-4.51751e-21 -0.0144694 0.0012557 1750.13
1.35525e-20 0.014375 0.00217431 1492.18
2.71051e-20 -0.014375 0.00217431 1493.01
-2.25875e-21 -0.0145461 0.000325602 1194.56
-2.25875e-21 0.0145461 0.000325595 1189.3
2.71051e-20 -0.0145532 9.53759e-08 1190.42
1.35525e-20 0.0145533 9.53758e-08 1189.9
2.71051e-20 0.0145143 0.00222654 1172.32
0 -0.0145144 0.00222654 1173.12
-1.93608e-21 0.0146051 0.00164978 1490.06
1.35525e-20 -0.0146051 0.00164978 1525.63
-2.82344e-22 -0.014583 0.00195698 1184.26
-1.41172e-22 0.0145828 0.00195868 1183.06
0 -0.0147323 1.05322e-07 1038.67
0 0.0147324 1.05321e-07 1037.9
-2.25875e-21 0.014715 0.000923757 975.415
-4.51751e-21 -0.014715 0.000923762 982.875
-2.71051e-20 0.0145865 0.0022536 1313.5
0 -0.0145866 0.00225361 1314.35
-2.25875e-21 0.0146936 0.00145601 1079.08
2.25875e-21 -0.0146936 0.00145601 1075.4
1.35525e-20 -0.0148202 0.000134139 951.9
1.35525e-20 0.0148203 0.000134125 951.057
-1.35525e-20 -0.0148273 9.52379e-08 955.762
0 0.0148274 9.52384e-08 954.919
-1.35525e-20 -0.0148725 9.04366e-08 997.735
1.35525e-20 0.0148726 9.04378e-08 996.787
6.45358e-21 -0.01487 0.000655521 840.599
3.22679e-21 0.01487 0.000655519 807.871
1.00389e-21 0.014845 0.00120712 774.202
-7.27821e-21 -0.014845 0.00120713 821.028
0 0.0147312 0.00230781 1010.5
0 -0.0147313 0.00230783 1011.38
3.01167e-21 0.0148274 0.00162659 827.278
-6.02335e-21 -0.0148274 0.0016266 867.646
1.35525e-20 -0.015 7.90261e-08 954.854
-1.35525e-20 0.015 7.90279e-08 953.715
-1.35525e-20 -0.015 0.000133974 951.591
-2.71051e-20 0.015 0.000133967 950.441
-3.76459e-22 0.0149713 0.00204049 914.603
1.50584e-21 -0.0149714 0.0020405 917.141
-3.38813e-21 -0.015 0.00225359 1060.88
-1.69407e-21 0.015 0.0022537 1060.08
-3.38813e-21 -0.015 0.00240853 1153.62
3.38813e-21 0.015 0.00240854 1152.79
2.37169e-20 0.0150362 0.00242211 1186.93
0 -0.0150362 0.00242211 1187.78
1.35525e-20 -0.0152271 0.000388227 768.516
1.35525e-20 0.0152271 0.000388232 761.54
-4.51751e-21 0.0152249 0.000912209 309.691
9.03502e-21 -0.0152249 0.000912211 334.423
4.51751e-21 0.0151957 0.00150814 315.639
0 -0.0151957 0.00150814 339.443
-3.38813e-21 0.015119 0.00245307 1235.82
3.38813e-21 -0.015119 0.0024531 1236.7
0 0.0153316 0.000145214 836.64
1.35525e-20 -0.0153316 0.000145203 838.132
1.35525e-20 0.0153419 1.97572e-08 836.656
0 -0.015342 1.97541e-08 838.145
0 -0.0154304 0.000610593 567.428
2.71051e-20 0.0154304 0.000610592 547.297
2.71051e-20 -0.0154185 0.00121382 320.341
2.71051e-20 0.0154185 0.00121382 290.778
1.35525e-20 0.0154797 7.97399e-09 838.847
0 -0.0154798 7.9711e-09 840.472
-1.35525e-20 0.0152769 0.00251208 1354.67
0 -0.0152769 0.0025121 1355.5
-5.42101e-20 0.0153758 0.00187005 638.463
-2.71051e-20 -0.0153758 0.00187006 667.714
-6.77626e-21 0.0153108 0.00239814 1310.55
0 -0.0153108 0.00239814 1311.38
-4.51751e-21 -0.0153783 0.00228563 1305.79
-1.12938e-21 0.0153783 0.00228563 1304.01
-1.35525e-20 0.015625 7.21206e-09 836.954
0 -0.015625 7.20961e-09 838.796
0 -0.015625 0.000148496 838.808
-1.35525e-20 0.015625 0.0001485 836.948
-1.35525e-20 -0.0154657 0.00258282 1627.86
0 0.0154657 0.00258282 1627.02
4.51751e-21 0.0157806 0.00040103 728.697
4.51751e-21 -0.0157806 0.000401034 737.086
2.25875e-21 -0.0157685 0.000915143 275.544
0 0.0157685 0.000915143 245.04
1.12938e-20 -0.0157412 0.00155218 256.383
-2.25875e-21 0.0157412 0.00155219 219.101
0 -0.0156535 0.0023135 1317.66
-8.47033e-22 0.0156535 0.00231351 1295.22
1.35525e-20 0.0156249 0.00255355 1880.99
1.35525e-20 -0.0156249 0.00255354 1881.8
6.77626e-21 0.0156249 0.0026425 1991.04
-6.77626e-21 -0.0156249 0.00264251 1991.85
-1.35525e-20 -0.0157486 0.00207232 602.278
0 0.0157486 0.00207233 539.198
1.35525e-20 0.01594 0.000153358 840.707
1.35525e-20 -0.01594 0.000153357 843.04
0 0.0159518 6.42218e-09 840.854
-2.71051e-20 -0.0159518 6.42129e-09 843.186
2.71051e-20 -0.0157578 0.00269219 2155.67
2.71051e-20 0.0157578 0.00269219 2154.9
-1.35525e-20 -0.0157996 0.0025293 2007.76
1.35525e-20 0.0157996 0.00252931 2006.97
-1.35525e-20 -0.0161003 5.64387e-09 852.465
1.35525e-20 0.0161003 5.64434e-09 849.983
0 -0.0160445 0.00191468 450.727
0 0.0160445 0.0019147 413.602
0 -0.0159573 0.00276704 1627.77
0 0.0159573 0.00276704 1626.58
1.16165e-20 0.0161556 0.00116841 147.464
-1.54886e-20 -0.0161556 0.00116841 180.368
-9.03502e-21 -0.0161993 0.000607818 525.474
-4.51751e-21 0.0161993 0.000607817 508.186
-2.25875e-21 -0.0160484 0.0023249 1148.46
-4.51751e-21 0.0160484 0.00232494 1118.05
1.35525e-20 -0.01625 4.91522e-09 859.164
2.71051e-20 0.01625 4.91559e-09 856.498
1.35525e-20 -0.01625 0.000141091 859.089
0 0.01625 0.000141095 856.425
-9.03502e-21 -0.0162996 0.00156705 204.976
4.51751e-21 0.0162996 0.00156705 172.119
-2.71051e-20 0.0164196 0.000304857 861.008
0 -0.0164196 0.000304857 863.883
0 0.0164158 0.000921443 146.477
0 -0.0164158 0.000921442 178.452
-1.89735e-20 -0.0163183 0.00211157 365.125
2.71051e-21 0.0163183 0.00211158 326.703
-1.35525e-20 0.0162498 0.00287804 1490.72
2.37169e-20 -0.0162499 0.00287808 1492.22
6.77626e-21 -0.016295 0.00289505 1479.33
-1.01644e-20 0.0162953 0.00289514 1477.69
1.12938e-20 -0.0163566 0.00265265 1444.47
-4.51751e-21 0.0163567 0.00265268 1438.89
-1.35525e-20 0.0165943 2.17699e-09 868.435
1.35525e-20 -0.0165943 2.17678e-09 871.47
1.35525e-20 0.0165961 0.000135303 868.427
0 -0.0165961 0.000135298 871.462
1.35525e-20 -0.0167375 1.46118e-09 877.339
-1.35525e-20 0.0167375 1.4613e-09 874.216
9.03502e-21 0.0167397 0.000605527 512.975
2.25875e-21 -0.0167397 0.000605529 529.248
0 -0.0167333 0.00124398 147.097
-6.77626e-21 0.0167333 0.00124398 116.558
2.25875e-21 -0.0167335 0.00188821 191.871
6.77626e-21 0.0167335 0.00188822 157.078
2.71051e-20 -0.0165883 0.00300631 1351.99
2.71051e-20 0.0165884 0.00300634 1350.33
0 -0.016875 1.28939e-09 881.268
0 0.016875 1.28948e-09 878.013
0 -0.016875 0.000125695 881.1
-1.35525e-20 0.016875 0.000125698 877.849
-4.51751e-21 -0.0167209 0.00239031 666.783
-9.03502e-21 0.016721 0.00239038 642.645
-2.71051e-20 0.017064 0.000300536 885.824
0 -0.017064 0.000300536 889.246
-6.77626e-21 -0.0168116 0.00309149 927.206
6.77626e-21 0.0168118 0.00309158 924.772
0 0.0170693 0.000918164 143.912
2.71051e-20 -0.0170693 0.000918164 171.065
0 0.0170657 0.00156933 75.8108
-5.42101e-20 -0.0170657 0.00156932 105.296
0 0.0168748 0.00300443 900.479
3.38813e-21 -0.016875 0.0030038 902.755
6.77626e-21 0.0168748 0.00311544 946.574
3.38813e-21 -0.0168751 0.00311552 949.116
2.25875e-21 -0.0169659 0.00280947 939.817
-4.51751e-21 0.016966 0.00280951 934.157
2.71051e-20 -0.0170634 0.00223057 201.126
0 0.0170635 0.00223059 175.217
-1.35525e-20 0.0172527 5.17858e-10 896.921
0 -0.0172527 5.17805e-10 900.47
0 0.0172566 0.000116566 896.965
1.35525e-20 -0.0172566 0.000116563 900.514
0 -0.0173799 3.52927e-10 913.842
1.35525e-20 0.0173799 3.52962e-10 910.264
0 -0.0170862 0.00319594 1131.72
2.71051e-20 0.0170864 0.00319602 1129.67
-2.25875e-21 0.0173907 0.00059721 531.04
0 -0.0173907 0.000597212 548.795
0 0.0173953 0.00123436 108.125
0 -0.0173953 0.00123436 138.851
-4.51751e-21 -0.0173902 0.00191068 141.193
6.77626e-21 0.0173903 0.00191069 108.906
-1.35525e-20 -0.0175 3.17172e-10 920.226
0 0.0175 3.17202e-10 916.573
0 -0.0175 0.000105685 919.918
0 0.0175 0.000105687 916.267
1.35525e-20 -0.0172465 0.00325641 1206.43
2.03288e-20 0.0172466 0.00325643 1204.23
0 -0.0172976 0.00309008 1192.95
-1.35525e-20 0.0172976 0.00309027 1190.79
3.76158e-37 -0.017428 0.00267359 695.975
2.25875e-21 0.017428 0.00267359 662.853
0 -0.0177101 0.000293755 931.374
0 0.0177101 0.000293755 927.593
0 0.0177219 0.000903839 147.44
2.71051e-20 -0.0177219 0.000903839 184.846
1.69407e-21 -0.0174509 0.00333352 1437.25
1.69407e-21 0.0174516 0.00333379 1436.09
0 -0.0174774 0.00332287 1459.25
1.69407e-21 0.0174776 0.00332332 1457.7
0 0.0177246 0.00155835 64.0327
2.71051e-20 -0.0177246 0.00155834 92.8124
0 -0.0174819 0.00334524 1479.28
0 0.0174821 0.0033453 1477.42
0 0.0174998 0.00332151 1453.88
0 -0.0174999 0.00332104 1458.07
0 0.0174997 0.00334181 1502.72
1.69407e-21 -0.0174999 0.00334168 1505.01
0 0.0174997 0.00335193 1515.06
0 -0.0174999 0.00335198 1517.57
0 -0.0177108 0.00226099 158.435
2.71051e-20 0.0177108 0.00226103 113.541
4.51751e-21 -0.0176353 0.00307333 1237.53
-1.807e-20 0.0176354 0.00307341 1220.08
0 -0.0176459 0.00307764 1236.72
-2.71051e-20 0.0176459 0.00307771 1217.71
0 0.0179213 8.77536e-11 951.601
1.35525e-20 -0.0179213 8.77438e-11 955.409
0 0.0179252 9.30173e-05 951.66
2.71051e-20 -0.0179252 9.30153e-05 955.468
0 -0.0180268 5.44536e-11 977.104
0 0.0180268 5.44591e-11 973.336
2.25875e-21 0.0180409 0.00058155 564.446
1.12938e-20 -0.0180409 0.000581551 583.152
-2.25875e-21 -0.0180512 0.00121327 139.882
-3.38813e-21 0.0180512 0.00121327 106.763
-2.71051e-20 -0.0177836 0.00345876 1831.41
-1.35525e-20 0.0177837 0.00345884 1829.46
0 -0.0181253 4.99506e-11 984.207
0 0.0181253 4.99554e-11 980.427
1.35525e-20 -0.0181254 8.3647e-05 983.94
0 0.0181254 8.3649e-05 980.16
-1.12938e-21 -0.018044 0.00190351 117.51
-3.38813e-21 0.018044 0.00190353 78.0287
-2.71051e-20 -0.0178455 0.00338256 1778.65
0 0.0178456 0.00338271 1776.75
9.03502e-21 -0.0180105 0.00263587 437.27
2.25875e-21 0.0180106 0.00263595 378.457
0 -0.0179191 0.00350977 1551.93
0 0.0179192 0.00350979 1550.21
1.35525e-21 -0.0180589 0.00311996 1133.79
-1.35525e-21 0.018059 0.00312002 1095.08
-5.42101e-20 -0.0183552 0.000282486 1007.96
-5.42101e-20 0.0183552 0.000282486 1004.15
2.71051e-20 0.0183704 0.000877818 156.55
0 -0.0183704 0.000877817 187.124
2.71051e-20 -0.0183759 0.00153184 93.5676
-2.71051e-20 0.018376 0.00153185 57.9047
1.35525e-20 0.0181249 0.00358718 1309.16
0 -0.018125 0.00358724 1310.55
0 -0.0183601 0.00224052 123.692
0 0.0183602 0.00224054 74.5025
1.35525e-20 -0.0182298 0.00362666 1316.81
6.77626e-21 0.0182303 0.00362685 1315.52
0 0.0185903 1.14547e-11 1049.02
-6.77626e-21 -0.0185903 1.14538e-11 1052.8
-1.35525e-20 0.0185922 7.01833e-05 1049.06
-1.35525e-20 -0.0185922 7.01798e-05 1052.84
-9.03502e-21 -0.0182769 0.00344764 1417.24
1.807e-20 0.018277 0.00344781 1415.84
2.71051e-20 -0.0183886 0.0028814 344.29
0 0.0183886 0.00288148 254.298
0 -0.0186731 7.47945e-12 1082.23
0 0.0186731 7.4798e-12 1078.48
0 -0.0186856 0.000557203 645.87
-1.12938e-21 0.0186856 0.000557203 622.594
-1.12938e-21 -0.0187004 0.00117602 151.106
1.12938e-21 0.0187004 0.00117602 111.672
0 -0.01875 6.97661e-12 1088.97
-2.03288e-20 0.01875 6.97695e-12 1085.23
0 -0.01875 6.37723e-05 1088.92
1.35525e-20 0.01875 6.37728e-05 1085.18
2.25875e-21 -0.018696 0.00186471 101.849
2.25875e-21 0.018696 0.00186473 60.1278
-1.35525e-20 -0.0184505 0.00370969 1539.02
2.71051e-20 0.0184507 0.00370979 1537.62
3.38813e-21 -0.018692 0.00255887 200.532
2.25875e-21 0.018692 0.00255892 134.587
-4.06576e-20 -0.0185631 0.00375372 1590.01
0 0.0185633 0.00375376 1588.69
0 -0.018598 0.00364592 1587.41
1.35525e-20 0.018598 0.00364612 1586.06
-3.76459e-22 -0.0187012 0.00326209 997.441
1.12938e-21 0.0187012 0.00326214 951.983
0 -0.0189931 0.000266634 1132.5
0 0.0189931 0.000266631 1128.79
2.71051e-20 -0.0190119 0.00083882 229.963
0 0.0190119 0.000838822 174.515
0 -0.0190241 0.00148402 92.0612
0 0.0190241 0.00148403 55.8668
-6.77626e-21 0.0187498 0.00382104 1823.96
-1.35525e-20 -0.0187499 0.00382109 1825.68
-2.71051e-20 -0.0190146 0.00218766 98.1446
5.42101e-20 0.0190147 0.00218769 52.2558
-6.77626e-21 -0.0188253 0.00385016 1821.81
0 0.0188256 0.00385027 1820.07
0 -0.0190104 0.00288303 221.755
2.71051e-20 0.0190105 0.00288309 146.016
-6.77626e-21 -0.018869 0.00377278 1783.17
0 0.0188695 0.00377247 1781.22
6.77626e-21 0.0192614 9.27756e-13 1249.45
0 -0.0192614 9.27688e-13 1252.93
0 0.0192616 4.56754e-05 1249.48
0 -0.0192616 4.56687e-05 1252.96
0 -0.0189593 0.0036316 1593.35
7.52918e-21 0.0189594 0.00363172 1580.92
1.35525e-20 -0.0189216 0.00388925 1893.21
6.77626e-21 -0.0193175 5.50573e-13 1293.22
0 0.0193175 5.5057e-13 1289.78
-6.77626e-21 0.0189225 0.00388962 1891.84
0 -0.019323 0.000517724 770.925
0 0.019323 0.000517724 747.035
0 -0.0193664 3.8562e-05 1311.36
-6.77626e-21 0.0193665 3.85723e-05 1307.98
6.77626e-21 -0.0193681 5.31764e-13 1309.01
6.77626e-21 0.0193682 5.31754e-13 1305.64
2.03288e-21 0.0193603 0.00110958 129.365
-9.03502e-22 -0.0193603 0.00110958 173.001
5.64689e-22 -0.0193496 0.00179959 94.5061
1.69407e-21 0.0193497 0.0017996 52.0293
1.12938e-21 -0.0193331 0.00252243 139.997
-2.25875e-21 0.0193332 0.00252246 80.8794
2.71051e-20 -0.0191251 0.00398458 2159.43
0 0.0191255 0.00398476 2157.34
2.71051e-20 -0.0191698 0.00393531 2112.01
0 0.01917 0.00393559 2110.05
-4.51751e-21 -0.0192999 0.00324536 612.751
-2.25875e-21 0.0193 0.00324549 541.663
-2.71051e-20 -0.0196204 0.00023725 1431.93
-2.71051e-20 0.0196204 0.000237252 1428.79
0 -0.0192179 0.00403218 1850.81
0 0.019218 0.00403225 1849.35
0 -0.0196557 0.000771332 245.908
2.71051e-20 0.0196557 0.000771331 211.267
-3.38813e-21 -0.019699 2.94695e-13 1189.39
-3.38813e-21 0.0196992 2.94512e-13 1185.47
-4.51751e-22 -0.019364 0.0036912 1389.17
4.51751e-22 0.0193642 0.00369132 1346.21
0 -0.0196876 0.00139268 107.903
0 0.0196876 0.00139268 59.7182
-2.71051e-20 -0.0196587 0.00213403 81.4294
0 0.0196588 0.00213406 40.9402
1.35525e-20 0.0193748 0.00398188 1667.02
-1.35525e-20 -0.0193751 0.00398171 1668.19
1.35525e-20 0.0193748 0.00411568 1547.29
-6.77626e-21 -0.0193751 0.00411583 1548.17
-5.42101e-20 -0.0196509 0.00284941 155.554
2.71051e-20 0.0196509 0.00284946 82.0184
9.03502e-22 0.0199546 0.000463669 775.714
2.25875e-21 -0.0199546 0.00046367 796.699
2.71051e-20 -0.0196743 0.00348115 418.486
2.71051e-20 0.0196743 0.00348125 310.47
0 -0.0195407 0.00420391 1475.89
-6.77626e-21 0.0195414 0.00420428 1474.55
0 -0.0199999 3.09655e-13 1140.38
6.77626e-21 -0.0199999 2.958e-05 1139.41
-6.77626e-21 0.02 3.09366e-13 1136.22
0 0.02 2.95532e-05 1135.25
6.77626e-21 -0.02 0.000220921 977.414
3.38813e-21 0.02 0.00022081 964.536
0 -0.0200415 5.23094e-14 1128.49
0 0.0200415 5.22561e-14 1124.26
1.35525e-20 -0.0196489 0.00406133 1644.32
1.0842e-20 0.0196492 0.00406167 1642.96
0 0.0200712 2.48757e-05 1159.61
0 -0.0200712 2.48981e-05 1163.85
0 0.0200746 3.09587e-14 1162.46
0 -0.0200747 3.09943e-14 1166.7
0 0.0199955 0.0017906 50.9213
-4.23516e-22 -0.0199954 0.00179105 93.9638
9.03502e-21 0.0200905 0.000960733 232.834
-4.51751e-21 -0.0200905 0.000960726 274.695
4.84019e-22 -0.0200182 0.00244878 116.519
-8.06698e-22 0.0200183 0.00244888 59.8537
-1.35525e-20 -0.0197164 0.0042974 1632.64
-2.71051e-20 0.0197167 0.00429758 1631.06
0 0.020182 1.06922e-14 1136.32
0 -0.0201821 1.07019e-14 1141.01
-5.64689e-22 -0.019968 0.00317457 241.173
1.12938e-21 0.019968 0.00317464 157.003
1.35525e-20 -0.0198178 0.00435143 1642.86
-1.35525e-20 0.0198179 0.00435149 1641.28
-1.35525e-20 -0.0198553 0.00424439 1660.56
0 0.0198553 0.00424466 1658.91
7.52918e-22 -0.0199716 0.00386195 1098
3.76459e-22 0.0199717 0.00386203 1045.84
2.25875e-21 -0.0204272 0.00031081 754.344
-2.25875e-21 0.0204272 0.000310799 743.539
2.71051e-20 -0.0204209 0.00146754 92.6581
-2.71051e-20 0.0204209 0.00146753 55.0333
-2.71051e-20 -0.0202842 0.00282336 119.685
0 0.0202843 0.00282341 54.8134
6.77626e-21 0.0199999 0.00444852 1797.05
6.77626e-21 -0.0200001 0.00444866 1798.93
-2.71051e-20 -0.0204145 0.00196506 80.1881
0 0.0204145 0.00196508 39.3138
1.35525e-20 0.020525 4.12258e-15 914.84
2.71051e-20 -0.0205251 4.1176e-15 920.889
6.77626e-21 -0.0200603 0.00448072 1772.27
0 0.0200605 0.00448086 1770.18
2.71051e-20 -0.0202766 0.00350283 251.755
0 0.0202767 0.00350292 164.289
3.38813e-21 -0.0201017 0.00441369 1743.78
3.38813e-21 0.0201022 0.00441328 1741.47
-6.77626e-21 -0.0201267 0.00451611 1812.24
6.77626e-21 0.0201275 0.00451657 1810.48
3.01167e-21 -0.0202112 0.00425305 1567.95
-4.51751e-21 0.0202113 0.00425322 1553.99
1.6134e-22 -0.0206625 0.000857339 381.839
7.26028e-22 0.0206626 0.00085731 328.59
-1.35525e-20 0.0206911 7.74573e-16 957.214
0 -0.0206911 7.64323e-16 964.69
-1.35525e-20 -0.0206295 0.00169559 87.6492
-1.35525e-20 0.0206296 0.00169559 48.6833
1.41172e-21 -0.0206304 0.00244038 93.4016
-4.23516e-22 0.0206304 0.0024404 42.3335
0 -0.0205956 0.00315757 159.455
0 0.0205957 0.00315762 87.7046
0 -0.0203415 0.00463057 2040.47
-1.35525e-20 0.0203419 0.00463079 2038.18
0 -0.0208473 0.00142111 97.8784
0 0.0208474 0.00142109 62.4809
2.71051e-20 -0.0203946 0.00457335 1994.66
2.71051e-20 0.0203949 0.0045737 1992.48
2.25875e-21 -0.0205528 0.00387349 637.113
0 0.0205529 0.00387366 555.45
0 -0.0208263 0.00194408 77.3369
0 0.0208263 0.0019441 36.1681
6.77626e-21 0.020952 1.83096e-16 696.657
0 -0.0209522 1.78175e-16 707.049
0 -0.0209679 0.000111585 674.48
-8.47033e-22 0.020968 0.000112714 663.438
-2.71051e-20 -0.0204458 0.00468612 1746.53
0 -0.0209761 3.89075e-17 690.222
0 0.020446 0.00468621 1744.73
-6.77626e-21 0.0209762 4.11732e-17 679.493
-1.12938e-21 0.020982 0.000349479 640.828
-5.64689e-22 -0.0209821 0.000349501 652.911
-3.38813e-22 -0.0206056 0.00432302 1325.85
6.77626e-22 0.0206057 0.00432315 1275.71
-2.71051e-20 -0.020934 0.00277551 89.0103
0 0.020934 0.00277555 38.0932
1.35525e-20 0.0206249 0.00478151 1418.44
0 -0.0206251 0.00478166 1419.85
0 -0.0208973 0.00349615 172.477
0 0.0208974 0.00349623 89.5956
-2.71051e-20 -0.02125 -2.7536e-16 736.51
0 0.02125 -2.77493e-16 726.786
-3.38813e-20 -0.0207393 0.0048425 1371.17
2.71051e-20 0.0207401 0.00484287 1369.23
4.51751e-21 -0.020785 0.00466278 1535.76
9.03502e-21 0.0207851 0.00466305 1534
-5.42101e-20 -0.020919 0.0041165 429.967
0 0.0209191 0.00411663 301.106
-2.82344e-22 0.0212543 0.00168707 47.2667
-2.82344e-22 -0.0212543 0.00168707 85.0147
3.01167e-21 -0.0213188 0.000900049 347.018
-1.50584e-21 0.0213188 0.000900019 305.422
-1.35525e-20 -0.0213463 0.000122192 572.015
1.35525e-20 0.0213464 0.000122392 561.771
0 -0.021355 -2.3845e-18 574.309
0 0.0213552 -1.52921e-18 564.131
-4.51751e-21 -0.0212895 0.00229431 78.8416
-3.38813e-21 0.0212895 0.00229433 36.1403
-2.71051e-20 -0.0214256 -2.50478e-16 543.02
-1.35525e-20 0.0214259 -2.50917e-16 532.355
6.77626e-22 -0.0212264 0.00310846 109.805
2.25875e-22 0.0212264 0.00310856 52.4781
0 -0.0209342 0.00494631 1544.97
-1.35525e-20 0.0209345 0.00494647 1542.82
-1.12938e-21 -0.0212107 0.00381738 250.149
0 0.0212107 0.00381746 155.29
-2.71051e-20 -0.0215712 0.000127436 471.923
-1.35525e-20 0.0215719 0.000127681 459.804
4.06576e-20 -0.0216067 1.47634e-16 466.809
-1.35525e-20 0.0216074 1.47373e-16 454.654
2.71051e-20 -0.0210473 0.00500657 1565.75
1.35525e-20 0.0210475 0.00500662 1563.7
-1.35525e-20 -0.0210904 0.00488681 1579.94
-4.06576e-20 0.0210904 0.00488706 1577.83
-7.52918e-22 -0.0212076 0.00450575 1046.17
-4.89397e-21 0.0212077 0.00450582 984.192
0 -0.0215471 0.00276786 69.9653
0 0.0215471 0.00276788 31.0933
0 -0.0215274 0.00347141 115.092
-5.42101e-20 0.0215275 0.00347146 54.8119
0 0.0212499 0.0051145 1745.51
-1.69407e-20 -0.0212502 0.00511463 1748.15
3.38813e-21 -0.0212808 0.00513096 1738.27
0 0.0212811 0.00513109 1735.46
0 -0.0213032 0.0050955 1722.9
0 0.0213038 0.00509507 1719.85
-2.71051e-20 -0.0215161 0.00414688 262.113
2.71051e-20 0.0215162 0.00414698 158.98
-3.38813e-21 -0.0213149 0.00514909 1759.17
0 0.0213156 0.0051495 1756.64
-5.42101e-20 -0.0219062 0.00171817 76.6173
5.42101e-20 0.0219062 0.00171817 40.6398
4.51751e-21 -0.0214404 0.00489776 1517.09
9.03502e-21 0.0214406 0.00489792 1497.97
2.11758e-22 -0.0218828 0.00243276 68.0538
2.82344e-22 0.0218828 0.00243286 31.7743
5.42101e-20 -0.0220249 0.000514809 318.796
-5.42101e-20 0.022025 0.000514815 303.787
0 -0.0218548 0.00311112 79.6435
0 0.0218549 0.00311114 37.3356
-1.12938e-21 -0.0218321 0.00380922 154.072
-4.51751e-21 0.0218321 0.00380928 84.8416
0 -0.0215576 0.00527841 2017.26
0 0.021558 0.0052786 2013.93
1.35525e-20 -0.021618 0.00521401 1965.78
0 0.0216183 0.00521431 1962.56
-6.77626e-21 -0.0217926 0.00451289 608.89
6.77626e-21 0.0217927 0.00451304 519.656
2.71051e-20 -0.0216749 0.00534089 1697.98
-2.71051e-20 0.021675 0.00534096 1694.9
5.42101e-20 -0.0221928 0.00274702 58.4824
-2.71051e-20 0.0221928 0.00274703 25.9548
-1.807e-21 -0.0218358 0.00496905 1291.94
-4.51751e-22 0.021836 0.00496915 1235.59
-2.71051e-20 -0.0221555 0.00344893 75.2902
-2.71051e-20 0.0221556 0.00344897 37.5556
1.35525e-20 0.0225001 1.83963e-16 290.722
1.35525e-20 -0.0225001 1.84296e-16 306.919
0 0.0225001 0.000132879 289.29
0 -0.0225001 0.000132845 305.631
0 -0.0221425 0.00413741 158.731
2.71051e-20 0.0221425 0.00413747 84.3066
6.77626e-21 0.0218749 0.00544743 1349.35
-1.35525e-20 -0.0218752 0.00544758 1352.52
0 -0.0225915 0.00111538 190.938
4.51751e-21 0.0225915 0.00111538 164.492
-3.38813e-21 -0.0219451 0.00548483 1325.97
1.01644e-20 0.0219457 0.00548514 1322.35
1.35525e-20 -0.0220189 0.00530689 1481.46
-4.51751e-21 0.0220189 0.00530711 1478.13
0 -0.0221557 0.00476095 429.289
0 0.0221557 0.00476106 290.711
0 -0.0226681 -7.52888e-18 323.964
2.71051e-20 0.0226682 -7.5783e-18 307.086
0 -0.0225575 0.00228412 64.3829
0 0.0225575 0.00228414 30.7504
-8.47033e-22 -0.0224843 0.00307681 63.5287
7.05861e-22 0.0224843 0.00307687 29.3521
8.47033e-22 0.0224595 0.00375139 54.7301
-2.5411e-21 -0.0224607 0.00375124 105.424
-2.11758e-21 0.0225 0.00363412 48.4813
1.69407e-21 -0.0225 0.00363668 95.444
4.23516e-22 0.0225048 0.00375038 52.5449
4.23516e-22 -0.022505 0.00374493 102.044
-2.5411e-21 -0.0225 0.00378659 109.927
3.38813e-21 0.0224999 0.00378768 58.3181
-2.71051e-20 -0.0228183 0.000138857 292.208
2.71051e-20 0.0228183 0.000138904 274.233
0 -0.0228295 -4.6137e-18 292.153
2.71051e-20 0.0228296 -4.63719e-18 274.166
-1.35525e-20 -0.0221583 0.00559842 1511.78
1.35525e-20 0.0221586 0.00559854 1508.05
-4.23516e-22 -0.0225489 0.00374905 99.7371
-1.69407e-21 0.0225501 0.00374913 51.2742
3.38813e-21 -0.0224518 0.00446282 238.658
-1.12938e-21 0.0224519 0.00446289 149.856
-2.71051e-20 -0.0222813 0.00566396 1534.87
2.71051e-20 0.0222814 0.00566399 1531.26
-2.71051e-20 -0.0223283 0.00553412 1548.76
-1.35525e-20 0.0223283 0.00553432 1545.12
7.52918e-22 -0.0224429 0.00515556 1020.55
-7.52918e-22 0.022443 0.00515562 958.086
0 0.0229083 0.00284902 22.1675
2.71051e-20 -0.0229083 0.00284902 53.6081
2.71051e-20 -0.0227694 0.00412844 100.869
0 0.0227694 0.00412849 54.1139
2.71051e-20 0.022907 0.00330621 27.1596
2.71051e-20 -0.022907 0.00330617 61.035
0 0.0225 0.00578038 1728.81
-8.47033e-22 -0.0225001 0.00578047 1733.24
0 -0.022509 0.0057852 1730.61
0 0.0225092 0.00578529 1726.07
1.69407e-21 -0.0225156 0.00577477 1726.07
8.47033e-22 0.0225161 0.00577445 1721.36
-8.47033e-22 -0.022519 0.00579052 1736.93
-5.42101e-20 -0.0231859 0.00175342 74.9196
0 0.0231859 0.00175343 39.2849
-8.47033e-22 0.0225196 0.00579082 1732.61
0 -0.0232456 0.000558696 276.473
5.42101e-20 0.0232457 0.000558712 256.896
-2.71051e-20 -0.0227558 0.00479301 242.951
0 0.0227558 0.00479309 153.913
5.64689e-22 -0.0231485 0.0024175 59.4728
1.69407e-21 0.0231485 0.00241753 27.2821
0 -0.0231146 0.00307523 55.0934
0 0.0231146 0.00307524 23.348
6.02335e-21 -0.0226734 0.00554801 1494.44
6.02335e-21 0.0226735 0.00554813 1471.56
1.50584e-21 -0.023097 0.00377997 73.5012
0 0.023097 0.00377998 37.2766
0 -0.0230771 0.00445736 139.244
-3.38813e-21 0.0230771 0.0044574 82.6329
-5.42101e-20 -0.0233412 0.00284261 50.7545
0 0.0233413 0.00284261 20.4596
0 -0.023307 0.0032965 53.9578
-2.71051e-20 0.0233071 0.00329653 22.3491
0 -0.0227839 0.00593188 2020.56
0 0.0227842 0.005932 2014.98
1.35525e-20 -0.0228491 0.00586247 1965.48
2.71051e-20 0.0228493 0.00586268 1960.03
-4.51751e-21 -0.0230321 0.00515831 575.715
-9.03502e-21 0.0230321 0.00515843 497.111
0 -0.0229107 0.00599969 1666.08
0 0.0229108 0.00599972 1660.73
1.35525e-21 -0.02307 0.00562156 1270.57
-4.06576e-21 0.0230702 0.00562164 1218.17
0 0.02375 -2.43186e-18 250.836
-1.35525e-20 -0.02375 -2.41206e-18 270.878
0 0.02375 0.000111014 250.661
-1.35525e-20 -0.02375 0.00011097 270.716
0 -0.0234167 0.0040912 65.0013
-2.71051e-20 0.0234167 0.00409123 34.8991
2.71051e-20 -0.0233771 0.00479107 142.117
2.71051e-20 0.0233771 0.00479113 83.3353
0 -0.0238362 0.0011485 173.078
2.25875e-21 0.0238362 0.00114851 145.162
1.35525e-20 -0.0238811 -9.75667e-20 269.29
1.35525e-20 0.0238811 -9.75139e-20 249.202
3.38813e-21 0.0231249 0.00611537 1314.88
-1.35525e-20 -0.0231251 0.00611547 1321.01
2.25875e-21 0.0238207 0.00236091 28.2829
7.90564e-21 -0.0238207 0.00236091 61.8634
0 0.02375 0.00306544 20.1683
0 -0.0237501 0.00306541 51.7942
-1.69407e-20 -0.0231675 0.00613814 1302.99
2.03288e-20 0.0231678 0.00613837 1296.49
0 -0.0239958 0.000113646 265.189
-1.35525e-20 0.0239958 0.000113675 244.745
0 -0.0240047 1.15459e-20 265.145
-1.35525e-20 0.0240047 1.15183e-20 244.698
-9.03502e-21 -0.023258 0.00596075 1452.08
-9.03502e-21 0.0232581 0.00596091 1445.99
-2.71051e-20 -0.0233938 0.00541142 396.447
2.71051e-20 0.0233939 0.00541149 283.277
-2.35287e-21 0.0237525 0.0036485 28.3241
4.70574e-22 -0.0237525 0.00364843 59.6262
1.12938e-21 -0.0237062 0.00443804 86.9205
0 0.0237062 0.00443807 48.8858
-1.35525e-20 -0.0233932 0.00626093 1440.48
-2.71051e-20 0.0233933 0.00626104 1434.09
1.12938e-21 -0.0236906 0.00510851 211.486
-4.51751e-21 0.0236906 0.00510857 144.12
-2.71051e-20 -0.0235127 0.00635105 1435.21
6.77626e-21 0.0235127 0.00635107 1428.69
1.35525e-20 -0.0235683 0.00620582 1463.25
-1.35525e-20 0.0235682 0.00620594 1456.77
2.71051e-20 -0.0240297 0.00408465 54.0933
0 0.0240297 0.00408467 26.5328
-2.25875e-21 -0.0236813 0.00581876 958.705
1.12938e-21 0.0236814 0.0058188 910.765
-2.71051e-20 -0.0240098 0.00476747 85.6673
5.42101e-20 0.0240099 0.0047675 50.2948
0 -0.0244727 0.000579723 259.002
0 0.0244727 0.000579722 238.05
0 -0.0244408 0.00176632 74.8282
5.42101e-20 0.0244408 0.00176633 38.7443
0 -0.0236698 0.00645559 1475.67
-3.38813e-21 0.0236701 0.00645581 1469.4
3.38813e-21 -0.0237098 0.00644176 1489.02
0 0.0237098 0.00644204 1482.72
0 -0.02371 0.00648353 1511.73
3.38813e-21 0.02371 0.00648359 1505.39
0 -0.0243888 0.00306492 50.2329
5.42101e-20 0.0243888 0.00306492 16.6381
2.71051e-20 -0.0239955 0.00544041 200.681
2.71051e-20 0.0239956 0.00544047 144.571
-3.38813e-21 0.02375 0.00643543 1446.67
0 -0.0237501 0.00643512 1457.94
0 0.02375 0.00647616 1516.52
0 -0.0237501 0.00647607 1522.91
0 0.02375 0.00651289 1540.63
0 -0.0237501 0.00651298 1547.1
5.0822e-22 -0.0243624 0.00373227 51.4611
-6.77626e-22 0.0243624 0.00373229 21.659
-4.51751e-21 -0.0239088 0.00623545 1331.67
0 0.0239119 0.00623295 1311.21
2.25875e-21 -0.0243381 0.00441607 62.0738
1.12938e-21 0.0243381 0.00441608 32.4333
-2.03288e-20 -0.0239124 0.00663207 1678.24
3.38813e-20 0.0239125 0.00663216 1672.23
-2.25875e-21 -0.0243154 0.0050982 115.81
-2.25875e-21 0.0243154 0.00509824 75.8167
0 -0.0240423 0.00655992 1673.46
-2.71051e-20 0.0240424 0.00656003 1667.46
0 -0.0240315 0.00671934 1752.22
0 0.0240316 0.00671938 1746.36
0 -0.0242743 0.00580723 504.712
2.25875e-21 0.0242743 0.00580731 442.345
0 0.025 -6.78443e-20 237.101
0 -0.025 -6.78984e-20 258.028
-1.35525e-20 0.025 8.9709e-05 237.084
1.35525e-20 -0.025 8.96863e-05 258.013
0 -0.0246754 0.00405938 49.0816
0 0.0246754 0.00405939 19.6613
-2.71051e-20 -0.0241476 0.00680413 1841.45
0 0.0241477 0.00680414 1835.87
0 -0.0246399 0.00474331 59.5176
-2.71051e-20 0.0246399 0.00474333 33.312
0 -0.0250975 1.25216e-20 258.307
0 0.0250975 1.25148e-20 237.388
-4.51751e-21 -0.0250714 0.00116098 167.775
0 0.0250714 0.00116099 138.886
0 -0.024199 0.00668126 1794.44
0 0.024199 0.00668131 1788.76
0 -0.0250417 0.00239864 63.2637
0 0.0250417 0.00239865 27.1904
6.45358e-22 -0.0243358 0.00637838 1208.49
-1.6134e-22 0.0243358 0.00637842 1159.55
0 -0.0251867 8.68979e-05 257.592
0 0.0251867 8.6918e-05 236.584
0 -0.0251905 7.48133e-21 257.591
0 0.0251905 7.47859e-21 236.582
0 -0.024626 0.00542264 113.494
2.71051e-20 0.024626 0.00542268 71.8203
-1.12938e-21 -0.0250391 0.00359809 49.6671
2.25875e-21 0.0250391 0.0035981 17.2296
0 -0.0243362 0.00694196 2013.67
0 0.0243364 0.00694208 2007.86
1.69407e-21 -0.0243563 0.00693953 2021.98
0 0.0243563 0.00693966 2016.07
0 -0.0243567 0.00695693 2025.71
0 0.0243568 0.00695694 2019.71
0 0.024375 0.00693987 1991.27
0 -0.024375 0.00693974 1999.78
1.69407e-21 -0.0249674 0.00436301 52.8226
-2.82344e-22 0.0249674 0.00436304 23.5621
1.69407e-21 0.024375 0.00695726 2037.42
0 -0.024375 0.00695725 2043.56
0 0.024375 0.00697023 2046.74
0 -0.024375 0.0069703 2052.99