# p  POINT_DATA 27749
# x  y  z  p
0.014142 -1.35525e-20 8.4025e-08 -0.010558
-0.014142 1.35525e-20 8.4025e-08 0.0580686
0.014142 3.38813e-21 0.000246007 -0.010558
-0.014142 -3.38813e-21 0.000246007 0.058071
0.014142 1.01644e-20 0.000413834 -0.010558
-0.014142 -1.01644e-20 0.000413834 0.0580712
-0.014142 0 0.000659755 0.0580694
0.014142 0 0.000659755 -0.010558
-0.014142 -1.01644e-20 0.000918788 0.05808
0.014142 6.77626e-21 0.000918788 -0.010558
-0.014142 1.01644e-20 0.00109554 0.0580803
0.014142 0 0.00109554 -0.010558
-0.014142 1.35525e-20 0.00135458 0.0580705
0.014142 1.35525e-20 0.00135458 -0.010558
-0.014142 0 0.00162764 0.0580798
0.014142 -1.01644e-20 0.00162764 -0.010558
-0.014253 1.35525e-20 0.000123989 0.0580748
0.014253 1.35525e-20 0.000123987 -0.010558
-0.0142541 0 8.84505e-08 0.0580747
0.0142541 0 8.84502e-08 -0.010558
-0.014142 3.38813e-21 0.00181395 0.0580801
0.014142 3.38813e-21 0.00181395 -0.010558
-0.014253 0 0.000533572 0.0580753
0.014253 0 0.000533572 -0.010558
-0.0142487 0 0.000779064 0.0580797
0.0142487 0 0.000779064 -0.010558
0.014142 -1.35525e-20 0.002087 -0.0105581
-0.014142 1.35525e-20 0.002087 0.0580712
0.0142487 0 0.00120336 -0.010558
-0.0142487 -1.35525e-20 0.00120336 0.0580804
0.0142431 -1.35525e-20 0.0014498 -0.010558
-0.0142431 -1.35525e-20 0.0014498 0.0580801
0.0142431 -1.35525e-20 0.00188515 -0.010558
-0.0142431 -1.35525e-20 0.00188515 0.0580808
-0.014375 0 9.00162e-08 0.0580783
0.014375 2.71051e-20 9.00164e-08 -0.010558
-0.014375 -2.71051e-20 0.000646675 0.0580803
0.014375 1.35525e-20 0.000646674 -0.010558
-0.0142629 6.77626e-21 0.00213232 0.0580744
0.0142629 6.77626e-21 0.00213231 -0.0105581
-0.0142993 0 0.00204071 0.0580768
0.0142993 0 0.00204071 -0.010558
0.0143912 0 0.00158933 -0.010558
-0.0143912 -1.35525e-20 0.00158933 0.0580808
-0.014375 -1.35525e-20 0.00187889 0.0580821
0.014375 6.77626e-21 0.00187888 -0.010558
0.0144893 -1.35525e-20 0.000866117 -0.0105579
-0.0144893 8.13152e-21 0.00086612 0.0580805
0.0144695 -9.03502e-21 0.00125597 -0.010558
-0.0144695 6.77626e-21 0.00125597 0.0580814
-0.014375 0 0.00217431 0.0580806
0.014375 0 0.00217432 -0.010558
-0.0145461 4.51751e-21 0.000325662 0.0580844
0.0145461 6.77626e-21 0.000325655 -0.0105579
-0.0145532 -2.71051e-20 9.53759e-08 0.058084
0.0145533 1.35525e-20 9.53758e-08 -0.0105579
-0.0145148 1.35525e-20 0.00222669 0.0580901
0.0145148 -1.35525e-20 0.00222669 -0.0105579
0.0146056 -1.35525e-20 0.0016502 -0.0105579
-0.0146056 -5.80823e-21 0.0016502 0.0580881
0.0145854 4.23516e-22 0.00195226 -0.0105579
-0.0145817 -9.74088e-21 0.00195131 0.0580956
0.0145839 -1.86347e-20 0.00196242 -0.0105579
-0.0145839 1.60936e-20 0.00196242 0.0580954
-0.0147323 0 1.05322e-07 0.058093
0.0147323 2.71051e-20 1.05321e-07 -0.0105579
0.0147152 0 0.000924056 -0.0105579
-0.0147152 4.51751e-21 0.000924061 0.0580882
-0.0145873 0 0.00225387 0.0580885
0.0145873 0 0.00225387 -0.0105579
0.014694 -2.25875e-21 0.00145649 -0.010558
-0.014694 2.25875e-21 0.0014565 0.0580834
-0.0148203 -1.35525e-20 0.000134167 0.0580967
0.0148203 1.35525e-20 0.000134156 -0.0105579
-0.0148273 0 9.52383e-08 0.058097
0.0148274 -1.35525e-20 9.52384e-08 -0.0105579
-0.0148725 0 9.04372e-08 0.0580987
0.0148726 0 9.04377e-08 -0.0105578
-0.0148701 1.29072e-21 0.000655711 0.0581018
0.0148701 1.19391e-20 0.000655709 -0.0105578
0.0148453 4.01556e-21 0.0012075 -0.0105578
-0.0148453 -3.26265e-21 0.00120751 0.0581013
0.0147327 4.06576e-20 0.00230835 -0.0105579
-0.0147327 0 0.00230836 0.0580936
0.0148279 -3.01167e-21 0.00162721 -0.0105578
-0.0148279 1.50584e-21 0.00162722 0.0581041
-0.015 0 7.9027e-08 0.0581035
0.015 0 7.90279e-08 -0.0105578
-0.015 1.35525e-20 0.000133994 0.0581035
0.015 -1.35525e-20 0.000133987 -0.0105578
-0.014972 -1.12938e-21 0.00204137 0.0581057
0.014972 0 0.00204135 -0.0105578
-0.015 1.69407e-21 0.00224825 0.0581041
0.015 -1.69407e-21 0.00224824 -0.0105578
0.015 -3.38813e-21 0.00240854 -0.0105578
-0.015 0 0.00240855 0.0581037
-0.0150379 0 0.00242273 0.0581053
0.0150379 -3.38813e-21 0.00242272 -0.0105578
-0.0152272 -2.71051e-21 0.000388387 0.058113
0.0152272 8.13152e-21 0.000388387 -0.0105577
0.0152252 4.51751e-21 0.000912537 -0.0105577
-0.0152252 -4.51751e-21 0.000912539 0.0581065
0.0151964 -1.35525e-20 0.0015087 -0.0105578
-0.0151964 0 0.0015087 0.0581052
0.0151247 0 0.00245524 -0.0105577
-0.0151247 -3.38813e-21 0.00245526 0.0581207
0.0153317 0 0.000145238 -0.0105577
-0.0153317 0 0.000145213 0.0581172
0.0153419 -1.35525e-20 1.97573e-08 -0.0105577
-0.015342 2.71051e-20 1.97534e-08 0.0581177
-0.0154305 2.71051e-20 0.000610782 0.058123
0.0154305 2.71051e-20 0.00061078 -0.0105577
-0.0154188 -2.71051e-20 0.00121423 0.0581217
0.0154188 -2.71051e-20 0.00121423 -0.0105577
0.0154797 0 7.97399e-09 -0.0105576
-0.0154797 0 7.97114e-09 0.0581244
-0.0152781 0 0.00251266 0.0581418
0.0152781 6.77626e-21 0.00251265 -0.0105575
0.0153765 -2.71051e-20 0.00187062 -0.0105577
-0.0153765 0 0.00187063 0.0581207
-0.0153109 0 0.00240206 0.0581463
0.0153109 3.38813e-21 0.00240203 -0.0105575
-0.01538 0 0.00228673 0.0581428
0.01538 0 0.00228672 -0.0105575
-0.015625 -1.35525e-20 7.20976e-09 0.0581312
0.015625 2.71051e-20 7.21205e-09 -0.0105576
-0.015625 1.35525e-20 0.000148486 0.0581313
0.015625 -2.71051e-20 0.000148511 -0.0105576
0.0154678 0 0.00258382 -0.0105577
-0.0154678 -1.35525e-20 0.00258382 0.0581231
-0.0157807 0 0.000401201 0.0581384
0.0157807 0 0.000401193 -0.0105576
0.0157688 4.51751e-21 0.000915445 -0.0105576
-0.0157688 -2.25875e-21 0.000915445 0.0581388
-0.0157417 0 0.00155269 0.0581373
0.0157417 9.03502e-21 0.00155269 -0.0105576
0.015655 -8.47033e-22 0.00231454 -0.0105576
-0.015655 0 0.00231454 0.0581298
-0.015625 -1.35525e-20 0.00255476 0.0581295
0.015625 0 0.00255477 -0.0105576
-0.015625 -2.03288e-20 0.00264258 0.0581294
0.015625 1.35525e-20 0.00264259 -0.0105576
-0.0157494 0 0.00207287 0.0581307
0.0157494 -4.51751e-21 0.00207287 -0.0105576
0.0159401 0 0.00015337 -0.0105575
-0.0159401 1.35525e-20 0.000153353 0.0581453
0.0159518 -1.35525e-20 6.42218e-09 -0.0105575
-0.0159518 1.35525e-20 6.42132e-09 0.0581458
-0.0157606 0 0.00269322 0.0581352
0.0157606 -4.06576e-20 0.00269323 -0.0105576
-0.0158013 0 0.00253026 0.0581317
0.0158014 -1.0842e-20 0.00253027 -0.0105576
-0.0161003 2.71051e-20 5.64398e-09 0.0581521
0.0161003 0 5.64433e-09 -0.0105574
-0.0160453 2.71051e-20 0.00191535 0.0581487
0.0160453 0 0.00191536 -0.0105575
-0.0159592 2.71051e-20 0.00276747 0.0581458
0.0159593 -2.71051e-20 0.00276748 -0.0105575
-0.0161558 -1.16165e-20 0.00116884 0.0581562
0.0161558 0 0.00116884 -0.0105574
-0.0161993 9.03502e-21 0.00060793 0.0581574
0.0161993 -1.35525e-20 0.000607927 -0.0105574
-0.0160501 1.35525e-20 0.00232589 0.0581487
0.0160502 -2.25875e-21 0.00232591 -0.0105575
-0.01625 1.35525e-20 4.91538e-09 0.0581589
0.01625 0 4.91559e-09 -0.0105574
-0.01625 1.35525e-20 0.000141083 0.0581589
0.01625 -1.35525e-20 0.000141098 -0.0105574
-0.0162998 0 0.00156752 0.0581611
0.0162998 4.51751e-21 0.00156752 -0.0105574
-0.0164197 -2.71051e-20 0.00030492 0.0581667
0.0164197 -2.71051e-20 0.000304919 -0.0105573
-0.0164161 0 0.000921642 0.0581677
0.0164161 0 0.000921642 -0.0105573
-0.0163188 -5.42101e-21 0.0021118 0.0581612
0.0163188 0 0.00211181 -0.0105574
-0.01625 1.69407e-20 0.00287738 0.0581596
0.0162501 -3.38813e-20 0.00287742 -0.0105574
-0.0162993 2.03288e-20 0.00289583 0.0581619
0.0162996 -3.04932e-20 0.00289591 -0.0105574
-0.0163583 -9.03502e-21 0.00265284 0.0581637
0.0163584 -4.51751e-21 0.00265289 -0.0105574
0.0165943 1.35525e-20 2.17698e-09 -0.0105573
-0.0165944 1.35525e-20 2.17674e-09 0.0581742
0.0165962 0 0.000135304 -0.0105573
-0.0165962 1.35525e-20 0.000135291 0.0581742
-0.0167375 -1.35525e-20 1.46121e-09 0.0581801
0.0167375 0 1.4613e-09 -0.0105573
0.0167399 -2.25875e-21 0.000605599 -0.0105573
-0.0167399 4.51751e-21 0.000605601 0.0581804
-0.0167337 -2.25875e-21 0.00124418 0.0581805
0.0167337 6.77626e-21 0.00124418 -0.0105573
-0.0167344 6.77626e-21 0.00188858 0.0581801
0.0167344 0 0.00188859 -0.0105573
-0.0165907 0 0.00300593 0.0581739
0.0165909 -2.71051e-20 0.00300602 -0.0105573
-0.016875 -1.35525e-20 1.28942e-09 0.058186
0.016875 0 1.28949e-09 -0.0105572
-0.016875 0 0.000125675 0.058186
0.016875 0 0.000125687 -0.0105572
-0.0167222 -4.51751e-21 0.00239131 0.0581794
0.0167222 -4.51751e-21 0.00239136 -0.0105572
-0.017064 2.71051e-20 0.000300568 0.058194
0.017064 0 0.000300568 -0.0105572
-0.0170695 2.71051e-20 0.000918299 0.0581938
0.0170695 0 0.0009183 -0.0105572
-0.0168154 2.71051e-20 0.00309174 0.0581869
0.0168157 2.03288e-20 0.00309186 -0.0105572
-0.0170662 0 0.00156961 0.0581945
0.0170662 0 0.00156962 -0.0105572
-0.016875 3.38813e-21 0.00300896 0.0581898
0.0168752 -1.01644e-20 0.00300917 -0.0105572
-0.016875 0 0.00311456 0.0581886
0.0168752 -3.38813e-21 0.00311463 -0.0105572
-0.0169679 3.38813e-21 0.00280953 0.0581928
0.0169681 -5.64689e-21 0.00280961 -0.0105572
-0.0170644 0 0.00223096 0.0581942
0.0170645 2.71051e-20 0.00223098 -0.0105571
0.0172527 0 5.17857e-10 -0.0105571
-0.0172527 1.35525e-20 5.17799e-10 0.0582022
0.0172567 1.35525e-20 0.000116554 -0.0105571
-0.0172567 -1.35525e-20 0.000116543 0.0582024
-0.0173799 0 3.52934e-10 0.0582077
0.0173799 -2.71051e-20 3.52963e-10 -0.0105571
-0.0170892 -4.06576e-20 0.00319641 0.0581935
0.0170896 0 0.00319653 -0.0105572
0.0173909 -4.51751e-21 0.000597247 -0.0105571
-0.0173909 4.51751e-21 0.000597247 0.0582081
-0.0173956 4.51751e-21 0.00123449 0.0582084
0.0173956 4.51751e-21 0.00123449 -0.0105571
-0.017391 -2.25875e-21 0.00191093 0.0582073
0.017391 4.51751e-21 0.00191095 -0.0105571
-0.0175 0 3.17182e-10 0.0582133
0.0175 0 3.17204e-10 -0.0105571
-0.0175 -1.35525e-20 0.000105668 0.0582133
0.0175 0 0.000105677 -0.0105571
-0.0172483 0 0.00325639 0.0582235
0.0172486 1.35525e-20 0.00325649 -0.0105569
-0.0172989 0 0.00309098 0.0582211
0.0172992 -2.71051e-20 0.00309115 -0.010557
-0.0174288 -2.25875e-21 0.00267373 0.0582085
0.0174289 -7.90564e-21 0.00267377 -0.010557
-0.0177102 0 0.000293773 0.0582224
0.0177102 2.71051e-20 0.000293773 -0.010557
0.0177221 0 0.000903907 -0.010557
-0.0177221 0 0.000903906 0.0582226
-0.0174579 0 0.00333599 0.0582102
0.0174583 1.69407e-21 0.00333616 -0.010557
-0.017725 0 0.00155852 0.058223
0.017725 -2.71051e-20 0.00155853 -0.010557
-0.0174806 1.69407e-21 0.00332679 0.0582089
0.0174809 -1.69407e-21 0.00332701 -0.010557
-0.0174846 1.69407e-21 0.00334611 0.0582071
0.0174848 0 0.00334621 -0.010557
-0.0175001 1.69407e-21 0.00332516 0.0582076
0.0175002 0 0.00332539 -0.010557
-0.0175001 1.69407e-21 0.00334303 0.0582077
0.0175002 1.69407e-21 0.00334314 -0.010557
-0.0175001 0 0.00335193 0.0582077
0.0175002 0 0.00335199 -0.010557
-0.0177115 0 0.00226131 0.0582179
0.0177116 0 0.00226134 -0.010557
-0.0176371 -4.51751e-21 0.00307402 0.0581993
0.0176373 -9.03502e-21 0.0030741 -0.0105571
-0.0176475 -1.35525e-20 0.0030783 0.0581986
0.0176477 0 0.00307838 -0.0105571
0.0179213 1.35525e-20 8.77497e-11 -0.010557
-0.0179213 0 8.77386e-11 0.058232
0.0179253 0 9.30043e-05 -0.010557
-0.0179253 -1.35525e-20 9.29966e-05 0.0582322
-0.0180268 1.35525e-20 5.44518e-11 0.0582366
0.0180268 0 5.44566e-11 -0.0105569
0.018041 -4.51751e-21 0.000581563 -0.0105569
-0.018041 2.25875e-21 0.000581564 0.0582376
-0.0180514 2.25875e-21 0.00121334 0.0582379
0.0180514 2.25875e-21 0.00121334 -0.0105569
-0.0177861 1.35525e-20 0.00345972 0.0582199
0.0177863 -1.35525e-20 0.00345982 -0.0105569
-0.0181253 -1.35525e-20 4.99496e-11 0.0582419
0.0181253 -1.35525e-20 4.99535e-11 -0.0105569
-0.0181254 0 8.36291e-05 0.0582419
0.0181254 0 8.36356e-05 -0.0105569
-0.0180445 -1.88079e-37 0.00190369 0.0582363
0.0180446 1.12938e-21 0.0019037 -0.0105569
-0.0178475 1.35525e-20 0.00338392 0.0582227
0.0178477 1.35525e-20 0.00338406 -0.0105569
-0.0180113 2.25875e-21 0.0026365 0.058231
0.0180114 -4.51751e-21 0.00263657 -0.0105569
-0.0179205 -2.71051e-20 0.00351035 0.058227
0.0179207 0 0.00351043 -0.0105569
-0.0180604 9.03502e-22 0.00312046 0.0582315
0.0180605 1.35525e-21 0.00312054 -0.0105569
-0.0183552 0 0.000282486 0.0582523
0.0183552 0 0.000282486 -0.0105568
-0.0183705 0 0.000877851 0.0582532
0.0183705 2.71051e-20 0.000877851 -0.0105568
-0.0183762 0 0.00153194 0.0582529
0.0183762 0 0.00153194 -0.0105568
-0.018125 -6.77626e-21 0.00358731 0.0582385
0.0181251 6.77626e-21 0.00358737 -0.0105568
-0.0183607 -2.71051e-20 0.00224075 0.0582516
0.0183607 2.71051e-20 0.00224079 -0.0105568
-0.0182327 -3.38813e-20 0.00362784 0.0582431
0.0185903 -6.77626e-21 1.14543e-11 -0.0105568
-0.0185903 6.77626e-21 1.14531e-11 0.0582621
0.0182331 -2.03288e-20 0.00362801 -0.0105568
0.0185922 6.77626e-21 7.01706e-05 -0.0105568
-0.0185923 0 7.01645e-05 0.0582621
-0.0182779 -4.51751e-21 0.00344862 0.058244
0.0182781 4.51751e-21 0.00344876 -0.0105568
-0.0183893 -2.71051e-20 0.00288179 0.058246
0.0183895 0 0.00288187 -0.0105568
-0.0186731 0 7.47954e-12 0.058264
0.0186731 1.35525e-20 7.47989e-12 -0.0105567
0.0186856 -2.25875e-21 0.000557205 -0.0105567
-0.0186856 0 0.000557205 0.058264
-0.0187005 2.25875e-21 0.00117605 0.0582649
0.0187005 -2.25875e-21 0.00117605 -0.0105567
-0.01875 0 6.97676e-12 0.0582686
0.01875 0 6.97711e-12 -0.0105567
-0.01875 0 6.37614e-05 0.0582686
0.01875 0 6.3763e-05 -0.0105567
-0.0186963 5.64689e-21 0.00186483 0.0582654
0.0186963 -2.25875e-21 0.00186484 -0.0105567
-0.0184518 -1.35525e-20 0.00371033 0.0582493
0.0184522 1.35525e-20 0.00371046 -0.0105567
-0.0186925 2.25875e-21 0.00255914 0.0582623
0.0186926 0 0.00255918 -0.0105567
-0.0185639 1.35525e-20 0.00375412 0.0582724
0.0185642 2.71051e-20 0.00375424 -0.0105565
-0.0185985 1.35525e-20 0.00364673 0.0582703
0.0185988 0 0.0036469 -0.0105565
-0.0187019 7.52918e-22 0.00326239 0.0582606
0.0187021 3.76459e-22 0.00326248 -0.0105567
-0.0189931 0 0.000266634 0.0582787
0.0189931 -5.42101e-20 0.000266631 -0.0105566
-0.0190119 -2.71051e-20 0.000838831 0.0582714
0.0190119 0 0.000838832 -0.0105566
-0.0190242 0 0.00148406 0.0582816
0.0190242 0 0.00148407 -0.0105566
-0.01875 0 0.00382122 0.0582597
0.0187502 0 0.00382131 -0.0105567
-0.0190149 2.71051e-20 0.0021878 0.0582759
0.019015 0 0.00218782 -0.0105566
-0.0188263 0 0.00385065 0.0582545
0.0188267 6.77626e-21 0.00385081 -0.0105567
-0.0190109 -2.71051e-20 0.00288329 0.058276
0.019011 2.71051e-20 0.00288335 -0.0105566
-0.0188705 6.77626e-21 0.00377231 0.0582521
0.0188709 -6.77626e-21 0.0037723 -0.0105568
0.0192614 6.77626e-21 9.27668e-13 -0.0105567
-0.0192614 -6.77626e-21 9.27592e-13 0.0582939
0.0192616 0 4.56629e-05 -0.0105567
-0.0192616 -6.77626e-21 4.56581e-05 0.0582939
-0.01896 3.01167e-21 0.00363203 0.0582467
0.0189603 7.52918e-21 0.00363218 -0.0105568
-0.0193175 0 5.50543e-13 0.0582959
0.0193175 0 5.5057e-13 -0.0105567
-0.0189237 1.35525e-20 0.00389016 0.0582666
0.0189243 -1.35525e-20 0.00389043 -0.0105566
-0.019323 0 0.000517722 0.0582886
0.019323 -1.12938e-21 0.000517722 -0.0105567
-0.0193664 -6.77626e-21 3.85536e-05 0.0583015
0.0193665 0 3.85621e-05 -0.0105567
-0.0193681 0 5.3174e-13 0.0583014
0.0193681 0 5.31759e-13 -0.0105567
0.0193603 -2.03288e-21 0.00110959 -0.0105565
-0.0193603 6.77626e-22 0.00110959 0.0582944
-0.0193498 5.64689e-22 0.00179964 0.0582853
0.0193499 1.12938e-21 0.00179965 -0.0105565
-0.0193334 0 0.00252257 0.0582749
0.0193335 0 0.0025226 -0.0105565
-0.019126 0 0.00398495 0.0582745
0.0191265 0 0.00398518 -0.0105566
-0.0191704 1.35525e-20 0.00393584 0.0582766
0.0191709 0 0.0039361 -0.0105566
-0.0193002 -6.77626e-21 0.00324573 0.0582814
0.0193003 4.51751e-21 0.00324584 -0.0105565
-0.0196204 0 0.000237248 0.0583165
0.0196204 -2.71051e-20 0.000237249 -0.0105568
-0.0192183 1.35525e-20 0.00403232 0.0582801
0.0192187 0 0.00403252 -0.0105565
-0.0196558 -2.71051e-20 0.00077133 0.0582891
0.0196558 2.71051e-20 0.000771332 -0.0105567
-0.0196989 3.38813e-21 2.94745e-13 0.0583152
0.0196991 -3.38813e-21 2.94591e-13 -0.0105565
-0.0193646 0 0.00369144 0.058285
0.0193648 1.01644e-21 0.00369158 -0.0105565
-0.0196876 -2.71051e-20 0.0013927 0.0583274
0.0196877 -2.71051e-20 0.0013927 -0.0105563
-0.0196589 2.71051e-20 0.00213409 0.0582599
0.0196589 0 0.00213411 -0.0105565
-0.0193749 -1.35525e-20 0.00398198 0.0582877
0.0193751 0 0.00398219 -0.0105565
-0.0193749 -6.77626e-21 0.00411562 0.0582883
0.0193752 -1.35525e-20 0.00411575 -0.0105565
-0.0196511 5.42101e-20 0.00284955 0.058286
0.0196512 -2.71051e-20 0.0028496 -0.0105565
-0.0199546 2.48463e-21 0.000463658 0.0583283
0.0199546 1.58113e-21 0.000463658 -0.0105562
-0.0196745 0 0.00348132 0.0582978
0.0196747 2.71051e-20 0.00348143 -0.0105564
-0.0195416 1.35525e-20 0.00420424 0.0582959
0.0195422 2.03288e-20 0.00420454 -0.0105565
-0.0199999 0 3.09743e-13 0.0583288
-0.0199999 6.77626e-21 2.95891e-05 0.0583289
0.02 0 3.09472e-13 -0.0105563
0.02 6.77626e-21 2.95641e-05 -0.0105563
-0.0199999 -6.77626e-21 0.000221014 0.0583284
0.02 -6.77626e-21 0.000220906 -0.0105563
-0.0200415 -6.77626e-21 5.2324e-14 0.0583309
0.0200415 0 5.22712e-14 -0.0105563
-0.0196493 1.89735e-20 0.00406163 0.0583001
0.0196497 1.0842e-20 0.0040619 -0.0105564
0.0200712 -6.77626e-21 2.48852e-05 -0.0105562
-0.0200712 6.77626e-21 2.49059e-05 0.058329
-0.0199944 -4.23516e-22 0.00178836 0.0583154
0.0199945 2.82344e-22 0.00178812 -0.0105563
0.0200746 6.77626e-21 3.09659e-14 -0.0105562
-0.0200747 6.77626e-21 3.10016e-14 0.0583289
-0.0200905 2.25875e-21 0.000960743 0.0583265
0.0200905 6.77626e-21 0.000960747 -0.0105563
-0.0200183 9.68038e-22 0.00244899 0.0583155
0.0200184 4.84019e-22 0.00244904 -0.0105563
-0.0197167 0 0.00429743 0.0583024
0.0197172 1.35525e-20 0.00429767 -0.0105564
0.0201821 0 1.06913e-14 -0.0105559
-0.0201822 0 1.0702e-14 0.0583358
-0.0199681 5.64689e-22 0.00317467 0.0583109
0.0199682 -1.12938e-21 0.00317474 -0.0105563
-0.0198179 1.35525e-20 0.00435132 0.0583313
0.0198183 0 0.00435153 -0.0105561
-0.0198553 0 0.0042445 0.0583275
0.0198557 1.35525e-20 0.00424476 -0.0105562
-0.0199718 -3.76459e-22 0.00386197 0.0583128
0.0199721 7.52918e-22 0.0038621 -0.0105563
-0.0204272 -4.51751e-21 0.00031079 0.0583851
0.0204272 0 0.000310794 -0.0105538
-0.0204209 0 0.00146752 0.0583056
0.0204209 0 0.00146751 -0.0105564
-0.0202843 -2.71051e-20 0.0028234 0.0583316
0.0202844 -5.42101e-20 0.00282345 -0.0105562
-0.0199999 0 0.00444833 0.0583129
0.0200001 0 0.00444847 -0.0105563
-0.0204145 2.71051e-20 0.0019651 0.0583789
0.0204145 -2.71051e-20 0.00196511 -0.0105561
0.020525 -2.71051e-20 4.1228e-15 -0.010554
-0.0205251 1.35525e-20 4.11913e-15 0.0583752
-0.0200605 0 0.00448064 0.0583073
0.0200609 0 0.00448086 -0.0105564
-0.0202767 0 0.00350288 0.0583279
0.0202769 2.71051e-20 0.00350297 -0.0105562
-0.0201022 3.38813e-21 0.00441312 0.0583038
0.0201026 0 0.00441316 -0.0105565
-0.0201274 1.35525e-20 0.00451629 0.0583182
0.020128 -6.77626e-21 0.00451661 -0.0105563
-0.0202113 0 0.00425304 0.0582939
0.0202117 2.25875e-21 0.00425325 -0.0105566
-0.0206625 7.26028e-22 0.00085733 0.0583537
0.0206626 0 0.000857304 -0.0105553
0.0206911 0 7.75388e-16 -0.0105545
-0.0206911 1.35525e-20 7.66862e-16 0.0583527
-0.0206295 0 0.00169559 0.0583541
0.0206296 0 0.00169559 -0.0105561
0.0206304 8.47033e-22 0.00244041 -0.010556
-0.0206304 5.64689e-22 0.00244039 0.0583615
-0.0205957 1.69407e-21 0.00315759 0.0583464
0.0205958 -2.25875e-21 0.00315764 -0.0105561
-0.0203417 1.35525e-20 0.00463048 0.0583259
0.0203423 1.35525e-20 0.00463076 -0.0105562
-0.0208473 0 0.00142109 0.0583713
0.0208474 0 0.00142107 -0.010556
-0.0203947 0 0.00457337 0.0583286
0.0203952 0 0.00457368 -0.0105562
-0.0205529 4.51751e-21 0.00387353 0.0583378
0.0205531 6.77626e-21 0.00387367 -0.0105562
-0.0208263 2.71051e-20 0.00194409 0.0583563
0.0208264 2.71051e-20 0.00194412 -0.010556
0.020952 0 1.83774e-16 -0.010554
-0.020952 6.77626e-21 1.79817e-16 0.0583315
-0.0209679 8.47033e-22 0.000112156 0.05833
0.020968 8.47033e-22 0.000113077 -0.0105539
-0.0204458 0 0.00468592 0.0583336
-0.020976 1.69407e-20 3.9622e-17 0.0583305
0.0209762 0 4.13665e-17 -0.010554
0.0204463 0 0.00468616 -0.0105562
-0.020982 -1.12938e-21 0.000349498 0.0583359
0.020982 0 0.000349472 -0.010554
-0.0206056 0 0.00432294 0.0583377
0.020606 -1.12938e-22 0.00432311 -0.0105562
-0.020934 -2.71051e-20 0.00277552 0.0583694
0.0209341 0 0.00277553 -0.010556
-0.0206248 6.77626e-21 0.0047813 0.0583437
0.0206252 6.77626e-21 0.00478146 -0.0105561
-0.0208973 -5.42101e-20 0.00349614 0.0583582
0.0208974 0 0.00349622 -0.010556
-0.0212499 0 -2.75442e-16 0.0583473
0.02125 1.35525e-20 -2.77536e-16 -0.0105557
-0.0207397 -6.77626e-21 0.00484247 0.0583496
0.0207403 0 0.00484278 -0.0105561
-0.0207849 9.03502e-21 0.00466272 0.0583496
0.0207853 -9.03502e-21 0.00466297 -0.0105561
-0.020919 2.71051e-20 0.00411646 0.0583504
0.0209192 -2.71051e-20 0.00411659 -0.0105561
0.0212543 -5.64689e-22 0.00168707 -0.0105559
-0.0212543 0 0.00168707 0.0583781
-0.0213187 -4.51751e-21 0.000900035 0.0583671
0.0213188 7.52918e-22 0.000900008 -0.0105558
-0.0213462 -2.71051e-20 0.000122217 0.0583457
0.0213464 -1.35525e-20 0.00012242 -0.0105563
-0.0213549 0 -2.33939e-18 0.0583455
0.0213552 -1.35525e-20 -1.63806e-18 -0.0105563
-0.0212895 -1.12938e-21 0.00229431 0.0583723
0.0212896 -1.12938e-21 0.00229433 -0.0105559
-0.0214256 0 -2.50254e-16 0.0583587
0.0214259 1.35525e-20 -2.51161e-16 -0.0105561
-0.0212264 1.35525e-21 0.00310849 0.058369
0.0212264 -4.51751e-22 0.00310854 -0.0105559
-0.0209343 1.35525e-20 0.00494614 0.0583588
0.0209347 0 0.00494637 -0.0105561
-0.0212106 0 0.00381734 0.0583664
0.0212108 0 0.00381742 -0.010556
-0.0215712 -2.71051e-20 0.00012748 0.0583726
0.0215719 -1.35525e-20 0.000127708 -0.0105556
-0.0216067 -1.35525e-20 1.47709e-16 0.0583749
0.0216074 0 1.47411e-16 -0.0105556
-0.0210472 -1.35525e-20 0.00500632 0.0584062
0.0210476 -1.35525e-20 0.00500653 -0.0105557
-0.0210903 4.06576e-20 0.00488671 0.058398
0.0210906 -2.71051e-20 0.00488695 -0.0105558
-0.0212076 -3.76459e-22 0.00450561 0.0583684
0.0212079 0 0.00450575 -0.010556
-0.0215471 2.71051e-20 0.00276785 0.0583702
0.0215472 2.71051e-20 0.00276787 -0.0105559
-0.0215274 0 0.00347138 0.0583774
0.0215275 0 0.00347143 -0.0105558
-0.0212498 3.38813e-21 0.00511424 0.0583725
0.0212501 3.38813e-21 0.00511439 -0.010556
-0.0212808 0 0.00513076 0.0583678
0.0212812 0 0.00513096 -0.0105561
-0.0213035 3.38813e-21 0.00509491 0.0583644
0.0213039 0 0.00509497 -0.0105561
-0.0215161 0 0.00414681 0.0583807
0.0215163 0 0.00414691 -0.0105559
-0.0213152 -6.77626e-21 0.00514909 0.0583757
0.0213157 0 0.00514937 -0.010556
-0.0219061 0 0.00171816 0.0583969
0.0219062 0 0.00171816 -0.0105557
-0.0214404 9.03502e-21 0.00489762 0.0583427
0.0214407 0 0.00489781 -0.0105563
-0.0218827 8.47033e-22 0.00243282 0.0583932
0.0218828 3.5293e-22 0.00243287 -0.0105557
-0.0220248 0 0.000514809 0.0584078
0.0220249 5.42101e-20 0.00051481 -0.0105555
-0.0218548 1.12938e-21 0.0031111 0.0583829
0.0218549 -5.64689e-22 0.00311112 -0.0105557
-0.0218321 -3.38813e-21 0.00380917 0.0583816
0.0218322 1.12938e-21 0.00380923 -0.0105558
-0.0215576 1.35525e-20 0.00527824 0.0583848
0.0215581 1.35525e-20 0.00527848 -0.0105559
-0.021618 1.35525e-20 0.00521392 0.058388
0.0216184 0 0.00521418 -0.0105559
-0.0217926 0 0.00451283 0.0583911
0.0217928 -2.25875e-21 0.00451296 -0.0105559
-0.0216748 2.71051e-20 0.00534064 0.0583981
0.0216752 2.71051e-20 0.00534085 -0.0105559
-0.0221928 -2.71051e-20 0.002747 0.0584153
0.0221928 0 0.00274702 -0.0105555
-0.0218358 6.77626e-22 0.0049689 0.0583978
0.0218361 -4.51751e-22 0.00496905 -0.0105559
-0.0221555 0 0.0034489 0.0583699
0.0221556 0 0.00344894 -0.0105557
-0.0224999 -1.35525e-20 1.84423e-16 0.0584238
0.0224999 0 1.84066e-16 -0.0105554
-0.0224999 -2.71051e-20 0.000132933 0.0584234
0.0224999 -2.71051e-20 0.000132958 -0.0105554
-0.0221425 0 0.00413734 0.0583975
0.0221426 0 0.00413741 -0.0105558
-0.0218748 -6.77626e-21 0.00544721 0.0584121
0.0218751 1.01644e-20 0.00544736 -0.0105558
-0.0225914 -4.51751e-21 0.00111537 0.0584227
0.0225915 -4.51751e-21 0.00111537 -0.0105554
-0.0219453 1.69407e-20 0.00548473 0.058417
0.0219458 1.69407e-20 0.00548498 -0.0105558
-0.0220187 0 0.00530677 0.0584167
0.0220191 0 0.00530698 -0.0105558
-0.0221556 2.71051e-20 0.00476086 0.0584091
0.0221558 2.71051e-20 0.00476098 -0.0105558
-0.0226679 -2.71051e-20 -7.53412e-18 0.0584247
0.0226681 0 -7.58207e-18 -0.0105553
-0.0225575 -3.38813e-21 0.00228412 0.0584204
0.0225575 -3.38813e-21 0.00228413 -0.0105555
-0.0224843 5.64689e-22 0.00307682 0.0584128
0.0224843 2.82344e-22 0.00307685 -0.0105555
0.0224597 0 0.00375134 -0.0105556
-0.0224599 -3.38813e-21 0.00375127 0.058411
0.0225 0 0.00363425 -0.0105556
-0.0225 1.27055e-21 0.00363494 0.0584129
-0.0225051 0 0.00374485 0.058413
0.0225052 -4.23516e-22 0.00374487 -0.0105556
-0.0225 4.65868e-21 0.00378724 0.0584134
0.0225001 -4.23516e-22 0.00378756 -0.0105556
-0.0228182 0 0.000138953 0.0584329
0.0228183 0 0.000138995 -0.0105553
-0.0228294 0 -4.61624e-18 0.0584333
0.0228296 2.71051e-20 -4.63904e-18 -0.0105553
-0.0221583 1.35525e-20 0.00559821 0.0584331
0.0221587 -1.35525e-20 0.00559841 -0.0105558
-0.0225497 -1.27055e-21 0.00374904 0.0584156
0.0225501 -4.23516e-22 0.00374909 -0.0105556
-0.0224518 2.25875e-21 0.00446274 0.0584202
0.022452 -2.25875e-21 0.00446282 -0.0105556
-0.0222812 1.35525e-20 0.00566371 0.0585118
0.0222816 -2.71051e-20 0.00566387 -0.0105553
-0.0223282 -1.35525e-20 0.00553398 0.0584958
0.0223285 1.35525e-20 0.00553418 -0.0105554
-0.0224429 -7.52918e-22 0.00515541 0.058439
0.0224431 2.63521e-21 0.00515553 -0.0105557
-0.0229083 0 0.002849 0.0584255
0.0229083 -5.42101e-20 0.002849 -0.0105557
-0.0227694 2.71051e-20 0.0041284 0.0584333
0.0227695 -2.71051e-20 0.00412845 -0.0105555
-0.022907 2.71051e-20 0.00330615 0.0584509
0.022907 -2.71051e-20 0.00330618 -0.0105554
-0.0224999 -8.47033e-22 0.00578016 0.0584531
0.0225001 0 0.00578025 -0.0105557
-0.022509 0 0.00578499 0.058451
0.0225093 0 0.00578515 -0.0105557
-0.0225157 0 0.00577432 0.0584493
0.0225161 0 0.00577434 -0.0105557
-0.0225192 5.0822e-21 0.00579044 0.0584544
-0.0231859 -1.0842e-19 0.00175342 0.0584406
0.0231859 5.42101e-20 0.00175342 -0.0105553
0.0225196 -1.01644e-20 0.00579066 -0.0105557
-0.0232456 0 0.000558692 0.0584456
0.0232457 -5.42101e-20 0.000558711 -0.0105552
-0.0227557 0 0.00479293 0.058441
0.0227559 -2.71051e-20 0.00479302 -0.0105556
-0.0231485 8.47033e-22 0.00241751 0.058444
0.0231485 2.5411e-21 0.00241752 -0.0105554
-0.0231146 0 0.00307521 0.0584475
0.0231146 -1.35525e-20 0.00307522 -0.0105554
-0.0226733 4.51751e-21 0.00554788 0.0584078
0.0226736 1.50584e-21 0.00554803 -0.010556
-0.023097 7.52918e-22 0.00377993 0.058446
0.023097 0 0.00377995 -0.0105553
-0.0230771 -2.25875e-21 0.00445731 0.0584463
0.0230772 1.12938e-21 0.00445735 -0.0105554
-0.0233413 0 0.00284259 0.0584555
0.0233413 0 0.0028426 -0.0105552
-0.023307 8.13152e-20 0.00329649 0.0584493
0.0233071 2.71051e-20 0.00329651 -0.0105552
-0.0227839 0 0.00593173 0.0584646
0.0227842 0 0.00593191 -0.0105556
-0.0228491 0 0.00586239 0.0584684
0.0228494 1.35525e-20 0.00586258 -0.0105556
-0.023032 -2.25875e-21 0.00515826 0.0584669
0.0230322 4.51751e-21 0.00515836 -0.0105555
-0.0229106 0 0.00599952 0.0584865
0.0229109 2.71051e-20 0.00599968 -0.0105556
-0.02307 -4.51751e-22 0.00562146 0.0584826
0.0230702 9.03502e-22 0.00562158 -0.0105555
0.02375 1.35525e-20 -2.43292e-18 -0.0105551
-0.02375 1.35525e-20 -2.41367e-18 0.0584634
0.02375 0 0.000111054 -0.0105551
-0.02375 0 0.000111013 0.0584633
-0.0234167 -5.42101e-20 0.00409117 0.0584458
0.0234167 -2.71051e-20 0.0040912 -0.0105553
-0.023377 -2.71051e-20 0.00479103 0.0584652
0.0233771 -2.71051e-20 0.00479109 -0.0105554
-0.0238362 -6.77626e-21 0.0011485 0.0584636
0.0238362 -2.25875e-21 0.00114851 -0.0105551
-0.0238811 0 -9.76369e-20 0.0584679
0.0238811 1.35525e-20 -9.76012e-20 -0.010555
-0.0231249 0 0.00611529 0.0585056
0.0231251 -6.77626e-21 0.00611542 -0.0105555
-0.0238207 3.38813e-21 0.0023609 0.0584643
0.0238207 3.38813e-21 0.00236091 -0.0105551
0.02375 -4.23516e-22 0.00306544 -0.0105551
-0.02375 0 0.00306542 0.0584649
-0.0231675 2.71051e-20 0.00613811 0.0585098
0.0231678 -1.01644e-20 0.00613829 -0.0105555
-0.0239958 -2.71051e-20 0.000113682 0.0584714
0.0239958 0 0.000113711 -0.010555
-0.0240047 -1.35525e-20 1.15233e-20 0.0584718
0.0240048 -1.35525e-20 1.14799e-20 -0.010555
-0.0232579 -9.03502e-21 0.00596069 0.0585084
0.0232581 0 0.00596085 -0.0105555
-0.0233938 -2.71051e-20 0.00541135 0.0584994
0.023394 2.71051e-20 0.00541144 -0.0105555
-0.0237524 1.31761e-21 0.00364844 0.0584611
0.0237525 -2.5411e-21 0.00364848 -0.0105552
-0.0237062 -1.12938e-21 0.00443801 0.0584671
0.0237062 1.12938e-21 0.00443804 -0.0105552
-0.0233932 1.35525e-20 0.00626089 0.0585378
0.0233933 0 0.00626103 -0.0105555
-0.0236906 -1.12938e-21 0.00510847 0.0584954
0.0236907 0 0.00510853 -0.0105553
-0.0235126 -2.03288e-20 0.00635102 0.0586627
0.0235127 0 0.00635113 -0.0105549
-0.0235682 -1.35525e-20 0.0062058 0.0586311
0.0235683 -2.71051e-20 0.00620594 -0.0105551
-0.0240297 0 0.00408462 0.0584712
0.0240297 0 0.00408465 -0.0105551
-0.0236813 3.76459e-22 0.00581872 0.0585395
0.0236814 3.38813e-21 0.0058188 -0.0105554
-0.0240098 0 0.00476744 0.0584863
0.0240099 -5.42101e-20 0.00476747 -0.0105552
-0.0244727 5.42101e-20 0.00057972 0.0584877
0.0244727 0 0.000579724 -0.0105549
-0.0244408 5.42101e-20 0.00176632 0.0584804
0.0244408 5.42101e-20 0.00176633 -0.0105549
-0.0236696 -3.38813e-21 0.00645563 0.0586035
0.0236698 0 0.00645575 -0.0105553
-0.0237096 3.38813e-21 0.00644182 0.0585861
0.0237098 -3.38813e-21 0.00644193 -0.0105554
-0.0237098 -3.38813e-21 0.00648356 0.0585687
0.02371 0 0.00648366 -0.0105555
-0.0243888 0 0.00306491 0.0584781
0.0243888 5.42101e-20 0.00306491 -0.0105549
-0.0239955 2.71051e-20 0.00544039 0.0585295
0.0239956 -2.71051e-20 0.00544045 -0.0105553
-0.0237499 0 0.00643519 0.0585696
0.0237501 0 0.0064353 -0.0105555
-0.0237499 0 0.0064761 0.0585694
0.0237501 0 0.0064762 -0.0105555
-0.0237499 0 0.006513 0.058569
0.0237501 0 0.00651309 -0.0105554
-0.0243624 0 0.00373226 0.0584872
0.0243624 2.82344e-22 0.00373228 -0.010555
-0.0239087 -9.03502e-21 0.00623548 0.0585069
0.0239088 4.51751e-21 0.00623556 -0.0105558
-0.0243381 -3.38813e-21 0.00441605 0.0584975
0.0243382 1.12938e-21 0.00441607 -0.0105551
-0.0239122 2.71051e-20 0.00663214 0.0585762
0.0239123 2.71051e-20 0.00663222 -0.0105554