# p  POINT_DATA 27756
# x  y  z  p
0.014142 -1.35525e-20 1.6805e-07 -0.0103869
-0.014142 1.35525e-20 1.6805e-07 0.0588198
-0.014142 -6.77626e-21 0.000389161 0.0588263
0.014142 -3.38813e-21 0.000389161 -0.0103868
-0.014142 1.35525e-20 0.000654607 0.0588267
0.014142 -1.01644e-20 0.000654607 -0.0103868
0.014142 0 0.0010436 -0.0103869
-0.014142 0 0.0010436 0.0588215
0.014142 3.38813e-21 0.00143258 -0.0103868
-0.014142 -3.38813e-21 0.00143258 0.0588295
0.0142373 -1.35525e-20 0.000284221 -0.0103868
-0.0142373 0 0.000284221 0.0588278
0.014142 -3.38813e-21 0.00169802 -0.0103868
-0.014142 3.38813e-21 0.00169802 0.05883
0.0142373 -1.35525e-20 0.000886478 -0.0103868
-0.0142373 -1.35525e-20 0.00088648 0.0588288
-0.0142692 -2.03288e-20 1.47356e-07 0.0588238
0.0142693 2.03288e-20 1.47356e-07 -0.0103867
0.0142379 -1.35525e-20 0.0012254 -0.0103868
-0.0142379 0 0.0012254 0.0588304
0.014142 -1.35525e-20 0.002087 -0.0103869
-0.014142 1.35525e-20 0.002087 0.0588229
-0.0142973 0 0.000101975 0.0588254
0.0142973 1.35525e-20 0.000101973 -0.0103867
0.0142379 0 0.00182879 -0.0103868
-0.0142379 -1.35525e-20 0.00182879 0.0588314
-0.014375 -1.35525e-20 1.30159e-07 0.0588294
0.014375 1.35525e-20 1.30159e-07 -0.0103867
0.0143675 0 0.000671993 -0.0103868
-0.0143675 -1.35525e-20 0.000671996 0.0588313
-0.0142629 6.77626e-21 0.00213232 0.0588258
0.0142629 6.77626e-21 0.00213231 -0.0103869
-0.0142983 0 0.00203123 0.0588282
0.0142983 0 0.00203122 -0.0103868
0.0143695 2.71051e-20 0.00147469 -0.0103868
-0.0143695 -1.35525e-20 0.0014747 0.0588315
0.0145077 4.92819e-21 0.000511288 -0.0103867
-0.0145077 7.39229e-21 0.000511289 0.0588356
-0.0145274 -1.35525e-20 1.02817e-07 0.0588371
0.0145274 1.35525e-20 1.02816e-07 -0.0103868
-0.014375 0 0.00217431 0.0588322
0.014375 0 0.00217432 -0.0103868
0.0144983 -1.12938e-21 0.00108867 -0.0103867
-0.0144983 0 0.00108868 0.0588359
-0.0145754 9.41148e-22 0.000290395 0.0588398
0.0145754 -3.76459e-22 0.000290391 -0.0103868
0.0145113 -6.16024e-21 0.00167641 -0.0103867
-0.0145113 -2.4641e-21 0.00167642 0.0588373
-0.0146106 0 8.78841e-08 0.0588391
0.0146106 2.71051e-20 8.78836e-08 -0.0103866
-0.0145148 1.35525e-20 0.00222669 0.0588423
0.0145148 -1.35525e-20 0.00222669 -0.0103866
0.0146674 -2.25875e-21 0.00084634 -0.0103866
-0.0146674 0 0.000846346 0.0588355
0.0145789 -9.41148e-23 0.00192781 -0.0103865
-0.0145789 9.41148e-23 0.00192783 0.0588479
0.0146711 -3.38813e-21 0.00137924 -0.0103866
-0.0146711 0 0.00137925 0.0588353
-0.0145873 0 0.00225387 0.0588399
0.0145873 0 0.00225387 -0.0103866
0.0147492 0 0.000649507 -0.0103864
-0.0147492 -1.35525e-20 0.00064951 0.0588577
0.0147845 5.0822e-21 0.000655261 -0.0103865
-0.0147845 3.38813e-21 0.000655264 0.0588474
0.014799 6.77626e-21 0.00087194 -0.0103864
-0.014799 -6.77626e-21 0.000871947 0.0588587
0.0147848 -1.50584e-21 0.00117685 -0.0103864
-0.0147848 -6.02335e-21 0.00117685 0.0588513
0.0147611 1.35525e-20 0.00160916 -0.0103864
-0.0147611 0 0.00160917 0.0588584
0.0147982 9.85638e-21 0.00158804 -0.0103864
-0.0147982 1.10884e-20 0.00158805 0.0588551
-0.0148904 6.77626e-21 6.18651e-08 0.0588501
0.0148905 0 6.18649e-08 -0.0103864
0.0147327 4.06576e-20 0.00230835 -0.0103865
-0.0147327 0 0.00230836 0.0588448
-0.0149957 4.70574e-23 0.000282714 0.0588539
0.0149957 -1.8823e-22 0.000282717 -0.0103863
-0.015 0 5.8904e-08 0.0588548
0.015 6.77626e-21 5.89036e-08 -0.0103863
-0.0149675 7.52918e-22 0.00202158 0.0588568
0.0149675 -3.76459e-22 0.00202157 -0.0103863
-0.0150978 1.01644e-20 0.000881424 0.0588549
0.0150978 1.12938e-21 0.000881419 -0.0103863
0.015 -3.38813e-21 0.00225502 -0.0103863
-0.015 0 0.00225504 0.058855
0.0151059 6.77626e-21 0.00145532 -0.0103862
-0.0151059 2.25875e-21 0.00145533 0.0588536
0.015 -3.38813e-21 0.00240854 -0.0103863
-0.015 0 0.00240855 0.0588546
-0.0150379 0 0.00242273 0.0588562
0.0150379 -3.38813e-21 0.00242272 -0.0103863
0.01529 0 2.82763e-08 -0.0103861
-0.01529 2.71051e-20 2.82765e-08 0.058868
0.0151247 0 0.00245524 -0.0103861
-0.0151247 -3.38813e-21 0.00245526 0.0588714
-0.0153535 2.71051e-20 0.00058317 0.0588708
0.0153535 5.42101e-20 0.000583168 -0.0103861
0.0153939 0 0.00118159 -0.010386
-0.0153939 0 0.0011816 0.0588716
0.0153693 -2.71051e-20 0.00185215 -0.0103861
-0.0153693 -2.71051e-20 0.00185216 0.0588713
-0.0152781 0 0.00251266 0.0588921
0.0152781 6.77626e-21 0.00251265 -0.0103859
-0.0153114 0 0.00239528 0.0588966
0.0153114 -3.38813e-21 0.00239523 -0.0103858
0.0153767 -4.51751e-21 0.00228002 -0.0103858
-0.0153767 0 0.00228003 0.0588934
-0.015625 1.01644e-20 2.01017e-08 0.0588831
0.015625 -2.87991e-20 2.01015e-08 -0.0103859
0.0156405 -1.52466e-20 1.9576e-08 -0.0103859
-0.0156405 2.71051e-20 1.95762e-08 0.0588837
-0.0156637 -1.12938e-21 0.000293614 0.0588847
0.0156637 3.38813e-21 0.000293613 -0.0103859
0.0154678 0 0.00258382 -0.010386
-0.0154678 -1.35525e-20 0.00258382 0.0588738
0.0157172 -2.25875e-21 0.00089524 -0.0103858
-0.0157172 0 0.000895245 0.0588876
0.015724 0 0.00153553 -0.0103858
-0.015724 -2.25875e-21 0.00153553 0.0588875
0.0156525 0 0.00230987 -0.0103859
-0.0156525 0 0.00230987 0.0588804
-0.015625 0 0.00255394 0.0588803
0.015625 -1.35525e-20 0.00255394 -0.0103859
-0.015625 -2.03288e-20 0.00264258 0.0588802
0.015625 1.35525e-20 0.00264259 -0.0103859
-0.0157449 -1.35525e-20 0.00206368 0.0588814
0.0157449 -4.51751e-21 0.00206369 -0.0103858
-0.015972 -5.42101e-20 1.0971e-08 0.0588976
0.015972 -2.71051e-20 1.0971e-08 -0.0103857
-0.0157606 0 0.00269322 0.058886
0.0157606 -4.06576e-20 0.00269323 -0.0103858
-0.0158002 0 0.00252824 0.0588825
0.0158002 -8.13152e-21 0.00252825 -0.0103858
-0.0160283 2.71051e-20 0.000587666 0.0588997
0.0160283 2.71051e-20 0.000587665 -0.0103856
0.016059 -2.71051e-20 0.00121824 -0.0103856
-0.0160591 0 0.00121824 0.0589007
-0.0160388 -2.71051e-20 0.00190504 0.0588991
0.0160388 2.71051e-20 0.00190505 -0.0103856
-0.0159592 2.71051e-20 0.00276747 0.0588964
0.0159593 -2.71051e-20 0.00276748 -0.0103857
-0.0160464 1.12938e-20 0.00232046 0.0588992
0.0160464 6.77626e-21 0.00232048 -0.0103856
-0.01625 1.35525e-20 8.16833e-09 0.0589098
0.01625 -1.35525e-20 8.1683e-09 -0.0103855
-0.0163416 -2.25875e-21 0.000297322 0.0589138
0.0163416 -4.51751e-21 0.000297321 -0.0103854
0.0163888 -3.38813e-20 5.62447e-09 -0.0103854
-0.0163888 -2.71051e-20 5.62442e-09 0.0589158
0.0163802 2.25875e-21 0.000909932 -0.0103854
-0.0163802 9.03502e-21 0.00090993 0.0589157
-0.0163169 1.89735e-20 0.00210721 0.0589117
0.0163169 1.6263e-20 0.00210723 -0.0103854
0.016394 2.25875e-21 0.0015607 -0.0103854
-0.016394 0 0.00156069 0.0589168
-0.01625 1.69407e-20 0.00287738 0.0589102
0.0162501 -3.38813e-20 0.00287742 -0.0103855
-0.0162993 2.03288e-20 0.00289583 0.0589125
0.0162996 -3.04932e-20 0.00289591 -0.0103855
-0.0163574 4.51751e-21 0.00265188 0.0589142
0.0163575 2.25875e-21 0.00265193 -0.0103854
-0.0166549 0 2.57175e-09 0.0589268
0.0166549 0 2.57177e-09 -0.0103852
0.0166925 2.71051e-20 0.00059198 -0.0103852
-0.0166925 0 0.000591981 0.0589283
-0.0165907 0 0.00300593 0.0589243
0.0165909 -2.71051e-20 0.00300602 -0.0103852
-0.0168227 -4.51751e-21 0.00122863 0.0589348
0.0168227 4.51751e-21 0.00122863 -0.010385
-0.016875 0 2.08171e-09 0.0589362
0.016875 1.35525e-20 2.08172e-09 -0.010385
-0.0167197 0 0.00238747 0.0589296
0.0167198 0 0.00238751 -0.0103851
-0.0167791 6.77626e-21 0.00193458 0.0589318
0.0167791 4.51751e-21 0.00193459 -0.0103851
0.0169402 0 0.000818281 -0.010385
-0.0169402 0 0.000818282 0.0589382
-0.0170157 -4.51751e-21 0.000298727 0.0589422
0.0170157 4.51751e-21 0.000298727 -0.0103849
-0.0168154 2.71051e-20 0.00309174 0.0589371
0.0168157 2.03288e-20 0.00309186 -0.010385
-0.017054 0 0.00156175 0.0589441
0.017054 0 0.00156176 -0.0103849
0.0171302 -1.35525e-20 1.11108e-09 -0.0103848
-0.0171302 0 1.11107e-09 0.058947
-0.016875 6.77626e-21 0.00300832 0.05894
0.0168752 -6.77626e-21 0.00300853 -0.010385
-0.016875 0 0.00311456 0.0589388
0.0168752 -3.38813e-21 0.00311463 -0.010385
-0.0169671 -3.38813e-21 0.00280904 0.058943
0.0169673 2.25875e-21 0.00280912 -0.0103849
-0.0170607 0 0.00222781 0.0589442
0.0170608 0 0.00222783 -0.0103849
-0.0173299 2.71051e-20 6.20517e-10 0.0589554
0.0173299 -2.71051e-20 6.2052e-10 -0.0103847
-0.0170892 -4.06576e-20 0.00319641 0.0589436
0.0170896 0 0.00319653 -0.0103849
-0.017405 0 0.000633538 0.0589583
0.017405 -2.25875e-21 0.000633539 -0.0103847
-0.0173772 2.25875e-21 0.00122567 0.0589575
0.0173772 -2.25875e-21 0.00122567 -0.0103847
-0.0173848 4.51751e-21 0.00190647 0.058957
0.0173849 -4.51751e-21 0.00190649 -0.0103847
-0.0175 0 5.31043e-10 0.0589632
0.0175 0 5.31044e-10 -0.0103846
-0.0175 2.71051e-20 0.000142313 0.0589632
0.0175 -1.35525e-20 0.000142315 -0.0103846
-0.0172483 0 0.00325639 0.0589733
0.0172486 1.35525e-20 0.00325649 -0.0103844
-0.0172988 1.35525e-20 0.00309078 0.058971
0.0172991 0 0.00309094 -0.0103845
-0.0174281 1.35525e-20 0.0026727 0.0589584
0.0174282 6.77626e-21 0.00267274 -0.0103846
-0.0176747 0 0.000289064 0.0589706
0.0176747 0 0.000289064 -0.0103845
-0.0177004 -2.71051e-20 0.000896457 0.0589715
0.0177004 0 0.000896462 -0.0103844
-0.0174579 0 0.00333599 0.0589601
0.0174583 1.69407e-21 0.00333616 -0.0103846
-0.0177158 0 0.00155351 0.0589725
0.0177158 0 0.00155351 -0.0103844
-0.0174806 0 0.00332675 0.0589587
0.0174809 0 0.00332697 -0.0103846
-0.0174846 1.69407e-21 0.00334611 0.058957
0.0174848 0 0.00334621 -0.0103846
-0.0175001 1.69407e-21 0.00332514 0.0589574
0.0175002 0 0.00332537 -0.0103846
-0.0175001 0 0.00334303 0.0589575
0.0175002 0 0.00334314 -0.0103846
-0.0175001 0 0.00335193 0.0589575
0.0175002 0 0.00335199 -0.0103846
-0.0177088 -2.71051e-20 0.00225929 0.0589676
0.0177089 0 0.00225933 -0.0103844
0.0178538 0 1.78852e-10 -0.0103844
-0.0178538 -2.71051e-20 1.78849e-10 0.0589787
0.0178633 1.35525e-20 0.000120403 -0.0103844
-0.0178633 0 0.000120401 0.0589791
-0.0176368 -4.51751e-21 0.00307374 0.0589492
0.017637 4.51751e-21 0.00307382 -0.0103847
-0.0176473 1.35525e-20 0.00307813 0.0589485
0.0176475 -1.35525e-20 0.00307821 -0.0103847
-0.0179989 1.35525e-20 9.3839e-11 0.0589849
0.0179989 1.35525e-20 9.38393e-11 -0.0103843
-0.0180169 -2.25875e-21 0.000576041 0.0589862
0.0180169 4.51751e-21 0.000576041 -0.0103843
-0.0180393 0 0.00120814 0.0589871
0.0180394 2.25875e-21 0.00120814 -0.0103842
-0.0177861 1.35525e-20 0.00345972 0.0589696
0.0177863 -1.35525e-20 0.00345982 -0.0103844
-0.0181252 0 8.38838e-11 0.0589917
0.0181253 0 8.38839e-11 -0.0103842
-0.0181254 -2.71051e-20 0.000104621 0.0589917
0.0181254 0 0.00010462 -0.0103842
-0.0180404 2.25875e-21 0.00190105 0.0589858
0.0180405 -2.25875e-21 0.00190107 -0.0103842
-0.0178475 1.35525e-20 0.0033839 0.0589724
0.0178476 1.35525e-20 0.00338403 -0.0103844
-0.0180106 -4.51751e-21 0.00263553 0.0589806
0.0180107 -4.51751e-21 0.0026356 -0.0103843
-0.0179205 -2.71051e-20 0.00351035 0.0589766
0.0179207 0 0.00351043 -0.0103843
-0.0180602 -9.03502e-22 0.00312038 0.0589811
0.0180604 9.03502e-22 0.00312046 -0.0103842
-0.0183343 -2.71051e-20 0.000279709 0.059001
0.0183343 0 0.000279703 -0.0103841
-0.0183566 0 0.000873067 0.0590022
0.0183566 2.71051e-20 0.000873065 -0.010384
-0.01837 0 0.00152863 0.0590023
0.0183701 -2.71051e-20 0.00152863 -0.010384
-0.018125 -6.77626e-21 0.00358731 0.0589881
0.0181251 6.77626e-21 0.00358737 -0.0103842
-0.0183588 -2.71051e-20 0.0022394 0.059001
0.0183589 2.71051e-20 0.00223943 -0.010384
-0.0185565 0 2.08884e-11 0.0590101
0.0185566 1.35525e-20 2.08886e-11 -0.0103839
-0.0185599 1.35525e-20 8.401e-05 0.0590102
0.0185599 0 8.40103e-05 -0.0103839
-0.0182327 -3.38813e-20 0.00362784 0.0589927
0.0182331 -2.03288e-20 0.00362801 -0.0103841
-0.0182779 -1.807e-20 0.0034486 0.0589935
0.0182781 -4.51751e-21 0.00344874 -0.0103841
-0.018389 0 0.00288151 0.0589954
0.0183891 5.42101e-20 0.00288158 -0.010384
-0.0186587 0 1.21776e-11 0.0590125
0.0186588 0 1.21775e-11 -0.0103838
-0.0186718 -1.12938e-21 0.000554126 0.0590127
0.0186718 0 0.000554126 -0.0103838
-0.0186932 -3.38813e-21 0.00117299 0.059014
0.0186932 2.25875e-21 0.00117299 -0.0103838
-0.01875 0 1.12105e-11 0.0590179
0.01875 0 1.12104e-11 -0.0103838
-0.01875 -1.35525e-20 7.46445e-05 0.0590179
0.01875 0 7.46508e-05 -0.0103838
-0.0186938 0 0.00186329 0.0590147
0.0186938 0 0.0018633 -0.0103838
-0.0184518 -1.35525e-20 0.00371033 0.0589987
0.0184522 1.35525e-20 0.00371046 -0.010384
-0.018692 -1.12938e-21 0.00255869 0.0590116
0.018692 1.12938e-21 0.00255873 -0.0103838
-0.0185639 1.35525e-20 0.00375412 0.0590217
0.0185642 2.71051e-20 0.00375424 -0.0103836
-0.0185985 -2.71051e-20 0.00364672 0.0590196
0.0185988 -1.35525e-20 0.00364689 -0.0103836
-0.0189816 0 0.0002651 0.0590273
0.0189816 0 0.00026511 -0.0103836
-0.0187018 0 0.00326235 0.0590099
0.0187021 -7.52918e-22 0.00326243 -0.0103838
-0.0190035 5.42101e-20 0.000835928 0.0590202
0.0190035 5.42101e-20 0.00083593 -0.0103835
-0.0190203 0 0.00148196 0.0590307
0.0190203 2.71051e-20 0.00148197 -0.0103835
-0.01875 0 0.00382122 0.0590089
0.0187502 0 0.00382131 -0.0103838
-0.0190138 2.71051e-20 0.00218695 0.059025
0.0190138 -2.71051e-20 0.00218697 -0.0103835
-0.0188263 0 0.00385065 0.0590037
0.0188267 6.77626e-21 0.00385081 -0.0103839
-0.0190106 -2.71051e-20 0.00288311 0.0590251
0.0190107 2.71051e-20 0.00288317 -0.0103836
-0.0188705 -6.77626e-21 0.00377231 0.0590013
0.0188709 0 0.0037723 -0.0103839
0.0192456 -6.77626e-21 1.60933e-12 -0.0103836
-0.0192456 0 1.60924e-12 0.0590421
0.0192459 0 5.21771e-05 -0.0103836
-0.0192459 0 5.21707e-05 0.0590421
-0.01896 4.51751e-21 0.00363202 0.0589959
0.0189603 -4.51751e-21 0.00363217 -0.010384
0.0193107 0 8.87425e-13 -0.0103835
-0.0193107 0 8.87409e-13 0.0590444
-0.0189237 1.35525e-20 0.00389016 0.0590157
0.0189243 -1.35525e-20 0.00389043 -0.0103837
0.0193153 0 0.000516097 -0.0103835
-0.0193153 2.25875e-21 0.000516096 0.0590372
0.0193661 -1.35525e-20 4.34935e-05 -0.0103836
-0.0193661 -6.77626e-21 4.34909e-05 0.0590508
0.0193681 -6.77626e-21 8.52462e-13 -0.0103836
-0.0193681 0 8.52481e-13 0.0590507
0.019358 -1.58113e-21 0.00110754 -0.0103833
-0.019358 -6.77626e-22 0.00110754 0.0590434
-0.0193483 5.64689e-22 0.00179883 0.0590343
0.0193484 -1.69407e-21 0.00179884 -0.0103833
-0.0193331 -2.25875e-21 0.00252234 0.0590239
0.0193332 2.25875e-21 0.00252237 -0.0103834
-0.019126 0 0.00398495 0.0590236
0.0191265 0 0.00398518 -0.0103835
-0.0191704 1.35525e-20 0.00393584 0.0590257
0.0191709 -1.35525e-20 0.0039361 -0.0103835
-0.0193001 2.25875e-21 0.00324569 0.0590304
0.0193003 6.77626e-21 0.0032458 -0.0103834
0.0196143 0 0.000236552 -0.0103836
-0.0196143 -2.71051e-20 0.000236554 0.0590653
-0.0192183 1.35525e-20 0.00403232 0.0590291
0.0192187 0 0.00403252 -0.0103835
-0.0196507 0 0.000769621 0.0590375
0.0196507 0 0.000769623 -0.0103834
-0.0193646 -2.25875e-22 0.00369144 0.059034
0.0193648 5.64689e-22 0.00369158 -0.0103834
-0.0197261 0 4.33323e-13 0.0590653
0.0197262 1.01644e-20 4.33135e-13 -0.0103832
-0.0196852 -2.71051e-20 0.00139142 0.0590765
0.0196853 0 0.00139142 -0.0103829
-0.0196581 0 0.00213359 0.0590087
0.0196582 -2.71051e-20 0.00213361 -0.0103832
-0.0193749 0 0.00398198 0.0590367
0.0193751 -1.35525e-20 0.00398219 -0.0103834
-0.0193749 -6.77626e-21 0.00411562 0.0590373
0.0193752 -1.35525e-20 0.00411575 -0.0103834
-0.0196509 0 0.00284944 0.0590348
0.019651 2.71051e-20 0.00284949 -0.0103832
0.0199511 1.35525e-21 0.000464178 -0.0103828
-0.0199511 4.51751e-21 0.00046418 0.059077
-0.0196745 -2.71051e-20 0.0034813 0.0590467
0.0196747 2.71051e-20 0.00348141 -0.0103832
-0.0195416 1.35525e-20 0.00420424 0.0590448
0.0195422 2.03288e-20 0.00420454 -0.0103833
-0.0199999 0 4.82349e-13 0.0590776
-0.0199999 6.77626e-21 2.78793e-05 0.0590776
0.02 0 4.8203e-13 -0.0103829
0.02 0 2.78629e-05 -0.0103829
-0.0199999 -3.38813e-21 0.00020828 0.0590771
0.02 -3.38813e-21 0.000208219 -0.0103829
-0.0200396 -6.77626e-21 7.2017e-14 0.0590795
0.0200396 0 7.19638e-14 -0.0103828
-0.0196493 -2.71051e-20 0.00406163 0.0590489
0.0196497 0 0.0040619 -0.0103832
0.0200681 0 2.37653e-05 -0.0103827
-0.0200681 0 2.37764e-05 0.0590777
-0.0199936 -2.82344e-22 0.00175494 0.0590639
0.0199936 4.70574e-23 0.00175489 -0.0103829
0.0200714 0 3.9275e-14 -0.0103827
-0.0200714 0 3.92932e-14 0.0590776
0.0200889 2.25875e-21 0.000959457 -0.0103828
-0.0200889 -9.03502e-21 0.000959452 0.059075
-0.0200181 0 0.00244871 0.0590641
0.0200182 -1.6134e-22 0.00244877 -0.0103828
0.0201758 6.77626e-21 9.02736e-15 -0.0103825
-0.0201758 -6.77626e-21 9.03236e-15 0.0590841
-0.0197167 0 0.00429743 0.0590512
0.0197172 1.35525e-20 0.00429767 -0.0103832
-0.0199681 -1.12938e-21 0.00317465 0.0590596
0.0199682 5.64689e-22 0.00317472 -0.0103829
-0.0198179 1.35525e-20 0.00435132 0.0590799
0.0198183 0 0.00435153 -0.0103827
-0.0198553 1.35525e-20 0.0042445 0.0590761
0.0198557 2.71051e-20 0.00424476 -0.0103827
-0.0199718 1.8823e-22 0.00386197 0.0590615
0.0199721 6.2693e-38 0.0038621 -0.0103829
0.0204248 -2.25875e-21 0.000311566 -0.0103805
-0.0204248 -2.25875e-21 0.000311579 0.0591335
-0.02042 0 0.00146739 0.059054
0.0204201 2.71051e-20 0.00146739 -0.0103829
-0.0202842 2.71051e-20 0.00282334 0.05908
0.0202843 0 0.00282338 -0.0103826
-0.0199999 0 0.00444833 0.0590616
0.0200001 0 0.00444847 -0.010383
-0.0204142 -2.71051e-20 0.00196456 0.0591272
0.0204142 0 0.00196457 -0.0103824
0.0205235 -1.35525e-20 4.55491e-15 -0.0103807
-0.0205235 0 4.54657e-15 0.0591236
-0.0200605 0 0.00448064 0.0590559
0.0200609 0 0.00448086 -0.010383
-0.0202767 2.71051e-20 0.00350287 0.0590764
0.0202769 0 0.00350296 -0.0103827
-0.0201022 -3.38813e-21 0.00441312 0.0590525
0.0201026 0 0.00441316 -0.0103831
-0.0201274 1.35525e-20 0.00451629 0.0590668
0.020128 -6.77626e-21 0.00451661 -0.0103829
-0.0202113 3.01167e-21 0.00425304 0.0590425
0.0202117 3.01167e-21 0.00425325 -0.0103833
-0.0206612 4.03349e-22 0.000857173 0.0591019
0.0206612 -1.6134e-21 0.000857148 -0.0103818
0.0206906 0 1.34853e-15 -0.0103812
-0.0206907 -1.35525e-20 1.33611e-15 0.0591009
-0.020629 -1.35525e-20 0.00169533 0.0591024
0.0206291 1.35525e-20 0.00169533 -0.0103824
-0.0206304 -5.64689e-22 0.00244032 0.0591098
0.0206304 0 0.00244033 -0.0103823
-0.0205957 5.64689e-22 0.00315757 0.0590947
0.0205958 -5.64689e-22 0.00315762 -0.0103824
-0.0203417 1.35525e-20 0.00463048 0.0590744
0.0203423 1.35525e-20 0.00463076 -0.0103827
-0.0208463 -2.71051e-20 0.00142107 0.0591194
0.0208463 0 0.00142105 -0.0103822
-0.0203947 -2.71051e-20 0.00457337 0.059077
0.0203952 0 0.00457368 -0.0103827
-0.0205529 -2.25875e-21 0.00387353 0.0590861
0.0205531 -2.25875e-21 0.00387367 -0.0103825
-0.0208258 5.42101e-20 0.00194373 0.0591045
0.0208259 -2.71051e-20 0.00194374 -0.0103822
0.0209524 0 4.20741e-16 -0.0103811
-0.0209524 -8.47033e-21 4.14861e-16 0.0590795
-0.0209675 -2.5411e-21 0.000105966 0.0590781
0.0209676 0 0.000106769 -0.0103811
-0.0209754 -1.18585e-20 2.17868e-16 0.0590786
0.0209755 0 2.20894e-16 -0.0103811
-0.0204458 0 0.00468592 0.059082
0.0204463 0 0.00468616 -0.0103827
0.020982 0 0.000349578 -0.0103811
-0.020982 1.69407e-21 0.000349595 0.0590843
-0.0206056 0 0.00432294 0.0590861
0.020606 3.38813e-22 0.00432311 -0.0103825
-0.0209339 0 0.00277546 0.0591175
0.020934 2.71051e-20 0.00277549 -0.0103821
-0.0206248 6.77626e-21 0.0047813 0.059092
0.0206252 6.77626e-21 0.00478146 -0.0103825
-0.0208973 0 0.00349614 0.0591064
0.0208974 0 0.00349621 -0.0103823
-0.0212499 1.35525e-20 -3.23245e-16 0.0590953
0.02125 0 -3.25657e-16 -0.0103819
-0.0207397 -6.77626e-21 0.00484247 0.0590978
0.0207403 0 0.00484278 -0.0103824
-0.0207849 4.51751e-21 0.00466272 0.0590978
0.0207853 0 0.00466297 -0.0103824
-0.020919 -2.71051e-20 0.00411646 0.0590986
0.0209192 0 0.00411659 -0.0103824
0.0212542 8.47033e-22 0.00168692 -0.0103819
-0.0212542 1.12938e-21 0.00168692 0.0591261
-0.0213183 -5.27043e-21 0.00090011 0.059115
0.0213184 3.76459e-21 0.000900084 -0.0103819
-0.0213459 2.71051e-20 0.000121878 0.0590937
0.0213461 0 0.000122078 -0.0103821
-0.0213547 -1.35525e-20 6.62743e-17 0.0590934
0.0213549 1.35525e-20 6.75068e-17 -0.0103821
-0.0212894 -1.12938e-21 0.00229421 0.0591202
0.0212894 -2.25875e-21 0.00229423 -0.0103819
-0.0214253 1.35525e-20 -2.81409e-16 0.0591066
0.0214256 4.06576e-20 -2.82555e-16 -0.0103821
-0.0212264 -1.35525e-21 0.00310843 0.059117
0.0212264 9.03502e-22 0.00310848 -0.010382
-0.0209343 1.35525e-20 0.00494614 0.059107
0.0209347 0 0.00494637 -0.0103823
-0.0212106 1.12938e-21 0.00381734 0.0591145
0.0212108 -1.12938e-21 0.00381742 -0.0103821
-0.0215706 0 0.000127244 0.0591204
0.0215712 1.35525e-20 0.00012747 -0.0103818
-0.0216062 1.35525e-20 1.82017e-16 0.0591227
0.0216069 1.35525e-20 1.81754e-16 -0.0103817
-0.0210472 -1.35525e-20 0.00500632 0.0591542
0.0210476 -1.35525e-20 0.00500653 -0.0103818
-0.0210903 -2.71051e-20 0.00488671 0.059146
0.0210906 -2.71051e-20 0.00488695 -0.0103818
-0.0212076 -1.8823e-21 0.00450561 0.0591164
0.0212079 -1.8823e-21 0.00450575 -0.0103821
-0.0215471 -5.42101e-20 0.0027678 0.059118
0.0215471 0 0.00276782 -0.0103818
-0.0215274 2.71051e-20 0.00347138 0.0591252
0.0215275 -2.71051e-20 0.00347142 -0.0103818
-0.0212498 3.38813e-21 0.00511424 0.0591205
0.0212501 3.38813e-21 0.00511439 -0.0103822
-0.0212808 0 0.00513076 0.0591158
0.0212812 0 0.00513096 -0.0103822
-0.0213035 6.77626e-21 0.00509491 0.0591125
0.0213039 -3.38813e-21 0.00509497 -0.0103823
-0.0215161 2.71051e-20 0.00414681 0.0591286
0.0215163 2.71051e-20 0.00414691 -0.0103818
-0.0213152 -6.77626e-21 0.00514909 0.0591237
0.0213157 0 0.00514937 -0.0103821
-0.0219058 -5.42101e-20 0.001718 0.0591445
0.0219059 -5.42101e-20 0.001718 -0.0103815
-0.0214404 9.03502e-21 0.00489762 0.0590907
0.0214407 -3.01167e-21 0.00489781 -0.0103825
-0.0218827 -8.47033e-22 0.00243261 0.0591408
0.0218827 -4.94103e-22 0.00243267 -0.0103815
-0.0220244 0 0.000514819 0.0591553
0.0220245 0 0.000514821 -0.0103815
-0.0218548 0 0.00311109 0.0591305
0.0218549 5.64689e-22 0.00311111 -0.0103815
-0.0218321 -1.12938e-21 0.00380917 0.0591292
0.0218322 -3.38813e-21 0.00380923 -0.0103816
-0.0215576 1.35525e-20 0.00527824 0.0591326
0.0215581 1.35525e-20 0.00527848 -0.0103819
-0.021618 0 0.00521392 0.0591358
0.0216184 0 0.00521418 -0.0103819
-0.0217926 -2.25875e-21 0.00451282 0.0591388
0.0217928 2.25875e-21 0.00451296 -0.0103817
-0.0216748 2.71051e-20 0.00534064 0.0591458
0.0216752 2.71051e-20 0.00534085 -0.0103818
-0.0221927 2.71051e-20 0.00274698 0.0591628
0.0221928 0 0.00274698 -0.0103811
-0.0218358 -2.25875e-22 0.0049689 0.0591455
0.0218361 -2.25875e-22 0.00496905 -0.0103817
-0.0221555 0 0.0034489 0.0591173
0.0221556 2.71051e-20 0.00344893 -0.0103814
0.0224999 4.06576e-20 2.20686e-16 -0.0103812
-0.0224999 2.71051e-20 2.2102e-16 0.0591711
0.0224999 2.71051e-20 0.000132825 -0.0103812
-0.0224999 0 0.0001328 0.0591707
-0.0221425 0 0.00413734 0.059145
0.0221426 2.71051e-20 0.00413741 -0.0103815
-0.0218748 -6.77626e-21 0.00544721 0.0591598
0.0218751 1.01644e-20 0.00544736 -0.0103816
-0.0225913 0 0.00111535 0.0591699
0.0225913 0 0.00111535 -0.010381
-0.0219453 1.69407e-20 0.00548473 0.0591647
0.0219458 1.69407e-20 0.00548498 -0.0103816
-0.0220187 9.03502e-21 0.00530677 0.0591644
0.0220191 0 0.00530698 -0.0103815
-0.0221556 0 0.00476086 0.0591566
0.0221558 -2.71051e-20 0.00476098 -0.0103815
-0.0226679 0 -7.77359e-18 0.059172
0.022668 2.71051e-20 -7.82958e-18 -0.010381
-0.0225574 -1.12938e-21 0.00228407 0.0591677
0.0225574 -2.25875e-21 0.00228407 -0.010381
-0.0224843 1.41172e-22 0.00307679 0.0591601
0.0224843 -1.12938e-21 0.00307682 -0.0103811
0.0224598 -4.23516e-22 0.00375133 -0.0103812
-0.02246 1.27055e-21 0.00375126 0.0591583
0.0225 -4.23516e-22 0.00363437 -0.0103811
-0.0225 0 0.00363507 0.0591602
-0.0225048 0 0.00375028 0.0591603
0.0225052 4.23516e-22 0.00374488 -0.0103811
-0.0225 4.23516e-22 0.00378721 0.0591606
0.0225001 0 0.00378754 -0.0103811
-0.0228181 2.71051e-20 0.000138892 0.05918
0.0228182 0 0.000138937 -0.0103809
-0.0228294 -2.71051e-20 -4.78752e-18 0.0591805
0.0228295 -2.71051e-20 -4.81473e-18 -0.0103809
-0.0221583 1.35525e-20 0.00559821 0.0591807
0.0221587 -1.35525e-20 0.00559841 -0.0103815
-0.0225496 3.38813e-21 0.00374903 0.0591629
0.02255 0 0.00374908 -0.0103811
-0.0224518 -2.25875e-21 0.00446274 0.0591676
0.022452 1.12938e-21 0.00446282 -0.0103812
-0.0222812 1.35525e-20 0.00566371 0.0592593
0.0222816 -2.71051e-20 0.00566387 -0.0103809
-0.0223282 -1.35525e-20 0.00553398 0.0592432
0.0223285 1.35525e-20 0.00553418 -0.0103809
-0.0224429 -4.89397e-21 0.00515541 0.0591864
0.0224431 1.8823e-21 0.00515553 -0.0103813
-0.0229083 0 0.00284898 0.0591727
0.0229083 2.71051e-20 0.00284898 -0.0103811
-0.0227694 0 0.0041284 0.0591804
0.0227695 0 0.00412845 -0.0103809
-0.022907 -5.42101e-20 0.00330614 0.059198
0.0229071 5.42101e-20 0.00330617 -0.0103808
-0.0224999 -8.47033e-22 0.00578016 0.0592005
0.0225001 0 0.00578025 -0.0103813
-0.022509 0 0.00578499 0.0591984
0.0225093 0 0.00578515 -0.0103814
-0.0225157 0 0.00577432 0.0591967
0.0225161 0 0.00577434 -0.0103814
-0.0225192 5.0822e-21 0.00579044 0.0592017
-0.0231858 0 0.00175337 0.0591876
0.0231858 5.42101e-20 0.00175337 -0.0103805
-0.0232455 0 0.000558691 0.0591926
0.0225196 -1.01644e-20 0.00579066 -0.0103813
0.0232455 5.42101e-20 0.000558707 -0.0103805
-0.0227557 2.71051e-20 0.00479293 0.0591882
0.0227559 -2.71051e-20 0.00479302 -0.0103811
-0.0231485 -1.97641e-21 0.00241746 0.059191
0.0231485 -1.12938e-21 0.00241748 -0.0103806
-0.0231146 0 0.0030752 0.0591945
0.0231146 1.35525e-20 0.00307521 -0.0103806
-0.0226733 6.02335e-21 0.00554788 0.0591552
0.0226736 1.50584e-21 0.00554803 -0.0103817
-0.023097 -1.50584e-21 0.00377993 0.059193
0.023097 -1.50584e-21 0.00377994 -0.0103806
-0.0230771 -2.25875e-21 0.00445731 0.0591932
0.0230772 -1.12938e-21 0.00445735 -0.0103808
-0.0233412 0 0.00284258 0.0592024
0.0233413 -2.71051e-20 0.00284259 -0.0103804
-0.023307 -2.71051e-20 0.00329648 0.0591962
0.023307 2.71051e-20 0.0032965 -0.0103804
-0.0227839 0 0.00593173 0.0592119
0.0227842 0 0.00593191 -0.0103811
-0.0228491 0 0.00586239 0.0592156
0.0228494 1.35525e-20 0.00586258 -0.010381
-0.023032 4.51751e-21 0.00515826 0.059214
0.0230322 4.51751e-21 0.00515836 -0.0103809
-0.0229106 0 0.00599952 0.0592337
0.0229109 2.71051e-20 0.00599968 -0.010381
-0.02307 -4.51751e-22 0.00562146 0.0592297
0.0230702 9.03502e-22 0.00562158 -0.0103809
0.0237499 0 -2.50024e-18 -0.0103802
-0.02375 0 -2.47802e-18 0.0592101
0.02375 1.35525e-20 0.000111019 -0.0103802
-0.02375 1.35525e-20 0.000110975 0.05921
-0.0234167 2.71051e-20 0.00409117 0.0591925
0.0234167 -2.71051e-20 0.00409119 -0.0103805
-0.023377 0 0.00479103 0.0592121
0.0233771 2.71051e-20 0.00479109 -0.0103806
-0.0238361 2.25875e-21 0.00114849 0.0592103
0.0238362 4.51751e-21 0.00114849 -0.0103801
-0.0238811 0 -1.06983e-19 0.0592146
0.0238811 0 -1.07038e-19 -0.0103801
-0.0231249 0 0.00611529 0.0592527
0.0231251 -6.77626e-21 0.00611542 -0.0103808
-0.0238207 1.12938e-21 0.00236088 0.059211
0.0238207 2.25875e-21 0.00236089 -0.01038
-0.0237499 -3.89635e-20 0.00306542 0.0592116
0.02375 0 0.00306543 -0.0103801
-0.0231675 2.71051e-20 0.00613811 0.0592569
0.0231678 -1.01644e-20 0.00613829 -0.0103808
-0.0239958 0 0.000113669 0.059218
0.0239958 1.35525e-20 0.000113694 -0.01038
-0.0240047 0 8.61625e-21 0.0592184
0.0240047 0 8.53205e-21 -0.01038
-0.0232579 -4.51751e-21 0.00596069 0.0592554
0.0232581 0 0.00596085 -0.0103807
-0.0233938 -2.71051e-20 0.00541135 0.0592463
0.023394 2.71051e-20 0.00541144 -0.0103806
-0.0237524 -1.12938e-21 0.00364844 0.0592077
0.0237525 -2.16464e-21 0.00364847 -0.0103801
-0.0237062 0 0.00443801 0.0592137
0.0237062 1.12938e-21 0.00443804 -0.0103802
-0.0233932 1.35525e-20 0.00626089 0.0592849
0.0233933 0 0.00626103 -0.0103807
-0.0236906 1.12938e-21 0.00510847 0.0592421
0.0236907 -1.12938e-21 0.00510853 -0.0103804
-0.0235126 -2.03288e-20 0.00635102 0.0594097
0.0235127 0 0.00635113 -0.0103798
-0.0235682 2.71051e-20 0.0062058 0.0593781
0.0235683 -2.71051e-20 0.00620594 -0.0103799
-0.0240297 0 0.00408462 0.0592175
0.0240297 2.71051e-20 0.00408465 -0.0103799
-0.0236813 0 0.00581872 0.0592863
0.0236814 3.76459e-22 0.0058188 -0.0103804
-0.0240098 5.42101e-20 0.00476744 0.0592327
0.0240099 0 0.00476747 -0.0103801
-0.0244726 0 0.000579721 0.0592341
0.0244727 5.42101e-20 0.00057972 -0.0103797
-0.0244408 0 0.0017663 0.0592267
0.0244408 5.42101e-20 0.00176631 -0.0103796
-0.0236696 -3.38813e-21 0.00645563 0.0593505
0.0236698 0 0.00645575 -0.0103803
-0.0237096 0 0.00644182 0.0593331
0.0237098 -3.38813e-21 0.00644193 -0.0103804
-0.0237098 -3.38813e-21 0.00648356 0.0593157
0.02371 0 0.00648366 -0.0103805
-0.0243888 0 0.00306489 0.0592244
0.0243888 0 0.0030649 -0.0103796
-0.0239955 0 0.00544039 0.059276
0.0239956 0 0.00544045 -0.0103802
-0.0237499 -1.35525e-20 0.00643519 0.0593166
0.0237501 0 0.0064353 -0.0103805
-0.0237499 3.38813e-21 0.0064761 0.0593164
0.0237501 0 0.0064762 -0.0103805
-0.0237499 0 0.006513 0.0593159
0.0237501 0 0.00651309 -0.0103805
-0.0243624 4.51751e-22 0.00373226 0.0592334
0.0243624 -1.12938e-22 0.00373228 -0.0103797
-0.0239087 9.03502e-21 0.00623548 0.0592537
0.0239088 9.03502e-21 0.00623556 -0.010381
-0.0243381 -3.38813e-21 0.00441605 0.0592437
0.0243382 2.25875e-21 0.00441607 -0.0103798
-0.0239122 2.71051e-20 0.00663214 0.0593232
0.0239123 2.71051e-20 0.00663222 -0.0103804
-0.0243154 4.51751e-21 0.00509819 0.0592694
0.0243154 -2.25875e-21 0.00509822 -0.0103799
-0.0240421 1.35525e-20 0.00655998 0.0593311
0.0240423 -1.35525e-20 0.00656006 -0.0103803
-0.0240313 -1.35525e-20 0.00671945 0.0593407
0.0240314 -1.35525e-20 0.00671952 -0.0103804
-0.0242743 9.03502e-21 0.00580724 0.0593125
0.0242743 -6.77626e-21 0.00580731 -0.0103801
0.025 -1.35525e-20 -7.24116e-20 -0.0103792
-0.025 0 -7.24266e-20 0.0592529
0.025 -1.35525e-20 8.97242e-05 -0.0103792
-0.025 -1.35525e-20 8.97024e-05 0.0592529
-0.0246754 2.71051e-20 0.00405937 0.0592556
0.0246754 -2.71051e-20 0.00405938 -0.0103796
-0.0241475 0 0.00680428 0.0594457
0.0241476 1.35525e-20 0.00680434 -0.0103796
-0.0246399 0 0.0047433 0.0592691
0.02464 0 0.00474333 -0.0103796
-0.0250975 0 1.27835e-20 0.0592564
0.0250975 1.35525e-20 1.27788e-20 -0.0103792
-0.0250714 -2.25875e-21 0.00116098 0.0592528
0.0250714 -2.25875e-21 0.00116098 -0.0103791
-0.0241989 0 0.00668135 0.0594211
0.024199 0 0.00668141 -0.0103797
-0.0250417 0 0.00239863 0.0592473
0.0250417 -2.25875e-21 0.00239864 -0.0103791