# pMean  POINT_DATA 14923
# x  y  z  pMean
1.35525e-20 -0.014142 8.4025e-08 0.0565288
-1.35525e-20 0.014142 8.4025e-08 -0.0103942
0 -0.014142 0.000246012 0.056526
-6.77626e-21 0.014142 0.000246009 -0.0103941
-1.69407e-20 -0.014142 0.000413826 0.0565267
6.77626e-21 0.014142 0.00041383 -0.0103946
-1.35525e-20 -0.014142 0.000659755 0.0565317
-1.35525e-20 0.014142 0.000659755 -0.010396
0 0.014142 0.000918785 -0.010396
3.38813e-21 -0.014142 0.000918783 0.0565221
1.35525e-20 0.014142 0.00109555 -0.0103969
3.38813e-21 -0.014142 0.00109556 0.0565231
1.35525e-20 0.014142 0.00135458 -0.0103992
0 -0.014142 0.00135458 0.0565353
0 0.014142 0.00162762 -0.0103992
-6.77626e-21 -0.014142 0.00162761 0.0565252
0 -0.014253 0.00012398 0.056522
0 0.014253 0.000123977 -0.0103942
0 -0.0142541 8.84505e-08 0.0565221
-1.35525e-20 0.0142541 8.84502e-08 -0.0103942
-3.38813e-21 0.014142 0.00181395 -0.0103988
-6.77626e-21 -0.014142 0.00181396 0.0565246
0 -0.014253 0.000533539 0.0565238
0 0.014253 0.000533544 -0.0103954
0 0.0142487 0.00077903 -0.0103961
0 -0.0142487 0.000779034 0.0565215
-1.35525e-20 0.014142 0.002087 -0.010398
1.35525e-20 -0.014142 0.002087 0.0565327
-1.35525e-20 0.0142487 0.00120328 -0.0103981
1.35525e-20 -0.0142487 0.00120328 0.0565237
0 0.014243 0.00144974 -0.0103993
1.35525e-20 -0.014243 0.00144974 0.0565249
0 0.014243 0.00188498 -0.0103985
1.35525e-20 -0.014243 0.00188498 0.0565235
-2.71051e-20 -0.014375 9.00163e-08 0.0565169
1.35525e-20 0.014375 9.00164e-08 -0.0103947
1.35525e-20 0.014375 0.0006466 -0.0103961
-2.71051e-20 -0.014375 0.0006466 0.0565199
-6.77626e-21 0.0142627 0.00213224 -0.0103971
-6.77626e-21 -0.0142627 0.00213225 0.056529
0 0.0142992 0.00204049 -0.0103974
1.35525e-20 -0.0142992 0.00204049 0.0565267
0 0.014391 0.00158911 -0.0104009
0 -0.014391 0.00158911 0.0565251
-6.77626e-21 -0.014375 0.00187841 0.0565226
0 0.014375 0.0018784 -0.0103986
0 0.0144892 0.000865926 -0.0103983
5.42101e-21 -0.0144892 0.000865928 0.0565229
0 0.0144694 0.00125569 -0.0103993
-4.51751e-21 -0.0144694 0.0012557 0.056523
1.35525e-20 0.014375 0.00217431 -0.0103975
2.71051e-20 -0.014375 0.00217431 0.0565202
-2.25875e-21 -0.0145461 0.000325602 0.0565112
-2.25875e-21 0.0145461 0.000325595 -0.010395
2.71051e-20 -0.0145532 9.53759e-08 0.0565108
1.35525e-20 0.0145533 9.53758e-08 -0.0103949
2.71051e-20 0.0145143 0.00222654 -0.0103969
0 -0.0145144 0.00222654 0.0565096
-1.93608e-21 0.0146051 0.00164978 -0.0103998
1.35525e-20 -0.0146051 0.00164978 0.0565154
-2.82344e-22 -0.014583 0.00195698 0.0565064
-1.41172e-22 0.0145828 0.00195868 -0.0103971
0 -0.0147323 1.05322e-07 0.0564982
0 0.0147324 1.05321e-07 -0.010395
-2.25875e-21 0.014715 0.000923757 -0.0103986
-4.51751e-21 -0.014715 0.000923762 0.0565119
-2.71051e-20 0.0145865 0.0022536 -0.0103972
0 -0.0145866 0.00225361 0.0565081
-2.25875e-21 0.0146936 0.00145601 -0.0104021
2.25875e-21 -0.0146936 0.00145601 0.0565182
1.35525e-20 -0.0148202 0.000134139 0.0564931
1.35525e-20 0.0148203 0.000134125 -0.0103954
-1.35525e-20 -0.0148273 9.52379e-08 0.0564928
0 0.0148274 9.52384e-08 -0.0103954
-1.35525e-20 -0.0148725 9.04366e-08 0.0564905
1.35525e-20 0.0148726 9.04378e-08 -0.0103946
6.45358e-21 -0.01487 0.000655521 0.0564873
3.22679e-21 0.01487 0.000655519 -0.0103946
1.00389e-21 0.014845 0.00120712 -0.0103961
-7.27821e-21 -0.014845 0.00120713 0.0564889
0 0.0147312 0.00230781 -0.0103968
0 -0.0147313 0.00230783 0.0564989
3.01167e-21 0.0148274 0.00162659 -0.0103978
-6.02335e-21 -0.0148274 0.0016266 0.0564881
1.35525e-20 -0.015 7.90261e-08 0.0564826
-1.35525e-20 0.015 7.90279e-08 -0.0103939
-1.35525e-20 -0.015 0.000133974 0.0564825
-2.71051e-20 0.015 0.000133967 -0.0103939
-3.76459e-22 0.0149713 0.00204049 -0.010397
1.50584e-21 -0.0149714 0.0020405 0.0564837
-3.38813e-21 -0.015 0.00225359 0.0564851
-1.69407e-21 0.015 0.0022537 -0.0103969
-3.38813e-21 -0.015 0.00240853 0.0564847
3.38813e-21 0.015 0.00240854 -0.0103967
2.37169e-20 0.0150362 0.00242211 -0.0103967
0 -0.0150362 0.00242211 0.056483
1.35525e-20 -0.0152271 0.000388227 0.0564694
1.35525e-20 0.0152271 0.000388232 -0.0103933
-4.51751e-21 0.0152249 0.000912209 -0.0103927
9.03502e-21 -0.0152249 0.000912211 0.0564665
4.51751e-21 0.0151957 0.00150814 -0.0103967
0 -0.0151957 0.00150814 0.0564712
-3.38813e-21 0.015119 0.00245307 -0.0103965
3.38813e-21 -0.015119 0.0024531 0.0564658
0 0.0153316 0.000145214 -0.0103934
1.35525e-20 -0.0153316 0.000145203 0.0564649
1.35525e-20 0.0153419 1.97572e-08 -0.0103935
0 -0.015342 1.97541e-08 0.0564644
0 -0.0154304 0.000610593 0.0564604
2.71051e-20 0.0154304 0.000610592 -0.0103923
2.71051e-20 -0.0154185 0.00121382 0.0564602
2.71051e-20 0.0154185 0.00121382 -0.0103928
1.35525e-20 0.0154797 7.97399e-09 -0.0103932
0 -0.0154798 7.9711e-09 0.0564588
-1.35525e-20 0.0152769 0.00251208 -0.010396
0 -0.0152769 0.0025121 0.0564406
-5.42101e-20 0.0153758 0.00187005 -0.0103957
-2.71051e-20 -0.0153758 0.00187006 0.0564661
-6.77626e-21 0.0153108 0.00239814 -0.0103963
0 -0.0153108 0.00239814 0.0564355
-4.51751e-21 -0.0153783 0.00228563 0.0564398
-1.12938e-21 0.0153783 0.00228563 -0.0103963
-1.35525e-20 0.015625 7.21206e-09 -0.0103924
0 -0.015625 7.20961e-09 0.056452
0 -0.015625 0.000148496 0.056452
-1.35525e-20 0.015625 0.0001485 -0.0103923
-1.35525e-20 -0.0154657 0.00258282 0.0564608
0 0.0154657 0.00258282 -0.010395
4.51751e-21 0.0157806 0.00040103 -0.010391
4.51751e-21 -0.0157806 0.000401034 0.0564439
2.25875e-21 -0.0157685 0.000915143 0.0564455
0 0.0157685 0.000915143 -0.0103906
1.12938e-20 -0.0157412 0.00155218 0.0564471
-2.25875e-21 0.0157412 0.00155219 -0.0103925
0 -0.0156535 0.0023135 0.0564521
-8.47033e-22 0.0156535 0.00231351 -0.0103954
1.35525e-20 0.0156249 0.00255355 -0.0103942
1.35525e-20 -0.0156249 0.00255354 0.0564524
6.77626e-21 0.0156249 0.0026425 -0.0103937
-6.77626e-21 -0.0156249 0.00264251 0.0564519
-1.35525e-20 -0.0157486 0.00207232 0.0564495
0 0.0157486 0.00207233 -0.0103957
1.35525e-20 0.01594 0.000153358 -0.0103905
1.35525e-20 -0.01594 0.000153357 0.0564363
0 0.0159518 6.42218e-09 -0.0103905
-2.71051e-20 -0.0159518 6.42129e-09 0.0564357
2.71051e-20 -0.0157578 0.00269219 0.0564448
2.71051e-20 0.0157578 0.00269219 -0.0103927
-1.35525e-20 -0.0157996 0.0025293 0.0564496
1.35525e-20 0.0157996 0.00252931 -0.0103936
-1.35525e-20 -0.0161003 5.64387e-09 0.0564282
1.35525e-20 0.0161003 5.64434e-09 -0.0103899
0 -0.0160445 0.00191468 0.0564316
0 0.0160445 0.0019147 -0.0103932
0 -0.0159573 0.00276704 0.0564368
0 0.0159573 0.00276704 -0.0103923
1.16165e-20 0.0161556 0.00116841 -0.0103901
-1.54886e-20 -0.0161556 0.00116841 0.0564238
-9.03502e-21 -0.0161993 0.000607818 0.0564226
-4.51751e-21 0.0161993 0.000607817 -0.0103893
-2.25875e-21 -0.0160484 0.0023249 0.0564306
-4.51751e-21 0.0160484 0.00232494 -0.0103932
1.35525e-20 -0.01625 4.91522e-09 0.0564212
2.71051e-20 0.01625 4.91559e-09 -0.0103893
1.35525e-20 -0.01625 0.000141091 0.0564212
0 0.01625 0.000141095 -0.0103893
-9.03502e-21 -0.0162996 0.00156705 0.0564204
4.51751e-21 0.0162996 0.00156705 -0.0103906
-2.71051e-20 0.0164196 0.000304857 -0.0103887
0 -0.0164196 0.000304857 0.0564134
0 0.0164158 0.000921443 -0.0103886
0 -0.0164158 0.000921442 0.0564143
-1.89735e-20 -0.0163183 0.00211157 0.0564185
2.71051e-21 0.0163183 0.00211158 -0.0103919
-1.35525e-20 0.0162498 0.00287804 -0.0103903
2.37169e-20 -0.0162499 0.00287808 0.0564223
6.77626e-21 -0.016295 0.00289505 0.0564201
-1.01644e-20 0.0162953 0.00289514 -0.0103901
1.12938e-20 -0.0163566 0.00265265 0.0564174
-4.51751e-21 0.0163567 0.00265268 -0.0103908
-1.35525e-20 0.0165943 2.17699e-09 -0.0103881
1.35525e-20 -0.0165943 2.17678e-09 0.0564044
1.35525e-20 0.0165961 0.000135303 -0.0103881
0 -0.0165961 0.000135298 0.0564043
1.35525e-20 -0.0167375 1.46118e-09 0.0563968
-1.35525e-20 0.0167375 1.4613e-09 -0.0103877
9.03502e-21 0.0167397 0.000605527 -0.0103878
2.25875e-21 -0.0167397 0.000605529 0.0563967
0 -0.0167333 0.00124398 0.056397
-6.77626e-21 0.0167333 0.00124398 -0.0103885
2.25875e-21 -0.0167335 0.00188821 0.0563976
6.77626e-21 0.0167335 0.00188822 -0.01039
2.71051e-20 -0.0165883 0.00300631 0.0564057
2.71051e-20 0.0165884 0.00300634 -0.01039
0 -0.016875 1.28939e-09 0.0563897
0 0.016875 1.28948e-09 -0.0103872
0 -0.016875 0.000125695 0.0563897
-1.35525e-20 0.016875 0.000125698 -0.0103872
-4.51751e-21 -0.0167209 0.00239031 0.0563991
-9.03502e-21 0.016721 0.00239038 -0.0103905
-2.71051e-20 0.017064 0.000300536 -0.0103865
0 -0.017064 0.000300536 0.05638
-6.77626e-21 -0.0168116 0.00309149 0.0563984
6.77626e-21 0.0168118 0.00309158 -0.0103894
0 0.0170693 0.000918164 -0.0103872
2.71051e-20 -0.0170693 0.000918164 0.0563785
0 0.0170657 0.00156933 -0.0103883
-5.42101e-20 -0.0170657 0.00156932 0.0563786
0 0.0168748 0.00300443 -0.0103894
3.38813e-21 -0.016875 0.0030038 0.0563959
6.77626e-21 0.0168748 0.00311544 -0.0103894
3.38813e-21 -0.0168751 0.00311552 0.0563945
2.25875e-21 -0.0169659 0.00280947 0.0563902
-4.51751e-21 0.016966 0.00280951 -0.0103897
2.71051e-20 -0.0170634 0.00223057 0.0563823
0 0.0170635 0.00223059 -0.0103897
-1.35525e-20 0.0172527 5.17858e-10 -0.0103859
0 -0.0172527 5.17805e-10 0.0563706
0 0.0172566 0.000116566 -0.0103859
1.35525e-20 -0.0172566 0.000116563 0.0563705
0 -0.0173799 3.52927e-10 0.0563647
1.35525e-20 0.0173799 3.52962e-10 -0.0103856
0 -0.0170862 0.00319594 0.0563796
2.71051e-20 0.0170864 0.00319602 -0.0103896
-2.25875e-21 0.0173907 0.00059721 -0.0103859
0 -0.0173907 0.000597212 0.0563636
0 0.0173953 0.00123436 -0.0103867
0 -0.0173953 0.00123436 0.0563633
-4.51751e-21 -0.0173902 0.00191068 0.0563635
6.77626e-21 0.0173903 0.00191069 -0.0103879
-1.35525e-20 -0.0175 3.17172e-10 0.0563588
0 0.0175 3.17202e-10 -0.0103851
0 -0.0175 0.000105685 0.0563588
0 0.0175 0.000105687 -0.0103852
1.35525e-20 -0.0172465 0.00325641 0.0563376
2.03288e-20 0.0172466 0.00325643 -0.0103893
0 -0.0172976 0.00309008 0.0563426
-1.35525e-20 0.0172976 0.00309027 -0.0103895
3.76158e-37 -0.017428 0.00267359 0.0563583
2.25875e-21 0.017428 0.00267359 -0.0103891
0 -0.0177101 0.000293755 0.0563484
0 0.0177101 0.000293755 -0.0103845
0 0.0177219 0.000903839 -0.0103852
2.71051e-20 -0.0177219 0.000903839 0.0563468
1.69407e-21 -0.0174509 0.00333352 0.0563511
1.69407e-21 0.0174516 0.00333379 -0.010389
0 -0.0174774 0.00332287 0.0563531
1.69407e-21 0.0174776 0.00332332 -0.0103889
0 0.0177246 0.00155835 -0.0103861
2.71051e-20 -0.0177246 0.00155834 0.0563488
0 -0.0174819 0.00334524 0.0563555
0 0.0174821 0.0033453 -0.0103889
0 0.0174998 0.00332151 -0.0103889
0 -0.0174999 0.00332104 0.0563545
0 0.0174997 0.00334181 -0.0103888
1.69407e-21 -0.0174999 0.00334168 0.0563545
0 0.0174997 0.00335193 -0.0103888
0 -0.0174999 0.00335198 0.0563545
0 -0.0177108 0.00226099 0.0563437
2.71051e-20 0.0177108 0.00226103 -0.0103873
4.51751e-21 -0.0176353 0.00307333 0.0563644
-1.807e-20 0.0176354 0.00307341 -0.0103895
0 -0.0176459 0.00307764 0.0563651
-2.71051e-20 0.0176459 0.00307771 -0.0103895
0 0.0179213 8.77536e-11 -0.0103839
1.35525e-20 -0.0179213 8.77438e-11 0.0563371
0 0.0179252 9.30173e-05 -0.0103839
2.71051e-20 -0.0179252 9.30153e-05 0.0563369
0 -0.0180268 5.44536e-11 0.0563314
0 0.0180268 5.44591e-11 -0.0103837
2.25875e-21 0.0180409 0.00058155 -0.010384
1.12938e-20 -0.0180409 0.000581551 0.0563293
-2.25875e-21 -0.0180512 0.00121327 0.0563275
-3.38813e-21 0.0180512 0.00121327 -0.0103846
-2.71051e-20 -0.0177836 0.00345876 0.0563396
-1.35525e-20 0.0177837 0.00345884 -0.0103876
0 -0.0181253 4.99506e-11 0.0563259
0 0.0181253 4.99554e-11 -0.0103834
1.35525e-20 -0.0181254 8.3647e-05 0.0563259
0 0.0181254 8.3649e-05 -0.0103834
-1.12938e-21 -0.018044 0.00190351 0.0563277
-3.38813e-21 0.018044 0.00190353 -0.0103854
-2.71051e-20 -0.0178455 0.00338256 0.056337
0 0.0178456 0.00338271 -0.0103877
9.03502e-21 -0.0180105 0.00263587 0.056329
2.25875e-21 0.0180106 0.00263595 -0.0103872
0 -0.0179191 0.00350977 0.0563346
0 0.0179192 0.00350979 -0.0103873
1.35525e-21 -0.0180589 0.00311996 0.0563271
-1.35525e-21 0.018059 0.00312002 -0.0103878
-5.42101e-20 -0.0183552 0.000282486 0.0563136
-5.42101e-20 0.0183552 0.000282486 -0.0103828
2.71051e-20 0.0183704 0.000877818 -0.0103834
0 -0.0183704 0.000877817 0.0563082
2.71051e-20 -0.0183759 0.00153184 0.0563062
-2.71051e-20 0.018376 0.00153185 -0.0103837
1.35525e-20 0.0181249 0.00358718 -0.010386
0 -0.018125 0.00358724 0.0563277
0 -0.0183601 0.00224052 0.0563116
0 0.0183602 0.00224054 -0.0103842
1.35525e-20 -0.0182298 0.00362666 0.0563225
6.77626e-21 0.0182303 0.00362685 -0.0103857
0 0.0185903 1.14547e-11 -0.0103822
-6.77626e-21 -0.0185903 1.14538e-11 0.0563037
-1.35525e-20 0.0185922 7.01833e-05 -0.0103822
-1.35525e-20 -0.0185922 7.01798e-05 0.0563036
-9.03502e-21 -0.0182769 0.00344764 0.0563198
1.807e-20 0.018277 0.00344781 -0.0103863
2.71051e-20 -0.0183886 0.0028814 0.0563121
0 0.0183886 0.00288148 -0.0103869
0 -0.0186731 7.47945e-12 0.0563008
0 0.0186731 7.4798e-12 -0.010382
0 -0.0186856 0.000557203 0.0562967
-1.12938e-21 0.0186856 0.000557203 -0.0103823
-1.12938e-21 -0.0187004 0.00117602 0.0562963
1.12938e-21 0.0187004 0.00117602 -0.0103823
0 -0.01875 6.97661e-12 0.0562968
-2.03288e-20 0.01875 6.97695e-12 -0.0103818
0 -0.01875 6.37723e-05 0.0562968
1.35525e-20 0.01875 6.37728e-05 -0.0103818
2.25875e-21 -0.018696 0.00186471 0.0562978
2.25875e-21 0.018696 0.00186473 -0.0103825
-1.35525e-20 -0.0184505 0.00370969 0.0563082
2.71051e-20 0.0184507 0.00370979 -0.0103858
3.38813e-21 -0.018692 0.00255887 0.0562964
2.25875e-21 0.018692 0.00255892 -0.0103841
-4.06576e-20 -0.0185631 0.00375372 0.0562768
0 0.0185633 0.00375376 -0.0103854
0 -0.018598 0.00364592 0.0562804
1.35525e-20 0.018598 0.00364612 -0.0103856
-3.76459e-22 -0.0187012 0.00326209 0.0562943
1.12938e-21 0.0187012 0.00326214 -0.0103857
0 -0.0189931 0.000266634 0.0562865
0 0.0189931 0.000266631 -0.0103812
2.71051e-20 -0.0190119 0.00083882 0.0562787
0 0.0190119 0.000838822 -0.0103818
0 -0.0190241 0.00148402 0.056292
0 0.0190241 0.00148403 -0.0103804
-6.77626e-21 0.0187498 0.00382104 -0.0103853
-1.35525e-20 -0.0187499 0.00382109 0.0562904
-2.71051e-20 -0.0190146 0.00218766 0.0562824
5.42101e-20 0.0190147 0.00218769 -0.0103816
-6.77626e-21 -0.0188253 0.00385016 0.056296
0 0.0188256 0.00385027 -0.0103854
0 -0.0190104 0.00288303 0.0562798
2.71051e-20 0.0190105 0.00288309 -0.0103832
-6.77626e-21 -0.018869 0.00377278 0.0562996
0 0.0188695 0.00377247 -0.0103856
6.77626e-21 0.0192614 9.27756e-13 -0.0103803
0 -0.0192614 9.27688e-13 0.0562636
0 0.0192616 4.56754e-05 -0.0103803
0 -0.0192616 4.56687e-05 0.0562635
0 -0.0189593 0.0036316 0.0563069
7.52918e-21 0.0189594 0.00363172 -0.010386
1.35525e-20 -0.0189216 0.00388925 0.0562813
6.77626e-21 -0.0193175 5.50573e-13 0.0562589
0 0.0193175 5.5057e-13 -0.01038
-6.77626e-21 0.0189225 0.00388962 -0.0103849
0 -0.019323 0.000517724 0.0562659
0 0.019323 0.000517724 -0.0103797
0 -0.0193664 3.8562e-05 0.0562514
-6.77626e-21 0.0193665 3.85723e-05 -0.0103797
6.77626e-21 -0.0193681 5.31764e-13 0.0562517
6.77626e-21 0.0193682 5.31754e-13 -0.0103798
2.03288e-21 0.0193603 0.00110958 -0.0103791
-9.03502e-22 -0.0193603 0.00110958 0.05626
5.64689e-22 -0.0193496 0.00179959 0.056268
1.69407e-21 0.0193497 0.0017996 -0.0103792
1.12938e-21 -0.0193331 0.00252243 0.0562774
-2.25875e-21 0.0193332 0.00252246 -0.0103808
2.71051e-20 -0.0191251 0.00398458 0.0562701
0 0.0191255 0.00398476 -0.0103842
2.71051e-20 -0.0191698 0.00393531 0.0562684
0 0.01917 0.00393559 -0.0103843
-4.51751e-21 -0.0192999 0.00324536 0.0562669
-2.25875e-21 0.0193 0.00324549 -0.0103839
-2.71051e-20 -0.0196204 0.00023725 0.0562287
-2.71051e-20 0.0196204 0.000237252 -0.0103788
0 -0.0192179 0.00403218 0.0562674
0 0.019218 0.00403225 -0.0103842
0 -0.0196557 0.000771332 0.0562694
2.71051e-20 0.0196557 0.000771331 -0.0103774
-3.38813e-21 -0.019699 2.94695e-13 0.0562472
-3.38813e-21 0.0196992 2.94512e-13 -0.0103775
-4.51751e-22 -0.019364 0.0036912 0.0562594
4.51751e-22 0.0193642 0.00369132 -0.0103846
0 -0.0196876 0.00139268 0.0562065
0 0.0196876 0.00139268 -0.0103772
-2.71051e-20 -0.0196587 0.00213403 0.0562864
0 0.0196588 0.00213406 -0.0103775
1.35525e-20 0.0193748 0.00398188 -0.0103838
-1.35525e-20 -0.0193751 0.00398171 0.0562615
1.35525e-20 0.0193748 0.00411568 -0.0103834
-6.77626e-21 -0.0193751 0.00411583 0.0562623
-5.42101e-20 -0.0196509 0.00284941 0.0562618
2.71051e-20 0.0196509 0.00284946 -0.0103808
9.03502e-22 0.0199546 0.000463669 -0.0103753
2.25875e-21 -0.0199546 0.00046367 0.0562347
2.71051e-20 -0.0196743 0.00348115 0.0562444
2.71051e-20 0.0196743 0.00348125 -0.0103842
0 -0.0195407 0.00420391 0.0562546
-6.77626e-21 0.0195414 0.00420428 -0.010383
0 -0.0199999 3.09655e-13 0.0562379
6.77626e-21 -0.0199999 2.958e-05 0.0562379
-6.77626e-21 0.02 3.09366e-13 -0.0103757
0 0.02 2.95532e-05 -0.0103756
6.77626e-21 -0.02 0.000220921 0.0562368
3.38813e-21 0.02 0.00022081 -0.0103755
0 -0.0200415 5.23094e-14 0.0562368
0 0.0200415 5.22561e-14 -0.0103753
1.35525e-20 -0.0196489 0.00406133 0.0562485
1.0842e-20 0.0196492 0.00406167 -0.0103833
0 0.0200712 2.48757e-05 -0.0103753
0 -0.0200712 2.48981e-05 0.056237
0 0.0200746 3.09587e-14 -0.0103753
0 -0.0200747 3.09943e-14 0.0562369
0 0.0199955 0.0017906 -0.0103763
-4.23516e-22 -0.0199954 0.00179105 0.0562236
9.03502e-21 0.0200905 0.000960733 -0.0103754
-4.51751e-21 -0.0200905 0.000960726 0.0562283
4.84019e-22 -0.0200182 0.00244878 0.056219
-8.06698e-22 0.0200183 0.00244888 -0.0103781
-1.35525e-20 -0.0197164 0.0042974 0.056244
-2.71051e-20 0.0197167 0.00429758 -0.0103834
0 0.020182 1.06922e-14 -0.0103745
0 -0.0201821 1.07019e-14 0.0562237
-5.64689e-22 -0.019968 0.00317457 0.0562265
1.12938e-21 0.019968 0.00317464 -0.010381
1.35525e-20 -0.0198178 0.00435143 0.0562086
-1.35525e-20 0.0198179 0.00435149 -0.0103833
-1.35525e-20 -0.0198553 0.00424439 0.0562135
0 0.0198553 0.00424466 -0.0103833
7.52918e-22 -0.0199716 0.00386195 0.0562284
3.76459e-22 0.0199717 0.00386203 -0.0103832
2.25875e-21 -0.0204272 0.00031081 0.0561965
-2.25875e-21 0.0204272 0.000310799 -0.0103703
2.71051e-20 -0.0204209 0.00146754 0.05625
-2.71051e-20 0.0204209 0.00146753 -0.0103732
-2.71051e-20 -0.0202842 0.00282336 0.0561868
0 0.0202843 0.00282341 -0.0103778
6.77626e-21 0.0199999 0.00444852 -0.0103832
6.77626e-21 -0.0200001 0.00444866 0.0562277
-2.71051e-20 -0.0204145 0.00196506 0.0561427
0 0.0204145 0.00196508 -0.0103746
1.35525e-20 0.020525 4.12258e-15 -0.0103711
2.71051e-20 -0.0205251 4.1176e-15 0.0561896
6.77626e-21 -0.0200603 0.00448072 0.0562344
0 0.0200605 0.00448086 -0.0103833
2.71051e-20 -0.0202766 0.00350283 0.056211
0 0.0202767 0.00350292 -0.0103809
3.38813e-21 -0.0201017 0.00441369 0.0562392
3.38813e-21 0.0201022 0.00441328 -0.0103834
-6.77626e-21 -0.0201267 0.00451611 0.056221
6.77626e-21 0.0201275 0.00451657 -0.010383
3.01167e-21 -0.0202112 0.00425305 0.0562516
-4.51751e-21 0.0202113 0.00425322 -0.0103838
1.6134e-22 -0.0206625 0.000857339 0.0561787
7.26028e-22 0.0206626 0.00085731 -0.0103721
-1.35525e-20 0.0206911 7.74573e-16 -0.010372
0 -0.0206911 7.64323e-16 0.0561727
-1.35525e-20 -0.0206295 0.00169559 0.0561933
-1.35525e-20 0.0206296 0.00169559 -0.0103731
1.41172e-21 -0.0206304 0.00244038 0.0561684
-4.23516e-22 0.0206304 0.0024404 -0.010376
0 -0.0205956 0.00315757 0.0561872
0 0.0205957 0.00315762 -0.0103786
0 -0.0203415 0.00463057 0.0562086
-1.35525e-20 0.0203419 0.00463079 -0.0103825
0 -0.0208473 0.00142111 0.0561992
0 0.0208474 0.00142109 -0.010371
2.71051e-20 -0.0203946 0.00457335 0.0562065
2.71051e-20 0.0203949 0.0045737 -0.0103826
2.25875e-21 -0.0205528 0.00387349 0.0561977
0 0.0205529 0.00387366 -0.0103818
0 -0.0208263 0.00194408 0.0561827
0 0.0208263 0.0019441 -0.0103728
6.77626e-21 0.020952 1.83096e-16 -0.0103711
0 -0.0209522 1.78175e-16 0.0561217
0 -0.0209679 0.000111585 0.0561183
-8.47033e-22 0.020968 0.000112714 -0.0103709
-2.71051e-20 -0.0204458 0.00468612 0.0562068
0 -0.0209761 3.89075e-17 0.0561187
0 0.020446 0.00468621 -0.0103826
-6.77626e-21 0.0209762 4.11732e-17 -0.010371
-1.12938e-21 0.020982 0.000349479 -0.0103708
-5.64689e-22 -0.0209821 0.000349501 0.0561264
-3.38813e-22 -0.0206056 0.00432302 0.0561964
6.77626e-22 0.0206057 0.00432315 -0.0103829
-2.71051e-20 -0.020934 0.00277551 0.0561714
0 0.020934 0.00277555 -0.0103765
1.35525e-20 0.0206249 0.00478151 -0.010382
0 -0.0206251 0.00478166 0.0562009
0 -0.0208973 0.00349615 0.056179
0 0.0208974 0.00349623 -0.010379
-2.71051e-20 -0.02125 -2.7536e-16 0.0561335
0 0.02125 -2.77493e-16 -0.0103719
-3.38813e-20 -0.0207393 0.0048425 0.0561962
2.71051e-20 0.0207401 0.00484287 -0.0103819
4.51751e-21 -0.020785 0.00466278 0.0561929
9.03502e-21 0.0207851 0.00466305 -0.0103822
-5.42101e-20 -0.020919 0.0041165 0.0561797
0 0.0209191 0.00411663 -0.0103825
-2.82344e-22 0.0212543 0.00168707 -0.0103718
-2.82344e-22 -0.0212543 0.00168707 0.0561676
3.01167e-21 -0.0213188 0.000900049 0.0561494
-1.50584e-21 0.0213188 0.000900019 -0.0103712
-1.35525e-20 -0.0213463 0.000122192 0.0561294
1.35525e-20 0.0213464 0.000122392 -0.0103719
0 -0.021355 -2.3845e-18 0.056129
0 0.0213552 -1.52921e-18 -0.0103719
-4.51751e-21 -0.0212895 0.00229431 0.0561606
-3.38813e-21 0.0212895 0.00229433 -0.0103741
-2.71051e-20 -0.0214256 -2.50478e-16 0.0561382
-1.35525e-20 0.0214259 -2.50917e-16 -0.0103715
6.77626e-22 -0.0212264 0.00310846 0.0561632
2.25875e-22 0.0212264 0.00310856 -0.0103768
0 -0.0209342 0.00494631 0.0561867
-1.35525e-20 0.0209345 0.00494647 -0.0103825
-1.12938e-21 -0.0212107 0.00381738 0.0561654
0 0.0212107 0.00381746 -0.0103799
-2.71051e-20 -0.0215712 0.000127436 0.0561313
-1.35525e-20 0.0215719 0.000127681 -0.010371
4.06576e-20 -0.0216067 1.47634e-16 0.0561306
-1.35525e-20 0.0216074 1.47373e-16 -0.010371
2.71051e-20 -0.0210473 0.00500657 0.056134
1.35525e-20 0.0210475 0.00500662 -0.0103828
-1.35525e-20 -0.0210904 0.00488681 0.0561425
-4.06576e-20 0.0210904 0.00488706 -0.0103827
-7.52918e-22 -0.0212076 0.00450575 0.0561677
-4.89397e-21 0.0212077 0.00450582 -0.0103821
0 -0.0215471 0.00276786 0.0561534
0 0.0215471 0.00276788 -0.0103746
0 -0.0215274 0.00347141 0.0561502
-5.42101e-20 0.0215275 0.00347146 -0.0103779
0 0.0212499 0.0051145 -0.0103825
-1.69407e-20 -0.0212502 0.00511463 0.0561704
3.38813e-21 -0.0212808 0.00513096 0.0561764
0 0.0212811 0.00513109 -0.0103826
0 -0.0213032 0.0050955 0.0561805
0 0.0213038 0.00509507 -0.0103826
-2.71051e-20 -0.0215161 0.00414688 0.0561522
2.71051e-20 0.0215162 0.00414698 -0.0103797
-3.38813e-21 -0.0213149 0.00514909 0.0561675
0 0.0213156 0.0051495 -0.0103825
-5.42101e-20 -0.0219062 0.00171817 0.0561259
5.42101e-20 0.0219062 0.00171817 -0.0103707
4.51751e-21 -0.0214404 0.00489776 0.0562056
9.03502e-21 0.0214406 0.00489792 -0.0103829
2.11758e-22 -0.0218828 0.00243276 0.0561256
2.82344e-22 0.0218828 0.00243286 -0.0103737
5.42101e-20 -0.0220249 0.000514809 0.0561281
-5.42101e-20 0.022025 0.000514815 -0.0103701
0 -0.0218548 0.00311112 0.0561321
0 0.0218549 0.00311114 -0.0103756
-1.12938e-21 -0.0218321 0.00380922 0.0561392
-4.51751e-21 0.0218321 0.00380928 -0.0103778
0 -0.0215576 0.00527841 0.0561538
0 0.021558 0.0052786 -0.010382
1.35525e-20 -0.021618 0.00521401 0.0561517
0 0.0216183 0.00521431 -0.010382
-6.77626e-21 -0.0217926 0.00451289 0.0561421
6.77626e-21 0.0217927 0.00451304 -0.010381
2.71051e-20 -0.0216749 0.00534089 0.0561562
-2.71051e-20 0.021675 0.00534096 -0.010382
5.42101e-20 -0.0221928 0.00274702 0.0560973
-2.71051e-20 0.0221928 0.00274703 -0.0103741
-1.807e-21 -0.0218358 0.00496905 0.0561424
-4.51751e-22 0.021836 0.00496915 -0.0103823
-2.71051e-20 -0.0221555 0.00344893 0.0561267
-2.71051e-20 0.0221556 0.00344897 -0.0103757
1.35525e-20 0.0225001 1.83963e-16 -0.0103699
1.35525e-20 -0.0225001 1.84296e-16 0.0561004
0 0.0225001 0.000132879 -0.0103698
0 -0.0225001 0.000132845 0.0560999
0 -0.0221425 0.00413741 0.0561269
2.71051e-20 0.0221425 0.00413747 -0.0103779
6.77626e-21 0.0218749 0.00544743 -0.0103813
-1.35525e-20 -0.0218752 0.00544758 0.0561531
0 -0.0225915 0.00111538 0.0560897
4.51751e-21 0.0225915 0.00111538 -0.0103702
-3.38813e-21 -0.0219451 0.00548483 0.0561514
1.01644e-20 0.0219457 0.00548514 -0.0103812
1.35525e-20 -0.0220189 0.00530689 0.0561449
-4.51751e-21 0.0220189 0.00530711 -0.0103816
0 -0.0221557 0.00476095 0.0561257
0 0.0221557 0.00476106 -0.0103819
0 -0.0226681 -7.52888e-18 0.0560849
2.71051e-20 0.0226682 -7.5783e-18 -0.0103699
0 -0.0225575 0.00228412 0.0560928
0 0.0225575 0.00228414 -0.010372
-8.47033e-22 -0.0224843 0.00307681 0.0560921
7.05861e-22 0.0224843 0.00307687 -0.010374
8.47033e-22 0.0224595 0.00375139 -0.0103761
-2.5411e-21 -0.0224607 0.00375124 0.0560945
-2.11758e-21 0.0225 0.00363412 -0.0103756
1.69407e-21 -0.0225 0.00363668 0.0560916
4.23516e-22 0.0225048 0.00375038 -0.010376
4.23516e-22 -0.022505 0.00374493 0.0560914
-2.5411e-21 -0.0225 0.00378659 0.0560923
3.38813e-21 0.0224999 0.00378768 -0.0103761
-2.71051e-20 -0.0228183 0.000138857 0.0560796
2.71051e-20 0.0228183 0.000138904 -0.0103698
0 -0.0228295 -4.6137e-18 0.056079
2.71051e-20 0.0228296 -4.63719e-18 -0.0103698
-1.35525e-20 -0.0221583 0.00559842 0.0561449
1.35525e-20 0.0221586 0.00559854 -0.0103819
-4.23516e-22 -0.0225489 0.00374905 0.0560884
-1.69407e-21 0.0225501 0.00374913 -0.0103759
3.38813e-21 -0.0224518 0.00446282 0.0561061
-1.12938e-21 0.0224519 0.00446289 -0.0103787
-2.71051e-20 -0.0222813 0.00566396 0.0560649
2.71051e-20 0.0222814 0.00566399 -0.0103822
-2.71051e-20 -0.0223283 0.00553412 0.056079
-1.35525e-20 0.0223283 0.00553432 -0.0103822
7.52918e-22 -0.0224429 0.00515556 0.0561188
-7.52918e-22 0.022443 0.00515562 -0.0103814
0 0.0229083 0.00284902 -0.0103711
2.71051e-20 -0.0229083 0.00284902 0.0560956
2.71051e-20 -0.0227694 0.00412844 0.0560749
0 0.0227694 0.00412849 -0.0103757
2.71051e-20 0.022907 0.00330621 -0.0103736
2.71051e-20 -0.022907 0.00330617 0.0560361
0 0.0225 0.00578038 -0.010382
-8.47033e-22 -0.0225001 0.00578047 0.056131
0 -0.022509 0.0057852 0.056134
0 0.0225092 0.00578529 -0.010382
1.69407e-21 -0.0225156 0.00577477 0.0561359
8.47033e-22 0.0225161 0.00577445 -0.0103821
-8.47033e-22 -0.022519 0.00579052 0.0561304
-5.42101e-20 -0.0231859 0.00175342 0.0560529
0 0.0231859 0.00175343 -0.0103707
-8.47033e-22 0.0225196 0.00579082 -0.010382
0 -0.0232456 0.000558696 0.0560526
5.42101e-20 0.0232457 0.000558712 -0.0103694
-2.71051e-20 -0.0227558 0.00479301 0.0560953
0 0.0227558 0.00479309 -0.0103788
5.64689e-22 -0.0231485 0.0024175 0.0560664
1.69407e-21 0.0231485 0.00241753 -0.0103711
0 -0.0231146 0.00307523 0.0560581
0 0.0231146 0.00307524 -0.0103721
6.02335e-21 -0.0226734 0.00554801 0.0561838
6.02335e-21 0.0226735 0.00554813 -0.0103823
1.50584e-21 -0.023097 0.00377997 0.0560526
0 0.023097 0.00377998 -0.0103744
0 -0.0230771 0.00445736 0.0560713
-3.38813e-21 0.0230771 0.0044574 -0.0103765
-5.42101e-20 -0.0233412 0.00284261 0.0560554
0 0.0233413 0.00284261 -0.010371
0 -0.023307 0.0032965 0.056052
-2.71051e-20 0.0233071 0.00329653 -0.0103722
0 -0.0227839 0.00593188 0.0561149
0 0.0227842 0.005932 -0.0103816
1.35525e-20 -0.0228491 0.00586247 0.056113
2.71051e-20 0.0228493 0.00586268 -0.0103816
-4.51751e-21 -0.0230321 0.00515831 0.0560957
-9.03502e-21 0.0230321 0.00515843 -0.0103802
0 -0.0229107 0.00599969 0.0561243
0 0.0229108 0.00599972 -0.0103817
1.35525e-21 -0.02307 0.00562156 0.0561068
-4.06576e-21 0.0230702 0.00562164 -0.0103817
0 0.02375 -2.43186e-18 -0.0103689
-1.35525e-20 -0.02375 -2.41206e-18 0.0560245
0 0.02375 0.000111014 -0.0103689
-1.35525e-20 -0.02375 0.00011097 0.0560244
0 -0.0234167 0.0040912 0.0560497
-2.71051e-20 0.0234167 0.00409123 -0.0103744
2.71051e-20 -0.0233771 0.00479107 0.0560641
2.71051e-20 0.0233771 0.00479113 -0.010377
0 -0.0238362 0.0011485 0.0560171
2.25875e-21 0.0238362 0.00114851 -0.0103694
1.35525e-20 -0.0238811 -9.75667e-20 0.0560171
1.35525e-20 0.0238811 -9.75139e-20 -0.0103688
3.38813e-21 0.0231249 0.00611537 -0.0103809
-1.35525e-20 -0.0231251 0.00611547 0.056124
2.25875e-21 0.0238207 0.00236091 -0.0103705
7.90564e-21 -0.0238207 0.00236091 0.0560206
0 0.02375 0.00306544 -0.0103713
0 -0.0237501 0.00306541 0.0560283
-1.69407e-20 -0.0231675 0.00613814 0.0561239
2.03288e-20 0.0231678 0.00613837 -0.0103809
0 -0.0239958 0.000113646 0.0560101
-1.35525e-20 0.0239958 0.000113675 -0.0103686
0 -0.0240047 1.15459e-20 0.0560096
-1.35525e-20 0.0240047 1.15183e-20 -0.0103686
-9.03502e-21 -0.023258 0.00596075 0.056115
-9.03502e-21 0.0232581 0.00596091 -0.0103812
-2.71051e-20 -0.0233938 0.00541142 0.0560917
2.71051e-20 0.0233939 0.00541149 -0.0103811
-2.35287e-21 0.0237525 0.0036485 -0.010373
4.70574e-22 -0.0237525 0.00364843 0.0560273
1.12938e-21 -0.0237062 0.00443804 0.056037
0 0.0237062 0.00443807 -0.0103751
-1.35525e-20 -0.0233932 0.00626093 0.0561264
-2.71051e-20 0.0233933 0.00626104 -0.0103819
1.12938e-21 -0.0236906 0.00510851 0.0560631
-4.51751e-21 0.0236906 0.00510857 -0.0103781
-2.71051e-20 -0.0235127 0.00635105 0.0560096
6.77626e-21 0.0235127 0.00635107 -0.0103826
1.35525e-20 -0.0235683 0.00620582 0.0560337
-1.35525e-20 0.0235682 0.00620594 -0.0103825
2.71051e-20 -0.0240297 0.00408465 0.056007
0 0.0240297 0.00408467 -0.0103732
-2.25875e-21 -0.0236813 0.00581876 0.0560924
1.12938e-21 0.0236814 0.0058188 -0.0103811
-2.71051e-20 -0.0240098 0.00476747 0.056026
5.42101e-20 0.0240099 0.0047675 -0.0103758
0 -0.0244727 0.000579723 0.0559829
0 0.0244727 0.000579722 -0.010368
0 -0.0244408 0.00176632 0.0559799
5.42101e-20 0.0244408 0.00176633 -0.0103698
0 -0.0236698 0.00645559 0.0560852
-3.38813e-21 0.0236701 0.00645581 -0.0103824
3.38813e-21 -0.0237098 0.00644176 0.0561039
0 0.0237098 0.00644204 -0.0103824
0 -0.02371 0.00648353 0.0561235
3.38813e-21 0.02371 0.00648359 -0.0103823
0 -0.0243888 0.00306492 0.0559852
5.42101e-20 0.0243888 0.00306492 -0.0103699
2.71051e-20 -0.0239955 0.00544041 0.0560683
2.71051e-20 0.0239956 0.00544047 -0.0103781
-3.38813e-21 0.02375 0.00643543 -0.0103823
0 -0.0237501 0.00643512 0.0561209
0 0.02375 0.00647616 -0.0103822
0 -0.0237501 0.00647607 0.0561206
0 0.02375 0.00651289 -0.0103821
0 -0.0237501 0.00651298 0.0561199
5.0822e-22 -0.0243624 0.00373227 0.0559815
-6.77626e-22 0.0243624 0.00373229 -0.0103718
-4.51751e-21 -0.0239088 0.00623545 0.056192
0 0.0239119 0.00623295 -0.0103825
2.25875e-21 -0.0243381 0.00441607 0.0559994
1.12938e-21 0.0243381 0.00441608 -0.0103735