# U  POINT_DATA 14923
# x  y  z  U_x  U_y  U_z
1.35525e-20 -0.014142 8.4025e-08 0 0 0
-1.35525e-20 0.014142 8.4025e-08 0 0 0
0 -0.014142 0.000246012 0 0 0
-6.77626e-21 0.014142 0.000246009 0 0 0
-1.69407e-20 -0.014142 0.000413826 0 0 0
6.77626e-21 0.014142 0.00041383 0 0 0
-1.35525e-20 -0.014142 0.000659755 0 0 0
-1.35525e-20 0.014142 0.000659755 0 0 0
0 0.014142 0.000918785 0 0 0
3.38813e-21 -0.014142 0.000918783 0 0 0
1.35525e-20 0.014142 0.00109555 0 0 0
3.38813e-21 -0.014142 0.00109556 0 0 0
1.35525e-20 0.014142 0.00135458 0 0 0
0 -0.014142 0.00135458 0 0 0
0 0.014142 0.00162762 0 0 0
-6.77626e-21 -0.014142 0.00162761 0 0 0
0 -0.014253 0.00012398 0.00159844 -0.00166164 -4.94209e-07
0 0.014253 0.000123977 -2.01671e-06 2.37141e-06 1.6273e-07
0 -0.0142541 8.84505e-08 0 0 0
-1.35525e-20 0.0142541 8.84502e-08 0 0 0
-3.38813e-21 0.014142 0.00181395 0 0 0
-6.77626e-21 -0.014142 0.00181396 0 0 0
0 -0.014253 0.000533539 0.00159846 -0.00166167 -4.94217e-07
0 0.014253 0.000533544 -2.01667e-06 2.37136e-06 1.62727e-07
0 0.0142487 0.00077903 -1.54327e-05 1.48552e-05 7.75356e-07
0 -0.0142487 0.000779034 0.00307527 -0.00310375 1.41076e-05
-1.35525e-20 0.014142 0.002087 0 0 0
1.35525e-20 -0.014142 0.002087 0 0 0
-1.35525e-20 0.0142487 0.00120328 -1.54327e-05 1.48552e-05 7.75352e-07
1.35525e-20 -0.0142487 0.00120328 0.0030751 -0.00310357 1.41068e-05
0 0.014243 0.00144974 -1.54351e-05 1.50624e-05 -5.7227e-07
1.35525e-20 -0.014243 0.00144974 0.00283105 -0.00285456 -7.59377e-05
0 0.014243 0.00188498 -1.54355e-05 1.50628e-05 -5.72284e-07
1.35525e-20 -0.014243 0.00188498 0.00283117 -0.00285467 -7.59408e-05
-2.71051e-20 -0.014375 9.00163e-08 0 0 0
1.35525e-20 0.014375 9.00164e-08 0 0 0
1.35525e-20 0.014375 0.0006466 -1.69606e-05 1.75686e-05 1.18916e-07
-2.71051e-20 -0.014375 0.0006466 0.00489328 -0.00480393 2.60513e-05
-6.77626e-21 0.0142627 0.00213224 0 0 0
-6.77626e-21 -0.0142627 0.00213225 0 0 0
0 0.0142992 0.00204049 -1.36512e-05 1.30248e-05 -1.51614e-07
1.35525e-20 -0.0142992 0.00204049 0.00306719 -0.00303682 -3.06023e-05
0 0.014391 0.00158911 -3.68696e-05 3.7791e-05 2.57467e-07
0 -0.014391 0.00158911 0.00734039 -0.00761882 -2.8046e-05
-6.77626e-21 -0.014375 0.00187841 0.00609774 -0.00605601 -0.000118051
0 0.014375 0.0018784 -3.11837e-05 3.21443e-05 1.01049e-07
0 0.0144892 0.000865926 -3.76e-05 3.94459e-05 -1.88522e-07
5.42101e-21 -0.0144892 0.000865928 0.00906436 -0.00926494 -4.99269e-05
0 0.0144694 0.00125569 -4.89227e-05 5.09791e-05 2.6018e-07
-4.51751e-21 -0.0144694 0.0012557 0.00986581 -0.00997681 -2.28678e-05
1.35525e-20 0.014375 0.00217431 0 0 0
2.71051e-20 -0.014375 0.00217431 0 0 0
-2.25875e-21 -0.0145461 0.000325602 0.00497322 -0.00508245 -0.00014775
-2.25875e-21 0.0145461 0.000325595 -8.70354e-06 8.80915e-06 -1.26455e-08
2.71051e-20 -0.0145532 9.53759e-08 0 0 0
1.35525e-20 0.0145533 9.53758e-08 0 0 0
2.71051e-20 0.0145143 0.00222654 0 0 0
0 -0.0145144 0.00222654 0 0 0
-1.93608e-21 0.0146051 0.00164978 -5.86401e-05 6.08803e-05 5.75046e-07
1.35525e-20 -0.0146051 0.00164978 0.0116261 -0.0117196 -0.000145726
-2.82344e-22 -0.014583 0.00195698 0.00772418 -0.00824251 8.40464e-05
-1.41172e-22 0.0145828 0.00195868 -3.50837e-05 3.89667e-05 6.16247e-07
0 -0.0147323 1.05322e-07 0 0 0
0 0.0147324 1.05321e-07 0 0 0
-2.25875e-21 0.014715 0.000923757 -5.96802e-05 6.66515e-05 -2.05258e-06
-4.51751e-21 -0.014715 0.000923762 0.0135359 -0.0141165 -1.57856e-05
-2.71051e-20 0.0145865 0.0022536 0 0 0
0 -0.0145866 0.00225361 0 0 0
-2.25875e-21 0.0146936 0.00145601 -7.34353e-05 8.12011e-05 2.2762e-06
2.25875e-21 -0.0146936 0.00145601 0.0140621 -0.0148178 2.71113e-05
1.35525e-20 -0.0148202 0.000134139 0.00309794 -0.00320866 -5.63707e-05
1.35525e-20 0.0148203 0.000134125 -1.31815e-06 1.74187e-06 1.8052e-07
-1.35525e-20 -0.0148273 9.52379e-08 0 0 0
0 0.0148274 9.52384e-08 0 0 0
-1.35525e-20 -0.0148725 9.04366e-08 0 0 0
1.35525e-20 0.0148726 9.04378e-08 0 0 0
6.45358e-21 -0.01487 0.000655521 0.0127049 -0.0128225 6.79258e-05
3.22679e-21 0.01487 0.000655519 -4.44514e-05 4.70609e-05 -9.94046e-08
1.00389e-21 0.014845 0.00120712 -8.13738e-05 8.51184e-05 4.29754e-07
-7.27821e-21 -0.014845 0.00120713 0.0165626 -0.0168259 -1.07684e-05
0 0.0147312 0.00230781 0 0 0
0 -0.0147313 0.00230783 0 0 0
3.01167e-21 0.0148274 0.00162659 -7.99324e-05 8.45271e-05 1.09849e-06
-6.02335e-21 -0.0148274 0.0016266 0.0156313 -0.0160078 -0.000153388
1.35525e-20 -0.015 7.90261e-08 0 0 0
-1.35525e-20 0.015 7.90279e-08 0 0 0
-1.35525e-20 -0.015 0.000133974 0.00400769 -0.00403417 5.39199e-05
-2.71051e-20 0.015 0.000133967 -1.72141e-06 1.91645e-06 2.63242e-08
-3.76459e-22 0.0149713 0.00204049 -5.75427e-05 6.09156e-05 3.32718e-07
1.50584e-21 -0.0149714 0.0020405 0.0113396 -0.0119945 6.31826e-06
-3.38813e-21 -0.015 0.00225359 0.00511913 -0.00543539 -6.21143e-07
-1.69407e-21 0.015 0.0022537 -2.57285e-05 2.70897e-05 1.40214e-07
-3.38813e-21 -0.015 0.00240853 0 0 0
3.38813e-21 0.015 0.00240854 0 0 0
2.37169e-20 0.0150362 0.00242211 0 0 0
0 -0.0150362 0.00242211 0 0 0
1.35525e-20 -0.0152271 0.000388227 0.0105163 -0.010509 6.47256e-05
1.35525e-20 0.0152271 0.000388232 -1.56182e-05 1.65483e-05 7.37614e-08
-4.51751e-21 0.0152249 0.000912209 -7.97036e-05 8.40722e-05 8.02914e-07
9.03502e-21 -0.0152249 0.000912211 0.0198098 -0.020149 8.37074e-05
4.51751e-21 0.0151957 0.00150814 -0.000103673 0.000109195 7.32401e-07
0 -0.0151957 0.00150814 0.0215729 -0.0220588 -3.28475e-05
-3.38813e-21 0.015119 0.00245307 0 0 0
3.38813e-21 -0.015119 0.0024531 0 0 0
0 0.0153316 0.000145214 -1.86675e-06 2.07826e-06 2.85468e-08
1.35525e-20 -0.0153316 0.000145203 0.0043455 -0.00437421 5.84648e-05
1.35525e-20 0.0153419 1.97572e-08 0 0 0
0 -0.015342 1.97541e-08 0 0 0
0 -0.0154304 0.000610593 0.0162687 -0.0162118 7.3999e-05
2.71051e-20 0.0154304 0.000610592 -4.9432e-05 5.28601e-05 2.96615e-07
2.71051e-20 -0.0154185 0.00121382 0.0235279 -0.0237042 2.10506e-05
2.71051e-20 0.0154185 0.00121382 -0.000107665 0.000114908 8.58105e-07
1.35525e-20 0.0154797 7.97399e-09 0 0 0
0 -0.0154798 7.9711e-09 0 0 0
-1.35525e-20 0.0152769 0.00251208 0 0 0
0 -0.0152769 0.0025121 0 0 0
-5.42101e-20 0.0153758 0.00187005 -9.53248e-05 0.000102345 1.06676e-06
-2.71051e-20 -0.0153758 0.00187006 0.0188112 -0.0190311 -4.28449e-05
-6.77626e-21 0.0153108 0.00239814 -2.68362e-05 3.00689e-05 -2.78112e-08
0 -0.0153108 0.00239814 0.0044629 -0.00478586 5.66874e-05
-4.51751e-21 -0.0153783 0.00228563 0.00915748 -0.00975001 9.61699e-05
-1.12938e-21 0.0153783 0.00228563 -5.40362e-05 6.01537e-05 3.35598e-08
-1.35525e-20 0.015625 7.21206e-09 0 0 0
0 -0.015625 7.20961e-09 0 0 0
0 -0.015625 0.000148496 0.00560912 -0.00550779 1.21871e-05
-1.35525e-20 0.015625 0.0001485 -1.86927e-06 2.104e-06 1.03846e-08
-1.35525e-20 -0.0154657 0.00258282 0 0 0
0 0.0154657 0.00258282 0 0 0
4.51751e-21 0.0157806 0.00040103 -2.06279e-05 2.2375e-05 1.24664e-07
4.51751e-21 -0.0157806 0.000401034 0.0135934 -0.0134498 4.19593e-05
2.25875e-21 -0.0157685 0.000915143 0.0254478 -0.0253722 1.56576e-05
0 0.0157685 0.000915143 -9.63462e-05 0.000104771 6.03067e-07
1.12938e-20 -0.0157412 0.00155218 0.028889 -0.0289147 8.54391e-05
-2.25875e-21 0.0157412 0.00155219 -0.00013475 0.000146305 1.71991e-06
0 -0.0156535 0.0023135 0.0131854 -0.0133892 4.18561e-05
-8.47033e-22 0.0156535 0.00231351 -7.09582e-05 7.7602e-05 1.18184e-06
1.35525e-20 0.0156249 0.00255355 -2.13284e-05 2.36869e-05 4.91412e-07
1.35525e-20 -0.0156249 0.00255354 0.00420434 -0.00418662 -2.29298e-05
6.77626e-21 0.0156249 0.0026425 0 0 0
-6.77626e-21 -0.0156249 0.00264251 0 0 0
-1.35525e-20 -0.0157486 0.00207232 0.0205146 -0.0207089 8.76432e-05
0 0.0157486 0.00207233 -0.000108134 0.000118188 1.82936e-06
1.35525e-20 0.01594 0.000153358 -1.93043e-06 2.17284e-06 1.07244e-08
1.35525e-20 -0.01594 0.000153357 0.00579277 -0.00568812 1.25862e-05
0 0.0159518 6.42218e-09 0 0 0
-2.71051e-20 -0.0159518 6.42129e-09 0 0 0
2.71051e-20 -0.0157578 0.00269219 0 0 0
2.71051e-20 0.0157578 0.00269219 0 0 0
-1.35525e-20 -0.0157996 0.0025293 0.00846487 -0.00843654 -4.1404e-05
1.35525e-20 0.0157996 0.00252931 -4.3169e-05 4.7234e-05 1.02059e-06
-1.35525e-20 -0.0161003 5.64387e-09 0 0 0
1.35525e-20 0.0161003 5.64434e-09 0 0 0
0 -0.0160445 0.00191468 0.0274062 -0.0275152 6.5215e-05
0 0.0160445 0.0019147 -0.000139523 0.000153999 2.35178e-06
0 -0.0159573 0.00276704 0 0 0
0 0.0159573 0.00276704 0 0 0
1.16165e-20 0.0161556 0.00116841 -0.00013298 0.000146756 1.23842e-06
-1.54886e-20 -0.0161556 0.00116841 0.0321012 -0.0319905 5.78362e-06
-9.03502e-21 -0.0161993 0.000607818 0.021452 -0.0212912 -2.09641e-06
-4.51751e-21 0.0161993 0.000607817 -6.04445e-05 6.69379e-05 3.82994e-07
-2.25875e-21 -0.0160484 0.0023249 0.0188295 -0.0189083 3.84169e-05
-4.51751e-21 0.0160484 0.00232494 -9.94435e-05 0.000110215 2.07675e-06
1.35525e-20 -0.01625 4.91522e-09 0 0 0
2.71051e-20 0.01625 4.91559e-09 0 0 0
1.35525e-20 -0.01625 0.000141091 0.00611379 -0.00601403 -6.79737e-06
0 0.01625 0.000141095 -1.82483e-06 2.12907e-06 1.28516e-08
-9.03502e-21 -0.0162996 0.00156705 0.0353201 -0.0351756 6.23286e-05
4.51751e-21 0.0162996 0.00156705 -0.000168936 0.00018708 2.42706e-06
-2.71051e-20 0.0164196 0.000304857 -3.90893e-06 4.51798e-06 2.54315e-08
0 -0.0164196 0.000304857 0.0127585 -0.0125448 -5.76446e-06
0 0.0164158 0.000921443 -0.00012551 0.000139575 8.13264e-07
0 -0.0164158 0.000921442 0.0330497 -0.0327594 -4.35654e-05
-1.89735e-20 -0.0163183 0.00211157 0.0292482 -0.0292979 8.18809e-05
2.71051e-21 0.0163183 0.00211158 -0.000152686 0.000169587 3.17913e-06
-1.35525e-20 0.0162498 0.00287804 0 0 0
2.37169e-20 -0.0162499 0.00287808 0 0 0
6.77626e-21 -0.016295 0.00289505 0 0 0
-1.01644e-20 0.0162953 0.00289514 0 0 0
1.12938e-20 -0.0163566 0.00265265 0.0137055 -0.0136317 -6.54701e-05
-4.51751e-21 0.0163567 0.00265268 -7.01726e-05 7.83291e-05 1.93939e-06
-1.35525e-20 0.0165943 2.17699e-09 0 0 0
1.35525e-20 -0.0165943 2.17678e-09 0 0 0
1.35525e-20 0.0165961 0.000135303 -1.74995e-06 2.04171e-06 1.23243e-08
0 -0.0165961 0.000135298 0.00586291 -0.00576724 -6.51843e-06
1.35525e-20 -0.0167375 1.46118e-09 0 0 0
-1.35525e-20 0.0167375 1.4613e-09 0 0 0
9.03502e-21 0.0167397 0.000605527 -6.9514e-05 7.81361e-05 4.78145e-07
2.25875e-21 -0.0167397 0.000605529 0.0243882 -0.0241197 -1.98822e-05
0 -0.0167333 0.00124398 0.0388055 -0.0385008 -2.55253e-05
-6.77626e-21 0.0167333 0.00124398 -0.00017159 0.000192186 2.14194e-06
2.25875e-21 -0.0167335 0.00188821 0.0382514 -0.0380952 -1.41224e-05
6.77626e-21 0.0167335 0.00188822 -0.000195985 0.00021949 3.88405e-06
2.71051e-20 -0.0165883 0.00300631 0 0 0
2.71051e-20 0.0165884 0.00300634 0 0 0
0 -0.016875 1.28939e-09 0 0 0
0 0.016875 1.28948e-09 0 0 0
0 -0.016875 0.000125695 0.00597834 -0.00588177 1.13107e-05
-1.35525e-20 0.016875 0.000125698 -1.68412e-06 2.02183e-06 1.01616e-08
-4.51751e-21 -0.0167209 0.00239031 0.0287587 -0.0287234 -5.76912e-05
-9.03502e-21 0.016721 0.00239038 -0.000154608 0.000173631 3.88783e-06
-2.71051e-20 0.017064 0.000300536 -3.97057e-06 4.72536e-06 2.44258e-08
0 -0.017064 0.000300536 0.0139127 -0.0136858 1.78977e-05
-6.77626e-21 -0.0168116 0.00309149 0 0 0
6.77626e-21 0.0168118 0.00309158 0 0 0
0 0.0170693 0.000918164 -0.000147654 0.000167106 1.069e-06
2.71051e-20 -0.0170693 0.000918164 0.0384137 -0.0380652 -4.94474e-05
0 0.0170657 0.00156933 -0.000230053 0.000259124 3.97371e-06
-5.42101e-20 -0.0170657 0.00156932 0.0457276 -0.0453808 -8.57402e-05
0 0.0168748 0.00300443 -3.53533e-05 3.98921e-05 1.09328e-06
3.38813e-21 -0.016875 0.0030038 0.00611341 -0.00615816 -2.61567e-05
6.77626e-21 0.0168748 0.00311544 0 0 0
3.38813e-21 -0.0168751 0.00311552 0 0 0
2.25875e-21 -0.0169659 0.00280947 0.0179223 -0.0180209 -7.6085e-05
-4.51751e-21 0.016966 0.00280951 -0.000103124 0.000116408 3.12265e-06
2.71051e-20 -0.0170634 0.00223057 0.0397061 -0.0396258 -0.000154016
0 0.0170635 0.00223059 -0.000214426 0.000241854 5.45074e-06
-1.35525e-20 0.0172527 5.17858e-10 0 0 0
0 -0.0172527 5.17805e-10 0 0 0
0 0.0172566 0.000116566 -1.56177e-06 1.87495e-06 9.42339e-09
1.35525e-20 -0.0172566 0.000116563 0.00554404 -0.00545449 1.0489e-05
0 -0.0173799 3.52927e-10 0 0 0
1.35525e-20 0.0173799 3.52962e-10 0 0 0
0 -0.0170862 0.00319594 0 0 0
2.71051e-20 0.0170864 0.00319602 0 0 0
-2.25875e-21 0.0173907 0.00059721 -7.90672e-05 9.03232e-05 6.17087e-07
0 -0.0173907 0.000597212 0.0272792 -0.0269991 -3.49369e-05
0 0.0173953 0.00123436 -0.000203106 0.000230939 2.95026e-06
0 -0.0173953 0.00123436 0.0446641 -0.0443019 -0.00012956
-4.51751e-21 -0.0173902 0.00191068 0.0462967 -0.04605 -0.00020818
6.77626e-21 0.0173903 0.00191069 -0.000247307 0.000280713 5.69147e-06
-1.35525e-20 -0.0175 3.17172e-10 0 0 0
0 0.0175 3.17202e-10 0 0 0
0 -0.0175 0.000105685 0.00542912 -0.00536064 1.34286e-05
0 0.0175 0.000105687 -1.47992e-06 1.82781e-06 2.28838e-08
1.35525e-20 -0.0172465 0.00325641 0 0 0
2.03288e-20 0.0172466 0.00325643 0 0 0
0 -0.0172976 0.00309008 0.00898196 -0.00936374 7.57242e-05
-1.35525e-20 0.0172976 0.00309027 -6.43349e-05 7.66121e-05 2.08467e-06
3.76158e-37 -0.017428 0.00267359 0.0289457 -0.0289813 -0.00018317
2.25875e-21 0.017428 0.00267359 -0.000172405 0.000196996 5.27657e-06
0 -0.0177101 0.000293755 0.0147351 -0.0145402 2.96486e-05
0 0.0177101 0.000293755 -4.04439e-06 4.94385e-06 6.19503e-08
0 0.0177219 0.000903839 -0.000164594 0.000189049 1.34602e-06
2.71051e-20 -0.0177219 0.000903839 0.0428025 -0.0424453 -0.00013917
1.69407e-21 -0.0174509 0.00333352 0 0 0
1.69407e-21 0.0174516 0.00333379 0 0 0
0 -0.0174774 0.00332287 0.000998567 -0.00104101 8.41862e-06
1.69407e-21 0.0174776 0.00332332 -7.03871e-06 8.38192e-06 2.28078e-07
0 0.0177246 0.00155835 -0.000272343 0.000311007 5.47038e-06
2.71051e-20 -0.0177246 0.00155834 0.0520532 -0.0516526 -0.000244497
0 -0.0174819 0.00334524 0 0 0
0 0.0174821 0.0033453 0 0 0
0 0.0174998 0.00332151 -1.05005e-05 1.2151e-05 3.98036e-07
0 -0.0174999 0.00332104 0.00156927 -0.00157689 -1.69957e-05
0 0.0174997 0.00334181 -3.81603e-06 4.47288e-06 1.789e-07
1.69407e-21 -0.0174999 0.00334168 0.000602455 -0.000596003 -1.38463e-05
0 0.0174997 0.00335193 0 0 0
0 -0.0174999 0.00335198 0 0 0
0 -0.0177108 0.00226099 0.0484656 -0.0482937 -0.000354223
2.71051e-20 0.0177108 0.00226103 -0.000276233 0.000315332 7.9409e-06
4.51751e-21 -0.0176353 0.00307333 0.0170361 -0.0171412 -0.000198855
-1.807e-20 0.0176354 0.00307341 -0.000113809 0.000129745 4.39521e-06
0 -0.0176459 0.00307764 0.0172413 -0.0173266 -0.000211176
-2.71051e-20 0.0176459 0.00307771 -0.000115041 0.000131061 4.46069e-06
0 0.0179213 8.77536e-11 0 0 0
1.35525e-20 -0.0179213 8.77438e-11 0 0 0
0 0.0179252 9.30173e-05 -1.30251e-06 1.60869e-06 2.01405e-08
2.71051e-20 -0.0179252 9.30153e-05 0.00477829 -0.00471802 1.18188e-05
0 -0.0180268 5.44536e-11 0 0 0
0 0.0180268 5.44591e-11 0 0 0
2.25875e-21 0.0180409 0.00058155 -8.59124e-05 9.90313e-05 9.53504e-07
1.12938e-20 -0.0180409 0.000581551 0.0293008 -0.029033 -9.68756e-05
-2.25875e-21 -0.0180512 0.00121327 0.0491122 -0.0487838 -0.000277038
-3.38813e-21 0.0180512 0.00121327 -0.00022947 0.000263762 4.17399e-06
-2.71051e-20 -0.0177836 0.00345876 0 0 0
-1.35525e-20 0.0177837 0.00345884 0 0 0
0 -0.0181253 4.99506e-11 0 0 0
0 0.0181253 4.99554e-11 0 0 0
1.35525e-20 -0.0181254 8.3647e-05 0.00446395 -0.00437576 -3.35973e-05
0 0.0181254 8.3649e-05 -1.27035e-06 1.56479e-06 -1.39894e-08
-1.12938e-21 -0.018044 0.00190351 0.0532715 -0.0529672 -0.000504092
-3.38813e-21 0.018044 0.00190353 -0.000299211 0.000343402 7.66943e-06
-2.71051e-20 -0.0178455 0.00338256 0.00582322 -0.00576086 -0.000133836
0 0.0178456 0.00338271 -3.74791e-05 4.39303e-05 1.75706e-06
9.03502e-21 -0.0180105 0.00263587 0.0386695 -0.0384545 -0.000508722
2.25875e-21 0.0180106 0.00263595 -0.000243913 0.000280553 8.03729e-06
0 -0.0179191 0.00350977 0 0 0
0 0.0179192 0.00350979 0 0 0
1.35525e-21 -0.0180589 0.00311996 0.0219371 -0.0217587 -0.000352828
-1.35525e-21 0.018059 0.00312002 -0.000150937 0.000174808 6.22163e-06
-5.42101e-20 -0.0183552 0.000282486 0.0148606 -0.0145712 -6.17004e-05
-5.42101e-20 0.0183552 0.000282486 -4.1825e-06 5.14741e-06 -3.04169e-09
2.71051e-20 0.0183704 0.000877818 -0.000175228 0.000202018 2.44313e-06
0 -0.0183704 0.000877817 0.0456127 -0.0453757 -0.000216183
2.71051e-20 -0.0183759 0.00153184 0.0562479 -0.0559246 -0.000508993
-2.71051e-20 0.018376 0.00153185 -0.000307807 0.000355321 7.5065e-06
1.35525e-20 0.0181249 0.00358718 0 0 0
0 -0.018125 0.00358724 0 0 0
0 -0.0183601 0.00224052 0.0566136 -0.0562843 -0.000905848
0 0.0183602 0.00224054 -0.000341928 0.000393701 9.78292e-06
1.35525e-20 -0.0182298 0.00362666 0 0 0
6.77626e-21 0.0182303 0.00362685 0 0 0
0 0.0185903 1.14547e-11 0 0 0
-6.77626e-21 -0.0185903 1.14538e-11 0 0 0
-1.35525e-20 0.0185922 7.01833e-05 -1.06585e-06 1.3129e-06 -1.17374e-08
-1.35525e-20 -0.0185922 7.01798e-05 0.00374525 -0.00367126 -2.81881e-05
-9.03502e-21 -0.0182769 0.00344764 0.0105777 -0.0103131 -0.000262613
1.807e-20 0.018277 0.00344781 -7.76236e-05 9.05698e-05 4.12504e-06
2.71051e-20 -0.0183886 0.0028814 0.0375643 -0.0369922 -0.000666495
0 0.0183886 0.00288148 -0.0002593 0.000299347 1.02186e-05
0 -0.0186731 7.47945e-12 0 0 0
0 0.0186731 7.4798e-12 0 0 0
0 -0.0186856 0.000557203 0.030105 -0.0300106 -0.000109319
-1.12938e-21 0.0186856 0.000557203 -8.49456e-05 0.000100197 1.08263e-06
-1.12938e-21 -0.0187004 0.00117602 0.0519835 -0.0517669 -0.00047181
1.12938e-21 0.0187004 0.00117602 -0.000244445 0.000285894 5.06815e-06
0 -0.01875 6.97661e-12 0 0 0
-2.03288e-20 0.01875 6.97695e-12 0 0 0
0 -0.01875 6.37723e-05 0.00341781 -0.00351171 8.46794e-05
1.35525e-20 0.01875 6.37728e-05 -6.72161e-07 9.06233e-07 3.01308e-08
2.25875e-21 -0.018696 0.00186471 0.0590962 -0.0588177 -0.000871676
2.25875e-21 0.018696 0.00186473 -0.000346751 0.000402542 9.59316e-06
-1.35525e-20 -0.0184505 0.00370969 0 0 0
2.71051e-20 0.0184507 0.00370979 0 0 0
3.38813e-21 -0.018692 0.00255887 0.0509293 -0.050336 -0.00108831
2.25875e-21 0.018692 0.00255892 -0.000335378 0.000387866 1.16734e-05
-4.06576e-20 -0.0185631 0.00375372 0 0 0
0 0.0185633 0.00375376 0 0 0
0 -0.018598 0.00364592 0.00622581 -0.00626019 -6.13441e-05
1.35525e-20 0.018598 0.00364612 -5.60292e-05 6.82566e-05 3.2695e-06
-3.76459e-22 -0.0187012 0.00326209 0.0262353 -0.0255967 -0.00073373
1.12938e-21 0.0187012 0.00326214 -0.000196388 0.000228134 9.04652e-06
0 -0.0189931 0.000266634 0.0142804 -0.0145193 0.000252038
0 0.0189931 0.000266631 -3.29085e-06 4.31997e-06 1.48713e-07
2.71051e-20 -0.0190119 0.00083882 0.0465885 -0.0464903 -0.000414903
0 0.0190119 0.000838822 -0.000162613 0.000195095 1.98093e-06
0 -0.0190241 0.00148402 0.0597306 -0.0595188 -0.000750662
0 0.0190241 0.00148403 -0.0003348 0.000393657 8.67576e-06
-6.77626e-21 0.0187498 0.00382104 0 0 0
-1.35525e-20 -0.0187499 0.00382109 0 0 0
-2.71051e-20 -0.0190146 0.00218766 0.0637815 -0.0635279 -0.00131703
5.42101e-20 0.0190147 0.00218769 -0.000402337 0.000467413 1.24478e-05
-6.77626e-21 -0.0188253 0.00385016 0 0 0
0 0.0188256 0.00385027 0 0 0
0 -0.0190104 0.00288303 0.0473085 -0.0461053 -0.00150402
2.71051e-20 0.0190105 0.00288309 -0.000346549 0.00040119 1.43892e-05
-6.77626e-21 -0.018869 0.00377278 0.00566898 -0.00541907 -0.000251364
0 0.0188695 0.00377247 -4.54707e-05 5.12529e-05 2.44341e-06
6.77626e-21 0.0192614 9.27756e-13 0 0 0
0 -0.0192614 9.27688e-13 0 0 0
0 0.0192616 4.56754e-05 -4.81415e-07 6.49063e-07 2.15803e-08
0 -0.0192616 4.56687e-05 0.00244757 -0.00251481 6.06407e-05
0 -0.0189593 0.0036316 0.0159708 -0.0152984 -0.00068115
7.52918e-21 0.0189594 0.00363172 -0.000130467 0.000149136 7.07942e-06
1.35525e-20 -0.0189216 0.00388925 0 0 0
6.77626e-21 -0.0193175 5.50573e-13 0 0 0
0 0.0193175 5.5057e-13 0 0 0
-6.77626e-21 0.0189225 0.00388962 0 0 0
0 -0.019323 0.000517724 0.0289238 -0.0288792 -0.000384216
0 0.019323 0.000517724 -7.92834e-05 8.24791e-05 6.18874e-06
0 -0.0193664 3.8562e-05 0.00204573 -0.00192259 -0.000127331
-6.77626e-21 0.0193665 3.85723e-05 -3.78251e-07 -2.91467e-07 1.62181e-07
6.77626e-21 -0.0193681 5.31764e-13 0 0 0
6.77626e-21 0.0193682 5.31754e-13 0 0 0
2.03288e-21 0.0193603 0.00110958 -0.000244684 0.000278716 1.1839e-05
-9.03502e-22 -0.0193603 0.00110958 0.052383 -0.0524652 -0.00075336
5.64689e-22 -0.0193496 0.00179959 0.0637105 -0.063623 -0.00132076
1.69407e-21 0.0193497 0.0017996 -0.000383385 0.000448914 1.27564e-05
1.12938e-21 -0.0193331 0.00252243 0.0593338 -0.0585864 -0.00173729
-2.25875e-21 0.0193332 0.00252246 -0.000412382 0.000479492 1.47103e-05
2.71051e-20 -0.0191251 0.00398458 0 0 0
0 0.0191255 0.00398476 0 0 0
2.71051e-20 -0.0191698 0.00393531 0.00416281 -0.00390042 -0.000223326
0 0.01917 0.00393559 -3.31903e-05 3.89086e-05 2.13937e-06
-4.51751e-21 -0.0192999 0.00324536 0.0365617 -0.0353024 -0.00143944
-2.25875e-21 0.0193 0.00324549 -0.0002937 0.000340678 1.37161e-05
-2.71051e-20 -0.0196204 0.00023725 0.0126247 -0.0120267 -0.000651266
-2.71051e-20 0.0196204 0.000237252 -2.88666e-06 7.92807e-07 5.82286e-07
0 -0.0192179 0.00403218 0 0 0
0 0.019218 0.00403225 0 0 0
0 -0.0196557 0.000771332 0.0437163 -0.0439914 -0.000712465
2.71051e-20 0.0196557 0.000771331 -0.000156127 0.000140922 2.11889e-05
-3.38813e-21 -0.019699 2.94695e-13 0 0 0
-3.38813e-21 0.0196992 2.94512e-13 0 0 0
-4.51751e-22 -0.019364 0.0036912 0.0213098 -0.0201848 -0.00101555
4.51751e-22 0.0193642 0.00369132 -0.000180889 0.000210359 1.02291e-05
0 -0.0196876 0.00139268 0.06062 -0.0609255 -0.00112767
0 0.0196876 0.00139268 -0.000336591 0.000396051 1.65477e-05
-2.71051e-20 -0.0196587 0.00213403 0.0704403 -0.0702689 -0.00206832
0 0.0196588 0.00213406 -0.000457203 0.000535413 1.365e-05
1.35525e-20 0.0193748 0.00398188 -6.47096e-05 7.50505e-05 4.49623e-06
-1.35525e-20 -0.0193751 0.00398171 0.00740149 -0.00679136 -0.000473217
1.35525e-20 0.0193748 0.00411568 0 0 0
-6.77626e-21 -0.0193751 0.00411583 0 0 0
-5.42101e-20 -0.0196509 0.00284941 0.0563793 -0.0550385 -0.00207769
2.71051e-20 0.0196509 0.00284946 -0.000445416 0.000516441 1.83006e-05
9.03502e-22 0.0199546 0.000463669 -5.06485e-05 5.75547e-05 2.32396e-06
2.25875e-21 -0.0199546 0.00046367 0.0257283 -0.025827 -0.000519396
2.71051e-20 -0.0196743 0.00348115 0.036291 -0.0342324 -0.00180204
2.71051e-20 0.0196743 0.00348125 -0.000311741 0.000360973 1.67785e-05
0 -0.0195407 0.00420391 0 0 0
-6.77626e-21 0.0195414 0.00420428 0 0 0
0 -0.0199999 3.09655e-13 0 0 0
6.77626e-21 -0.0199999 2.958e-05 0.00158011 -0.00153077 -6.033e-05
-6.77626e-21 0.02 3.09366e-13 0 0 0
0 0.02 2.95532e-05 -4.47972e-07 5.0681e-07 6.99546e-09
6.77626e-21 -0.02 0.000220921 0.0124551 -0.0124942 -0.000236685
3.38813e-21 0.02 0.00022081 -2.27628e-05 2.71353e-05 5.75406e-07
0 -0.0200415 5.23094e-14 0 0 0
0 0.0200415 5.22561e-14 0 0 0
1.35525e-20 -0.0196489 0.00406133 0.0109094 -0.0100418 -0.000674405
1.0842e-20 0.0196492 0.00406167 -9.37712e-05 0.000108925 6.44973e-06
0 0.0200712 2.48757e-05 2.35734e-07 2.52087e-07 -4.16786e-08
0 -0.0200712 2.48981e-05 0.00142016 -0.00147856 5.46289e-05
0 0.0200746 3.09587e-14 0 0 0
0 -0.0200747 3.09943e-14 0 0 0
0 0.0199955 0.0017906 -0.000403925 0.000478406 1.25987e-05
-4.23516e-22 -0.0199954 0.00179105 0.066208 -0.0664694 -0.0016575
9.03502e-21 0.0200905 0.000960733 -0.000186953 0.000229315 2.92275e-06
-4.51751e-21 -0.0200905 0.000960726 0.0463066 -0.0466938 -0.000856095
4.84019e-22 -0.0200182 0.00244878 0.0645696 -0.0638951 -0.00234402
-8.06698e-22 0.0200183 0.00244888 -0.000474387 0.000554266 1.67069e-05
-1.35525e-20 -0.0197164 0.0042974 0 0 0
-2.71051e-20 0.0197167 0.00429758 0 0 0
0 0.020182 1.06922e-14 0 0 0
0 -0.0201821 1.07019e-14 0 0 0
-5.64689e-22 -0.019968 0.00317457 0.0505905 -0.0486178 -0.00249712
1.12938e-21 0.019968 0.00317464 -0.00042597 0.000493693 1.89578e-05
1.35525e-20 -0.0198178 0.00435143 0 0 0
-1.35525e-20 0.0198179 0.00435149 0 0 0
-1.35525e-20 -0.0198553 0.00424439 0.00621015 -0.00586283 -0.000334189
0 0.0198553 0.00424466 -6.24751e-05 7.44897e-05 4.04124e-06
7.52918e-22 -0.0199716 0.00386195 0.0266592 -0.0248023 -0.00169803
3.76459e-22 0.0199717 0.00386203 -0.000236978 0.000274527 1.3285e-05
2.25875e-21 -0.0204272 0.00031081 0.0178931 -0.0180306 -0.000325957
-2.25875e-21 0.0204272 0.000310799 -9.18876e-06 4.4717e-06 1.76744e-06
2.71051e-20 -0.0204209 0.00146754 0.0649466 -0.0657785 -0.00149834
-2.71051e-20 0.0204209 0.00146753 -0.00037411 0.000458349 3.86219e-06
-2.71051e-20 -0.0202842 0.00282336 0.0636955 -0.0622709 -0.00307997
0 0.0202843 0.00282341 -0.000534401 0.000621162 2.00767e-05
6.77626e-21 0.0199999 0.00444852 0 0 0
6.77626e-21 -0.0200001 0.00444866 0 0 0
-2.71051e-20 -0.0204145 0.00196506 0.0713092 -0.0720169 -0.00208128
0 0.0204145 0.00196508 -0.000469179 0.000557128 1.46514e-05
1.35525e-20 0.020525 4.12258e-15 0 0 0
2.71051e-20 -0.0205251 4.1176e-15 0 0 0
6.77626e-21 -0.0200603 0.00448072 0 0 0
0 0.0200605 0.00448086 0 0 0
2.71051e-20 -0.0202766 0.00350283 0.0477693 -0.0447388 -0.0031106
0 0.0202767 0.00350292 -0.000427084 0.000493437 2.09682e-05
3.38813e-21 -0.0201017 0.00441369 0.00514924 -0.00467548 -0.000448904
3.38813e-21 0.0201022 0.00441328 -4.51219e-05 5.1042e-05 2.82775e-06
-6.77626e-21 -0.0201267 0.00451611 0 0 0
6.77626e-21 0.0201275 0.00451657 0 0 0
3.01167e-21 -0.0202112 0.00425305 0.0171747 -0.0155946 -0.00145526
-4.51751e-21 0.0202113 0.00425322 -0.000152871 0.000174586 9.46254e-06
1.6134e-22 -0.0206625 0.000857339 0.0393471 -0.0399692 -0.000897876
7.26028e-22 0.0206626 0.00085731 -0.000133302 0.000173547 1.42942e-06
-1.35525e-20 0.0206911 7.74573e-16 0 0 0
0 -0.0206911 7.64323e-16 0 0 0
-1.35525e-20 -0.0206295 0.00169559 0.068428 -0.0693535 -0.0018781
-1.35525e-20 0.0206296 0.00169559 -0.000423202 0.000510152 1.10536e-05
1.41172e-21 -0.0206304 0.00244038 0.0695465 -0.0691967 -0.00290327
-4.23516e-22 0.0206304 0.0024404 -0.000544213 0.000639011 1.8187e-05
0 -0.0205956 0.00315757 0.0598957 -0.0576981 -0.00347436
0 0.0205957 0.00315762 -0.000532447 0.000618294 2.1254e-05
0 -0.0203415 0.00463057 0 0 0
-1.35525e-20 0.0203419 0.00463079 0 0 0
0 -0.0208473 0.00142111 0.0649653 -0.066332 -0.00172233
0 0.0208474 0.00142109 -0.000370022 0.000451722 1.15147e-05
2.71051e-20 -0.0203946 0.00457335 0.00529746 -0.00464185 -0.000508735
2.71051e-20 0.0203949 0.0045737 -4.37733e-05 5.08476e-05 2.80172e-06
2.25875e-21 -0.0205528 0.00387349 0.0384831 -0.0355735 -0.00287679
0 0.0205529 0.00387366 -0.000357528 0.000413256 1.83232e-05
0 -0.0208263 0.00194408 0.0728001 -0.0738159 -0.00231171
0 0.0208263 0.0019441 -0.000492592 0.000590135 1.56058e-05
6.77626e-21 0.020952 1.83096e-16 0 0 0
0 -0.0209522 1.78175e-16 0 0 0
0 -0.0209679 0.000111585 0.00588917 -0.00596194 -0.000106564
-8.47033e-22 0.020968 0.000112714 -1.7828e-06 1.15154e-06 3.49782e-06
-2.71051e-20 -0.0204458 0.00468612 0 0 0
0 -0.0209761 3.89075e-17 0 0 0
0 0.020446 0.00468621 0 0 0
-6.77626e-21 0.0209762 4.11732e-17 0 0 0
-1.12938e-21 0.020982 0.000349479 -1.28976e-05 1.24911e-05 9.55654e-06
-5.64689e-22 -0.0209821 0.000349501 0.0187219 -0.0190013 -0.00035851
-3.38813e-22 -0.0206056 0.00432302 0.0237681 -0.0213313 -0.00207404
6.77626e-22 0.0206057 0.00432315 -0.000215663 0.000249295 1.28212e-05
-2.71051e-20 -0.020934 0.00277551 0.0709588 -0.0701765 -0.00357923
0 0.020934 0.00277555 -0.000622114 0.000726595 1.96544e-05
1.35525e-20 0.0206249 0.00478151 0 0 0
0 -0.0206251 0.00478166 0 0 0
0 -0.0208973 0.00349615 0.0578487 -0.0543769 -0.00412972
0 0.0208974 0.00349623 -0.00055046 0.000637118 2.42158e-05
-2.71051e-20 -0.02125 -2.7536e-16 0 0 0
0 0.02125 -2.77493e-16 0 0 0
-3.38813e-20 -0.0207393 0.0048425 0 0 0
2.71051e-20 0.0207401 0.00484287 0 0 0
4.51751e-21 -0.020785 0.00466278 0.012021 -0.010358 -0.00128987
9.03502e-21 0.0207851 0.00466305 -0.000103477 0.000119811 6.97636e-06
-5.42101e-20 -0.020919 0.0041165 0.0407193 -0.0367136 -0.00349856
0 0.0209191 0.00411663 -0.00037609 0.000433254 2.08865e-05
-2.82344e-22 0.0212543 0.00168707 -0.000446735 0.000542732 1.35781e-05
-2.82344e-22 -0.0212543 0.00168707 0.0689876 -0.0705323 -0.00208263
3.01167e-21 -0.0213188 0.000900049 0.0410423 -0.0425054 -0.00109481
-1.50584e-21 0.0213188 0.000900019 -0.000156416 0.000193412 4.06631e-06
-1.35525e-20 -0.0213463 0.000122192 0.00646814 -0.00689677 -0.00020928
1.35525e-20 0.0213464 0.000122392 -6.91599e-07 2.45079e-06 -4.51226e-06
0 -0.021355 -2.3845e-18 0 0 0
0 0.0213552 -1.52921e-18 0 0 0
-4.51751e-21 -0.0212895 0.00229431 0.0722594 -0.0725992 -0.00312496
-3.38813e-21 0.0212895 0.00229433 -0.000587256 0.000695635 2.0528e-05
-2.71051e-20 -0.0214256 -2.50478e-16 0 0 0
-1.35525e-20 0.0214259 -2.50917e-16 0 0 0
6.77626e-22 -0.0212264 0.00310846 0.0678765 -0.0660427 -0.00400633
2.25875e-22 0.0212264 0.00310856 -0.000635306 0.000740224 2.59938e-05
0 -0.0209342 0.00494631 0 0 0
-1.35525e-20 0.0209345 0.00494647 0 0 0
-1.12938e-21 -0.0212107 0.00381738 0.0545275 -0.0504917 -0.00423941
0 0.0212107 0.00381746 -0.000523377 0.000604839 2.66707e-05
-2.71051e-20 -0.0215712 0.000127436 0.00760228 -0.00802805 -0.000136251
-1.35525e-20 0.0215719 0.000127681 -1.24602e-07 5.44205e-07 -2.55089e-07
4.06576e-20 -0.0216067 1.47634e-16 0 0 0
-1.35525e-20 0.0216074 1.47373e-16 0 0 0
2.71051e-20 -0.0210473 0.00500657 0 0 0
1.35525e-20 0.0210475 0.00500662 0 0 0
-1.35525e-20 -0.0210904 0.00488681 0.00819863 -0.00718497 -0.000785225
-4.06576e-20 0.0210904 0.00488706 -7.88539e-05 9.45091e-05 5.3964e-06
-7.52918e-22 -0.0212076 0.00450575 0.0310273 -0.0274796 -0.00296152
-4.89397e-21 0.0212077 0.00450582 -0.000280919 0.000325138 1.73153e-05
0 -0.0215471 0.00276786 0.0749594 -0.0745884 -0.00393379
0 0.0215471 0.00276788 -0.000704606 0.000825558 2.92697e-05
0 -0.0215274 0.00347141 0.0667171 -0.0634478 -0.00461676
-5.42101e-20 0.0215275 0.00347146 -0.00067615 0.000782835 3.23021e-05
0 0.0212499 0.0051145 0 0 0
-1.69407e-20 -0.0212502 0.00511463 0 0 0
3.38813e-21 -0.0212808 0.00513096 0 0 0
0 0.0212811 0.00513109 0 0 0
0 -0.0213032 0.0050955 0.00328353 -0.00282156 -0.000400547
0 0.0213038 0.00509507 -2.71677e-05 3.08849e-05 1.94696e-06
-2.71051e-20 -0.0215161 0.00414688 0.0545182 -0.0491319 -0.00480767
2.71051e-20 0.0215162 0.00414698 -0.000509553 0.000588031 2.99085e-05
-3.38813e-21 -0.0213149 0.00514909 0 0 0
0 0.0213156 0.0051495 0 0 0
-5.42101e-20 -0.0219062 0.00171817 0.0694451 -0.0719089 -0.00229376