# U  POINT_DATA 14932
# x  y  z  U_x  U_y  U_z
-1.35525e-20 0.014142 1.6805e-07 0 0 0
1.35525e-20 -0.014142 1.6805e-07 0 0 0
-3.38813e-21 0.014142 0.00038916 0 0 0
6.77626e-21 -0.014142 0.000389158 0 0 0
3.38813e-21 0.014142 0.000654608 0 0 0
1.35525e-20 -0.014142 0.000654611 0 0 0
1.35525e-20 0.014142 0.0010436 0 0 0
1.35525e-20 -0.014142 0.0010436 0 0 0
3.38813e-21 0.014142 0.00143258 0 0 0
-3.38813e-21 -0.014142 0.00143258 0 0 0
0 -0.0142373 0.000284209 0.00196639 -0.00200892 1.40148e-05
-1.35525e-20 0.0142373 0.000284209 -1.76107e-05 1.77129e-05 4.12031e-07
-1.01644e-20 0.014142 0.00169802 0 0 0
-1.69407e-20 -0.014142 0.00169802 0 0 0
2.71051e-20 0.0142373 0.000886385 -1.76107e-05 1.7713e-05 4.12033e-07
0 -0.0142373 0.000886387 0.00196638 -0.00200891 1.40147e-05
6.77626e-21 -0.0142692 1.47356e-07 0 0 0
0 0.0142693 1.47356e-07 0 0 0
-1.35525e-20 0.0142379 0.00122537 -3.31705e-05 3.15993e-05 -1.20859e-06
0 -0.0142379 0.00122537 0.00277163 -0.00273415 -6.53331e-05
-1.35525e-20 0.014142 0.002087 0 0 0
1.35525e-20 -0.014142 0.002087 0 0 0
0 -0.0142973 0.00010195 0.00138543 -0.00124303 -6.27653e-05
0 0.0142973 0.000101947 -1.42401e-06 5.10212e-07 -1.47146e-07
1.35525e-20 0.0142379 0.00182859 -3.31703e-05 3.15991e-05 -1.20859e-06
0 -0.0142379 0.00182859 0.00277164 -0.00273416 -6.53334e-05
1.35525e-20 -0.014375 1.30158e-07 0 0 0
0 0.014375 1.30158e-07 0 0 0
-1.35525e-20 0.0143674 0.000671835 -4.17641e-05 4.16595e-05 1.85569e-07
0 -0.0143674 0.000671836 0.0049213 -0.00513395 -6.84871e-05
-6.77626e-21 0.0142627 0.00213224 0 0 0
-6.77626e-21 -0.0142627 0.00213225 0 0 0
0 0.0142982 0.00203098 -3.2853e-05 3.04388e-05 -5.86837e-07
0 -0.0142982 0.00203099 0.00315087 -0.00313615 -1.88447e-05
0 0.0143693 0.00147446 -7.6869e-05 7.65614e-05 -3.631e-07
-2.71051e-20 -0.0143693 0.00147446 0.00682231 -0.00696317 -5.41085e-05
-4.92819e-21 0.0145076 0.000511139 -5.97299e-05 5.99178e-05 2.60967e-08
2.4641e-21 -0.0145076 0.000511141 0.00695597 -0.00689469 5.36459e-05
0 -0.0145274 1.02816e-07 0 0 0
-4.06576e-20 0.0145274 1.02816e-07 0 0 0
1.35525e-20 0.014375 0.00217431 0 0 0
2.71051e-20 -0.014375 0.00217431 0 0 0
0 0.0144982 0.00108838 -0.000111032 0.000112014 6.49238e-08
1.12938e-21 -0.0144982 0.00108838 0.0102179 -0.0102208 -3.35031e-05
3.76459e-22 -0.0145753 0.000290334 0.00345633 -0.00398088 -0.000101873
-5.64689e-22 0.0145754 0.000290329 -4.65776e-06 7.09249e-06 4.35292e-07
1.23205e-21 0.014511 0.00167594 -0.00010811 0.000109327 1.8558e-07
0 -0.014511 0.00167595 0.00971687 -0.00971498 -0.000126204
-2.71051e-20 -0.0146106 8.78837e-08 0 0 0
2.71051e-20 0.0146106 8.78835e-08 0 0 0
2.71051e-20 0.0145143 0.00222654 0 0 0
0 -0.0145144 0.00222654 0 0 0
-1.12938e-21 0.0146672 0.000846041 -0.000115354 0.000124694 -4.19046e-06
1.12938e-21 -0.0146672 0.000846045 0.0113884 -0.0120609 -0.000146413
9.41148e-23 0.0145785 0.00192704 -8.41135e-05 9.17293e-05 9.87891e-07
1.8823e-22 -0.0145785 0.00192707 0.00791657 -0.00840982 3.85281e-05
-3.38813e-21 0.0146707 0.00137874 -0.000154054 0.00016424 2.99538e-06
2.25875e-21 -0.0146707 0.00137875 0.0135148 -0.014185 -1.30702e-05
-2.71051e-20 0.0145865 0.0022536 0 0 0
0 -0.0145866 0.00225361 0 0 0
1.35525e-20 0.0147491 0.000649276 -9.02042e-05 9.79018e-05 -2.98369e-06
0 -0.0147491 0.000649279 0.0103181 -0.010547 0.000105627
-8.47033e-21 0.0147844 0.000655031 -9.66988e-05 9.76161e-05 1.19549e-07
3.38813e-21 -0.0147844 0.000655034 0.0108398 -0.0107984 0.000112083
0 0.0147988 0.000871585 -0.000137729 0.000145775 -3.13147e-06
6.77626e-21 -0.0147988 0.000871591 0.0132885 -0.0138756 -4.22576e-05
0 0.0147845 0.00117651 -0.00016782 0.000171076 4.53193e-07
6.02335e-21 -0.0147845 0.00117652 0.0150683 -0.0151949 -2.65647e-05
0 0.0147605 0.00160861 -0.000161049 0.000169661 2.60542e-06
0 -0.0147605 0.00160862 0.0143397 -0.0146649 -0.00023303
-1.35525e-20 0.0147977 0.00158745 -0.000170237 0.000175077 9.36605e-07
1.72487e-20 -0.0147977 0.00158746 0.0147135 -0.0150545 -0.0001315
6.77626e-21 -0.0148904 6.18649e-08 0 0 0
1.35525e-20 0.0148905 6.18648e-08 0 0 0
0 0.0147312 0.00230781 0 0 0
0 -0.0147313 0.00230783 0 0 0
3.29402e-22 -0.0149957 0.000282608 0.00580461 -0.00601634 5.70424e-05
-5.64689e-22 0.0149957 0.00028261 -6.25432e-06 6.47258e-06 8.92758e-08
2.71051e-20 -0.015 5.89037e-08 0 0 0
0 0.015 5.89034e-08 0 0 0
2.63521e-21 0.0149668 0.00202068 -0.000136739 0.000140852 3.45673e-07
-1.8823e-21 -0.0149669 0.00202069 0.0114354 -0.012104 3.33241e-06
-2.25875e-21 0.0150976 0.000881085 -0.000170805 0.000173517 4.39017e-07
-4.51751e-21 -0.0150976 0.00088109 0.0174537 -0.0177092 5.84572e-05
1.69407e-21 -0.015 0.00226026 0.0047355 -0.00503695 -2.83145e-06
1.69407e-21 0.015 0.00226035 -5.59883e-05 5.73829e-05 1.44808e-07
-2.25875e-21 0.0151055 0.00145482 -0.000222901 0.000227543 5.57078e-07
-2.25875e-21 -0.0151055 0.00145483 0.0199796 -0.0204144 -1.72743e-05
-3.38813e-21 -0.015 0.00240853 0 0 0
3.38813e-21 0.015 0.00240854 0 0 0
2.37169e-20 0.0150362 0.00242211 0 0 0
0 -0.0150362 0.00242211 0 0 0
-2.71051e-20 0.01529 2.82762e-08 0 0 0
-2.71051e-20 -0.01529 2.82764e-08 0 0 0
-3.38813e-21 0.015119 0.00245307 0 0 0
3.38813e-21 -0.015119 0.0024531 0 0 0
2.71051e-20 0.0153534 0.000582976 -0.000111653 0.000113948 1.54536e-07
5.42101e-20 -0.0153534 0.000582978 0.0145642 -0.0145038 9.22121e-05
-2.71051e-20 0.0153937 0.00118118 -0.000242802 0.000248537 5.77009e-07
0 -0.0153937 0.00118119 0.0226415 -0.02273 2.6502e-05
0 0.0153686 0.00185159 -0.000221717 0.000227707 9.97925e-07
-2.71051e-20 -0.0153687 0.00185159 0.0186861 -0.0188979 -1.74805e-05
-1.35525e-20 0.0152769 0.00251208 0 0 0
0 -0.0152769 0.0025121 0 0 0
6.77626e-21 0.0153113 0.00239115 -6.64667e-05 7.32776e-05 -1.90718e-07
6.77626e-21 -0.0153113 0.00239115 0.00462238 -0.00496347 5.43093e-05
-2.25875e-21 0.015375 0.00227891 -0.000129414 0.000141352 -2.33371e-07
0 -0.015375 0.00227891 0.00915792 -0.00976737 9.19983e-05
2.20229e-20 0.015625 2.01014e-08 0 0 0
2.03288e-20 -0.015625 2.01012e-08 0 0 0
1.18585e-20 0.0156405 1.9576e-08 0 0 0
1.01644e-20 -0.0156405 1.95765e-08 0 0 0
1.12938e-21 0.0156636 0.000293521 -1.112e-05 1.14273e-05 1.85654e-08
2.25875e-21 -0.0156636 0.000293518 0.00946639 -0.00938644 2.96366e-05
-1.35525e-20 -0.0154657 0.00258282 0 0 0
0 0.0154657 0.00258282 0 0 0
-2.25875e-21 -0.015717 0.000894934 0.0249333 -0.0248061 5.20095e-05
-6.77626e-21 0.015717 0.000894932 -0.000236876 0.000243141 3.94979e-07
0 0.0157234 0.00153502 -0.000323764 0.00033354 1.70215e-06
4.51751e-21 -0.0157234 0.00153501 0.0287374 -0.0287105 0.000102759
0 -0.015651 0.00230882 0.0131973 -0.0133983 4.65765e-05
-8.47033e-22 0.015651 0.00230883 -0.0001711 0.000176508 1.33326e-06
-1.35525e-20 0.0156249 0.00255271 -5.12264e-05 5.29718e-05 5.26363e-07
1.35525e-20 -0.0156249 0.0025527 0.00421933 -0.00419664 -2.46126e-05
6.77626e-21 0.0156249 0.0026425 0 0 0
-6.77626e-21 -0.0156249 0.00264251 0 0 0
-9.03502e-21 0.0157441 0.00206315 -0.000257674 0.000265535 1.94323e-06
1.35525e-20 -0.0157441 0.00206315 0.020471 -0.0206547 0.000100596
2.71051e-20 0.015972 1.09709e-08 0 0 0
0 -0.015972 1.09709e-08 0 0 0
2.71051e-20 -0.0157578 0.00269219 0 0 0
2.71051e-20 0.0157578 0.00269219 0 0 0
0 -0.0157985 0.00252729 0.0084665 -0.0084292 -4.0586e-05
-8.13152e-21 0.0157985 0.0025273 -0.000104371 0.000106015 1.20933e-06
-2.71051e-20 0.0160282 0.000587523 -0.00013964 0.000144156 1.28389e-07
2.71051e-20 -0.0160282 0.000587524 0.0195092 -0.0194048 2.54293e-05
0 0.0160587 0.00121789 -0.000329048 0.000340344 1.14037e-06
0 -0.0160587 0.00121789 0.0311379 -0.0310447 4.88405e-05
0 0.0160379 0.00190439 -0.000331265 0.000343462 2.17772e-06
2.71051e-20 -0.0160379 0.00190438 0.0273071 -0.0273962 7.02884e-05
0 -0.0159573 0.00276704 0 0 0
0 0.0159573 0.00276704 0 0 0
1.12938e-20 -0.0160447 0.00231947 0.0188539 -0.018924 4.1114e-05
-4.51751e-21 0.0160447 0.0023195 -0.000237817 0.000246592 2.05604e-06
6.77626e-21 0.01625 8.16826e-09 0 0 0
-6.77626e-21 -0.01625 8.16829e-09 0 0 0
-2.25875e-21 0.0163415 0.000297249 -2.30212e-05 2.3861e-05 4.31697e-11
2.25875e-21 -0.0163415 0.000297252 0.0116193 -0.0114957 6.60236e-06
6.77626e-21 0.0163888 5.62448e-09 0 0 0
-2.03288e-20 -0.0163888 5.62434e-09 0 0 0
-2.25875e-21 -0.0163799 0.000909686 0.0310432 -0.0307867 9.95183e-06
4.51751e-21 0.0163799 0.000909686 -0.000291994 0.0003029 3.77508e-07
-1.6263e-20 0.0163164 0.002107 -0.000363571 0.00037754 2.97688e-06
0 -0.0163164 0.00210699 0.0292458 -0.0292821 8.75729e-05
-6.77626e-21 -0.0163934 0.00156024 0.036601 -0.0363786 5.86903e-05
2.25875e-21 0.0163934 0.00156024 -0.00042128 0.000437971 2.21817e-06
-1.35525e-20 0.0162498 0.00287804 0 0 0
2.37169e-20 -0.0162499 0.00287808 0 0 0
6.77626e-21 -0.016295 0.00289505 0 0 0
-1.01644e-20 0.0162953 0.00289514 0 0 0
0 -0.0163557 0.00265169 0.013687 -0.0136096 -6.51028e-05
0 0.0163557 0.00265171 -0.000167662 0.000173499 1.79732e-06
-2.71051e-20 0.0166549 2.57177e-09 0 0 0
0 -0.0166549 2.57172e-09 0 0 0
-2.71051e-20 0.0166923 0.000591889 -0.000166672 0.000173448 5.32016e-09
-2.71051e-20 -0.0166923 0.000591889 0.023512 -0.0232763 7.29297e-06
2.71051e-20 -0.0165883 0.00300631 0 0 0
2.71051e-20 0.0165884 0.00300634 0 0 0
0 0.0168225 0.00122844 -0.000422416 0.000440735 1.34117e-06
4.51751e-21 -0.0168225 0.00122844 0.0394307 -0.0391076 -2.20339e-05
-1.35525e-20 0.016875 2.08171e-09 0 0 0
-2.71051e-20 -0.016875 2.08167e-09 0 0 0
4.51751e-21 -0.0167185 0.00238646 0.0287907 -0.02875 -5.41427e-05
9.03502e-21 0.0167185 0.00238653 -0.000364384 0.000379555 3.43897e-06
9.03502e-21 0.0167785 0.00193449 -0.000466117 0.000486145 3.43272e-06
-6.77626e-21 -0.0167785 0.00193449 0.0381374 -0.0379834 -2.50511e-05
-8.13152e-21 0.0169401 0.000818251 -0.000301504 0.000314799 -1.31252e-07
2.71051e-21 -0.0169401 0.000818252 0.033661 -0.0333461 -6.27093e-06
0 0.0170157 0.000298678 -3.74714e-05 3.91203e-05 -1.93189e-08
-6.77626e-21 -0.0170157 0.000298678 0.0132294 -0.0130579 2.22658e-05
-6.77626e-21 -0.0168116 0.00309149 0 0 0
6.77626e-21 0.0168118 0.00309158 0 0 0
-2.71051e-20 0.0170535 0.00156148 -0.000540389 0.000565339 2.95978e-06
0 -0.0170535 0.00156147 0.0454651 -0.0451053 -8.33646e-05
1.35525e-20 -0.0171302 1.11108e-09 0 0 0
0 0.0171302 1.11109e-09 0 0 0
-6.77626e-21 0.0168748 0.00300377 -8.18126e-05 8.50323e-05 9.48849e-07
-3.38813e-21 -0.016875 0.00300312 0.00612848 -0.00617441 -2.57151e-05
6.77626e-21 0.0168748 0.00311544 0 0 0
3.38813e-21 -0.0168751 0.00311552 0 0 0
2.25875e-21 -0.0169651 0.00280897 0.0178771 -0.0179776 -7.44491e-05
4.51751e-21 0.0169652 0.00280902 -0.000238395 0.000248055 2.74107e-06
-2.71051e-20 -0.0170597 0.00222742 0.0396855 -0.0396016 -0.000149314
-2.71051e-20 0.0170597 0.00222745 -0.00050219 0.000524486 4.66083e-06
2.71051e-20 0.0173299 6.20518e-10 0 0 0
-5.42101e-20 -0.0173299 6.2051e-10 0 0 0
0 -0.0170862 0.00319594 0 0 0
2.71051e-20 0.0170864 0.00319602 0 0 0
9.03502e-21 0.0174049 0.000633537 -0.000212373 0.000222654 -3.52801e-07
6.77626e-21 -0.0174049 0.000633537 0.028488 -0.0282116 -2.12537e-05
-4.51751e-21 -0.0173768 0.00122554 0.0441877 -0.0438198 -0.000111757
-2.25875e-21 0.0173768 0.00122555 -0.000478284 0.000501798 1.3648e-06
0 -0.0173842 0.00190622 0.0461463 -0.0458937 -0.000204268
-1.35525e-20 0.0173842 0.00190623 -0.000574982 0.00060322 4.69174e-06
4.06576e-20 0.0175 5.31041e-10 0 0 0
0 -0.0175 5.31033e-10 0 0 0
2.71051e-20 0.0175 0.000142326 -2.61017e-06 2.79581e-06 4.85934e-09
-1.35525e-20 -0.0175 0.000142327 0.00718945 -0.00710108 2.0718e-05
1.35525e-20 -0.0172465 0.00325641 0 0 0
2.03288e-20 0.0172466 0.00325643 0 0 0
0 -0.0172975 0.00308987 0.00895503 -0.00933707 7.5361e-05
2.71051e-20 0.0172975 0.00309007 -0.000145787 0.000161694 2.20359e-06
-3.38813e-21 0.0174273 0.00267257 -0.000396998 0.000417352 4.82763e-06
5.64689e-21 -0.0174273 0.00267255 0.0289102 -0.0289448 -0.000181213
-2.71051e-20 0.0176746 0.000289047 -5.25342e-06 5.60093e-06 3.65643e-09
-2.71051e-20 -0.0176746 0.000289047 0.0142554 -0.0140774 3.73368e-05
0 0.0177002 0.000896397 -0.000393602 0.000413807 -1.04923e-06
0 -0.0177002 0.000896392 0.0422705 -0.0419076 -0.000115021
1.69407e-21 -0.0174509 0.00333352 0 0 0
1.69407e-21 0.0174516 0.00333379 0 0 0
-2.71051e-20 0.0177154 0.00155334 -0.000631422 0.000664946 3.7736e-06
0 -0.0177154 0.00155333 0.0517971 -0.0513925 -0.000240419
1.69407e-21 -0.0174773 0.00332283 0.000996411 -0.00103892 8.38529e-06
0 0.0174776 0.00332327 -1.59637e-05 1.77054e-05 2.41292e-07
0 -0.0174819 0.00334524 0 0 0
0 0.0174821 0.0033453 0 0 0
0 0.0174998 0.00332149 -2.38774e-05 2.51306e-05 3.45646e-07
1.69407e-21 -0.0174999 0.00332102 0.00156509 -0.00157276 -1.69406e-05
0 0.0174997 0.00334181 -8.66512e-06 9.11355e-06 1.20049e-07
1.69407e-21 -0.0174999 0.00334168 0.000600088 -0.000593699 -1.37612e-05
0 0.0174997 0.00335193 0 0 0
0 -0.0174999 0.00335198 0 0 0
-2.71051e-20 -0.0177081 0.00225899 0.0484145 -0.0482404 -0.000350615
0 0.0177081 0.00225902 -0.000634955 0.000667702 7.39929e-06
-1.35525e-20 -0.0178538 1.78852e-10 0 0 0
-1.35525e-20 0.0178538 1.78853e-10 0 0 0
1.35525e-20 -0.0178632 0.000120417 0.0060827 -0.00600793 1.75286e-05
-1.35525e-20 0.0178632 0.000120416 -2.20835e-06 2.36542e-06 4.11128e-09
9.03502e-21 -0.017635 0.00307305 0.0169808 -0.0170871 -0.000197528
-9.03502e-21 0.0176351 0.00307313 -0.000261797 0.00026932 3.67716e-06
0 -0.0176457 0.00307746 0.0171853 -0.0172718 -0.000209845
-1.35525e-20 0.0176457 0.00307753 -0.000264579 0.000271823 3.71353e-06
-1.35525e-20 0.0179989 9.38387e-11 0 0 0
1.35525e-20 -0.0179989 9.38379e-11 0 0 0
0 -0.0180168 0.00057603 0.0288402 -0.028576 -8.61665e-05
0 0.0180168 0.00057603 -0.000202372 0.000212543 -2.90177e-07
4.51751e-21 -0.0180391 0.00120807 0.0487393 -0.0484079 -0.000265357
0 0.0180391 0.00120807 -0.00053559 0.000564297 2.13488e-06
-2.71051e-20 -0.0177836 0.00345876 0 0 0
-1.35525e-20 0.0177837 0.00345884 0 0 0
1.35525e-20 0.0181253 8.3883e-11 0 0 0
0 -0.0181253 8.38822e-11 0 0 0
-1.35525e-20 -0.0181254 0.000104633 0.00553224 -0.00542222 -4.10062e-05
-1.35525e-20 0.0181255 0.000104633 -2.0744e-06 2.23383e-06 -8.29421e-08
0 -0.0180399 0.00190087 0.0531067 -0.052801 -0.000500336
4.51751e-21 0.0180399 0.00190089 -0.000684842 0.000722952 6.61872e-06
0 -0.0178455 0.00338254 0.00580007 -0.00573833 -0.000133007
0 0.0178456 0.00338269 -8.50991e-05 8.9503e-05 1.17898e-06
2.25875e-21 -0.0180098 0.0026349 0.0386041 -0.0383882 -0.000507533
0 0.0180098 0.00263498 -0.000551525 0.000582473 7.7207e-06
0 -0.0179191 0.00350977 0 0 0
0 0.0179192 0.00350979 0 0 0
-3.61401e-21 -0.0180588 0.00311986 0.0218685 -0.0216906 -0.000351923
-2.25875e-21 0.0180589 0.00311992 -0.000339395 0.000358702 5.56608e-06
0 -0.0183343 0.000279701 0.0145595 -0.014275 -6.26241e-05
-2.71051e-20 0.0183343 0.000279704 -5.41927e-06 5.81623e-06 -1.35053e-07
0 -0.0183564 0.000873036 0.0452092 -0.0449688 -0.000203686
-2.71051e-20 0.0183565 0.000873036 -0.000417224 0.000437605 -1.13637e-08
-2.71051e-20 0.0183698 0.00152854 -0.000705319 0.000746325 5.8646e-06
-2.71051e-20 -0.0183698 0.00152853 0.0560069 -0.0556844 -0.000504753
1.35525e-20 0.0181249 0.00358718 0 0 0
0 -0.018125 0.00358724 0 0 0
2.71051e-20 -0.0183583 0.00223916 0.0565226 -0.0561926 -0.000903491
0 0.0183583 0.0022392 -0.000771338 0.000816754 9.41685e-06
0 0.0185566 2.08891e-11 0 0 0
0 -0.0185566 2.08891e-11 0 0 0
1.35525e-20 -0.0185599 8.40225e-05 0.00444252 -0.00435417 -3.2929e-05
-1.35525e-20 0.0185599 8.40238e-05 -1.66582e-06 1.79385e-06 -6.66056e-08
1.35525e-20 -0.0182298 0.00362666 0 0 0
6.77626e-21 0.0182303 0.00362685 0 0 0
9.03502e-21 -0.0182769 0.00344762 0.010537 -0.0102737 -0.00026092
0 0.018277 0.00344779 -0.000171548 0.000181689 3.18748e-06
-5.42101e-20 -0.0183882 0.00288112 0.0374661 -0.0368929 -0.000666817
-2.71051e-20 0.0183883 0.00288119 -0.000578481 0.00061317 1.02194e-05
-1.35525e-20 -0.0186588 1.21775e-11 0 0 0
0 0.0186588 1.21774e-11 0 0 0
2.25875e-21 -0.0186718 0.000554126 0.0298074 -0.0297119 -0.000103247
6.77626e-21 0.0186718 0.000554126 -0.000202065 0.000215077 -7.09328e-07
-1.12938e-21 -0.0186931 0.00117295 0.0516906 -0.0514723 -0.000464824
-3.38813e-21 0.0186931 0.00117295 -0.000567871 0.000604381 2.27014e-06
-1.35525e-20 -0.01875 1.12105e-11 0 0 0
1.35525e-20 0.01875 1.12102e-11 0 0 0
1.35525e-20 -0.01875 7.46541e-05 0.00397989 -0.00408755 9.96318e-05
-1.35525e-20 0.01875 7.46588e-05 -1.3393e-06 1.50729e-06 6.11561e-10
4.51751e-21 -0.0186935 0.00186318 0.0589276 -0.0586497 -0.000868685
3.38813e-21 0.0186935 0.0018632 -0.000783497 0.000833588 8.74689e-06
-1.35525e-20 -0.0184505 0.00370969 0 0 0
2.71051e-20 0.0184507 0.00370979 0 0 0
-1.12938e-21 -0.0186914 0.00255843 0.0508176 -0.0502235 -0.00108744
-1.12938e-21 0.0186914 0.00255847 -0.000746377 0.000793812 1.24817e-05
-4.06576e-20 -0.0185631 0.00375372 0 0 0
0 0.0185633 0.00375376 0 0 0
-1.35525e-20 -0.018598 0.00364592 0.00620103 -0.00623484 -6.10115e-05
-4.06576e-20 0.018598 0.00364611 -0.000119927 0.000136101 3.83817e-06
0 -0.0189815 0.000265107 0.014103 -0.0143426 0.000257765
-2.71051e-20 0.0189816 0.000265108 -4.94502e-06 5.54172e-06 1.01274e-07
1.12938e-21 -0.0187011 0.00326206 0.0261533 -0.0255147 -0.000732768
0 0.0187012 0.0032621 -0.000430596 0.000459346 9.46048e-06
2.71051e-20 -0.0190034 0.000835917 0.0462812 -0.0461765 -0.000408189
0 0.0190034 0.000835918 -0.00039353 0.000424014 -2.45054e-06
-2.71051e-20 -0.0190202 0.00148192 0.0595192 -0.0593105 -0.000746495
5.42101e-20 0.0190202 0.00148194 -0.00076085 0.000814615 6.15506e-06
-6.77626e-21 0.0187498 0.00382104 0 0 0
-1.35525e-20 -0.0187499 0.00382109 0 0 0
0 -0.0190135 0.00218681 0.0636567 -0.0634028 -0.00131556
-2.71051e-20 0.0190135 0.00218684 -0.000896148 0.000956344 1.35035e-05
-6.77626e-21 -0.0188253 0.00385016 0 0 0
0 0.0188256 0.00385027 0 0 0
-5.42101e-20 -0.0190102 0.00288285 0.0471874 -0.0459833 -0.00150441
0 0.0190103 0.00288292 -0.00075881 0.000809758 1.69277e-05
-6.77626e-21 -0.018869 0.00377278 0.00564674 -0.00539751 -0.000250601
6.77626e-21 0.0188695 0.00377248 -0.000100246 0.000101492 2.12703e-06
-1.35525e-20 0.0192456 1.60944e-12 0 0 0
-6.77626e-21 -0.0192456 1.60935e-12 0 0 0
0 0.0192458 5.21881e-05 -9.36203e-07 1.05363e-06 4.27495e-10
0 -0.0192459 5.21802e-05 0.00278179 -0.00285704 6.96387e-05
4.51751e-21 -0.0189593 0.00363159 0.0159101 -0.0152389 -0.000679349
-4.51751e-21 0.0189594 0.00363171 -0.000284527 0.000294704 6.69691e-06
-6.77626e-21 -0.0193107 8.87467e-13 0 0 0
0 0.0193107 8.87427e-13 0 0 0
1.35525e-20 -0.0189216 0.00388925 0 0 0
-6.77626e-21 0.0189225 0.00388962 0 0 0
2.25875e-21 -0.0193153 0.000516098 0.0287316 -0.0286838 -0.000381133
0 0.0193153 0.000516099 -0.000190182 0.000182511 8.39467e-06
1.35525e-20 -0.0193661 4.34921e-05 0.00229921 -0.00216074 -0.000144135
-6.77626e-21 0.0193662 4.35036e-05 -8.0427e-07 -1.64544e-07 3.14624e-07
6.77626e-21 -0.0193681 8.52526e-13 0 0 0
-6.77626e-21 0.0193681 8.52456e-13 0 0 0
9.03502e-22 0.0193579 0.00110753 -0.000568428 0.000588946 1.39653e-05
-9.03502e-22 -0.0193579 0.00110753 0.05212 -0.0522013 -0.000750166
-1.12938e-21 -0.0193482 0.00179878 0.0635462 -0.06346 -0.00131918
1.12938e-21 0.0193482 0.00179879 -0.000860153 0.000920343 1.42432e-05
-1.12938e-21 -0.0193328 0.00252219 0.0591996 -0.0584518 -0.00173718
0 0.0193329 0.00252223 -0.000902635 0.000967732 1.81492e-05
2.71051e-20 -0.0191251 0.00398458 0 0 0
0 0.0191255 0.00398476 0 0 0
2.71051e-20 -0.0191698 0.00393531 0.0041456 -0.0038839 -0.000222484
-1.35525e-20 0.01917 0.00393559 -7.07021e-05 7.58205e-05 2.05682e-06
-1.12938e-20 -0.0192999 0.00324532 0.0364595 -0.0351993 -0.00143937
-6.77626e-21 0.0192999 0.00324545 -0.00062935 0.000676138 1.69253e-05
-2.71051e-20 -0.0196143 0.000236549 0.0125295 -0.0119314 -0.000653083
0 0.0196143 0.000236555 -4.93082e-06 1.9824e-06 9.30772e-07
0 -0.0192179 0.00403218 0 0 0
0 0.019218 0.00403225 0 0 0
0 -0.0196507 0.000769621 0.0434862 -0.0437546 -0.000710567
-2.71051e-20 0.0196507 0.000769624 -0.000376048 0.000321517 3.34923e-05
5.64689e-22 -0.019364 0.0036912 0.0212369 -0.020112 -0.00101427
-7.90564e-22 0.0193642 0.00369131 -0.000383563 0.000413062 1.19421e-05
0 -0.0197262 4.3324e-13 0 0 0
3.38813e-21 0.0197263 4.33011e-13 0 0 0
-2.71051e-20 -0.0196852 0.0013914 0.0604417 -0.0607487 -0.00112649
-2.71051e-20 0.0196852 0.0013914 -0.000769916 0.000819893 2.02493e-05
5.42101e-20 -0.019658 0.00213353 0.0702938 -0.0701233 -0.00206794
0 0.019658 0.00213356 -0.00100823 0.00108417 1.74226e-05
0 0.0193748 0.00398188 -0.000134183 0.000144638 5.07425e-06
0 -0.0193751 0.00398171 0.00737358 -0.00676447 -0.000471933
1.35525e-20 0.0193748 0.00411568 0 0 0
-6.77626e-21 -0.0193751 0.00411583 0 0 0
-5.42101e-20 -0.0196507 0.00284929 0.0562447 -0.0549031 -0.00207868
0 0.0196508 0.00284935 -0.000952258 0.00102603 2.46524e-05
2.48463e-21 0.0199511 0.000464191 -0.000126946 0.000128712 4.06184e-06
1.58113e-21 -0.0199511 0.00046419 0.0256721 -0.0257691 -0.000520485
2.71051e-20 -0.0196742 0.00348114 0.0361835 -0.0341226 -0.00180248
-2.71051e-20 0.0196743 0.00348124 -0.000656189 0.000708122 2.16475e-05
0 -0.0195407 0.00420391 0 0 0
-6.77626e-21 0.0195414 0.00420428 0 0 0
0 0.02 4.81857e-13 0 0 0
0 0.02 2.78524e-05 -6.6718e-07 6.80389e-07 -1.15898e-08
0 -0.02 4.82208e-13 0 0 0
0 -0.02 2.78703e-05 0.00148002 -0.00143363 -5.6609e-05
-3.38813e-21 0.02 0.000208128 -5.47018e-05 5.73546e-05 5.8899e-07
0 -0.02 0.000208218 0.0117107 -0.0117461 -0.000222381
-6.77626e-21 0.0200396 7.19394e-14 0 0 0
-6.77626e-21 -0.0200397 7.19946e-14 0 0 0
0 -0.0196489 0.00406133 0.0108678 -0.0100017 -0.00067247
-1.0842e-20 0.0196492 0.00406167 -0.000195335 0.000210607 7.21939e-06
0 0.0200681 2.37555e-05 1.11618e-07 4.25431e-07 -1.43739e-07
0 -0.0200682 2.37724e-05 0.00135157 -0.00140642 5.24232e-05
-2.35287e-22 -0.0199935 0.00175524 0.0660196 -0.0662768 -0.00166042
1.41172e-22 0.0199936 0.00175513 -0.000909745 0.000981811 1.51368e-05
-6.77626e-21 0.0200714 3.9263e-14 0 0 0
-6.77626e-21 -0.0200715 3.9285e-14 0 0 0
-2.25875e-21 0.0200889 0.000959444 -0.000444555 0.000485235 1.50773e-06
0 -0.0200889 0.000959437 0.0461156 -0.0465011 -0.000854535
-8.87368e-22 -0.020018 0.0024485 0.0644316 -0.0637573 -0.0023447
3.22679e-22 0.0200181 0.0024486 -0.0010256 0.00110924 2.27738e-05
-6.77626e-21 0.0201757 9.02792e-15 0 0 0
0 -0.0201759 9.03188e-15 0 0 0
-1.35525e-20 -0.0197164 0.0042974 0 0 0
-2.71051e-20 0.0197167 0.00429758 0 0 0
-2.82344e-21 -0.019968 0.00317454 0.0504648 -0.0484903 -0.00249856
0 0.019968 0.00317461 -0.000894612 0.000968012 2.64548e-05
1.35525e-20 -0.0198178 0.00435143 0 0 0
-1.35525e-20 0.0198179 0.00435149 0 0 0
1.35525e-20 -0.0198553 0.00424439 0.00618675 -0.00583908 -0.000334009
0 0.0198553 0.00424466 -0.000126485 0.000143768 5.86083e-06
1.50584e-21 -0.0199716 0.00386195 0.0265777 -0.0247202 -0.00169778
-1.69407e-21 0.0199717 0.00386203 -0.000490002 0.000531362 1.76929e-05
0 0.0204248 0.000311575 -2.31463e-05 1.30291e-05 1.19661e-05
2.25875e-21 -0.0204248 0.000311594 0.0178602 -0.0179977 -0.000327139
0 -0.02042 0.00146742 0.0647944 -0.0656295 -0.00149898
-2.71051e-20 0.02042 0.00146741 -0.000869792 0.000954601 2.03628e-06
0 -0.0202841 0.00282329 0.063557 -0.0621318 -0.0030817
0 0.0202842 0.00282334 -0.00112057 0.00121628 2.97658e-05
6.77626e-21 0.0199999 0.00444852 0 0 0
6.77626e-21 -0.0200001 0.00444866 0 0 0
-2.71051e-20 -0.0204141 0.00196452 0.0711567 -0.0718659 -0.00208206
-5.42101e-20 0.0204142 0.00196455 -0.00105305 0.00114472 1.84027e-05
1.35525e-20 0.0205235 4.55464e-15 0 0 0
0 -0.0205236 4.54438e-15 0 0 0
6.77626e-21 -0.0200603 0.00448072 0 0 0
0 0.0200605 0.00448086 0 0 0
-2.71051e-20 -0.0202766 0.00350282 0.047647 -0.0446131 -0.00311327
-2.71051e-20 0.0202767 0.00350291 -0.000880097 0.000955132 3.03658e-05
3.38813e-21 -0.0201017 0.00441369 0.0051308 -0.00465752 -0.000448416
3.38813e-21 0.0201022 0.00441328 -9.39458e-05 9.77309e-05 3.31991e-06
-6.77626e-21 -0.0201267 0.00451611 0 0 0
6.77626e-21 0.0201275 0.00451657 0 0 0
-6.77626e-21 -0.0202112 0.00425305 0.0171152 -0.0155359 -0.00145413
5.27043e-21 0.0202113 0.00425322 -0.000315087 0.000333666 1.17488e-05
1.77474e-21 -0.0206611 0.000857183 0.0392883 -0.0399122 -0.000898735
-7.26028e-22 0.0206612 0.000857155 -0.00032534 0.000370248 2.4435e-06
-2.71051e-20 0.0206907 1.34737e-15 0 0 0
0 -0.0206907 1.33314e-15 0 0 0
0 -0.020629 0.00169534 0.0682796 -0.069207 -0.00187918
1.35525e-20 0.020629 0.00169534 -0.000967132 0.00105738 1.33273e-05
1.41172e-22 0.0206304 0.00244032 -0.00116213 0.00126921 2.72917e-05
0 -0.0206304 0.0024403 0.0694042 -0.0690549 -0.00290574
-5.64689e-22 -0.0205956 0.00315756 0.0597652 -0.0575658 -0.00347785
-1.69407e-21 0.0205957 0.0031576 -0.00109683 0.0011974 3.30128e-05
0 -0.0203415 0.00463057 0 0 0
-1.35525e-20 0.0203419 0.00463079 0 0 0
2.71051e-20 -0.0208462 0.00142109 0.0648261 -0.0661945 -0.00172365
0 0.0208463 0.00142107 -0.000869029 0.000951217 1.41351e-05
0 -0.0203946 0.00457335 0.0052785 -0.00462326 -0.000508159
0 0.0203949 0.0045737 -8.87878e-05 9.64927e-05 3.42752e-06
0 -0.0205528 0.00387349 0.0383859 -0.0354738 -0.00287946
0 0.0205529 0.00387365 -0.000722936 0.000789683 2.73503e-05
0 -0.0208258 0.00194371 0.0726497 -0.0736671 -0.0023134
0 0.0208258 0.00194373 -0.00110927 0.00121446 2.10578e-05
-3.38813e-21 0.0209525 4.1993e-16 0 0 0
0 -0.0209526 4.12756e-16 0 0 0
0 -0.0209676 0.000105362 0.0055481 -0.00561832 -0.000100475
3.38813e-21 0.0209677 0.000106546 3.10606e-08 -6.99211e-07 7.36928e-06
-1.69407e-21 -0.0209754 2.17162e-16 0 0 0
1.69407e-21 0.0209756 2.20484e-16 0 0 0
-2.71051e-20 -0.0204458 0.00468612 0 0 0
0 0.020446 0.00468621 0 0 0
-1.12938e-21 0.0209821 0.000349585 -1.9857e-05 1.89331e-05 2.15439e-05
0 -0.0209822 0.000349599 0.0186945 -0.01898 -0.000359122
-1.01644e-21 -0.0206056 0.00432302 0.0236985 -0.0212607 -0.00207463
1.12938e-22 0.0206057 0.00432315 -0.000433151 0.000473722 1.8318e-05
0 -0.0209339 0.00277547 0.0708221 -0.07004 -0.00358305
-5.42101e-20 0.0209339 0.00277549 -0.00128693 0.00141258 3.34454e-05
1.35525e-20 0.0206249 0.00478151 0 0 0
0 -0.0206251 0.00478166 0 0 0
0 -0.0208973 0.00349615 0.0577246 -0.0542491 -0.0041354
-2.71051e-20 0.0208974 0.00349622 -0.00110946 0.00121657 3.84021e-05
0 0.0212501 -3.25606e-16 0 0 0
0 -0.0212501 -3.23147e-16 0 0 0
-3.38813e-20 -0.0207393 0.0048425 0 0 0
2.71051e-20 0.0207401 0.00484287 0 0 0
1.35525e-20 -0.020785 0.00466278 0.0119838 -0.010321 -0.0012894
0 0.0207851 0.00466305 -0.000205471 0.000225375 9.68151e-06
-2.71051e-20 -0.020919 0.0041165 0.0406199 -0.0366101 -0.00350286
2.71051e-20 0.0209191 0.00411663 -0.00074905 0.000821437 3.19479e-05
5.64689e-22 0.0212542 0.00168692 -0.00102393 0.00112833 1.88178e-05
1.69407e-21 -0.0212543 0.00168692 0.0688478 -0.0703954 -0.00208468
7.52918e-22 -0.0213184 0.000900124 0.0409522 -0.0424165 -0.00109532
-1.50584e-21 0.0213184 0.000900095 -0.000369158 0.000408481 5.17962e-06
-2.71051e-20 -0.021346 0.00012185 0.00643685 -0.00686311 -0.000208727
0 0.0213462 0.000122052 -1.14716e-06 4.29835e-06 -9.78171e-06
0 -0.0213548 6.61869e-17 0 0 0
0 0.021355 6.76435e-17 0 0 0
0 -0.0212894 0.0022942 0.0721224 -0.0724638 -0.00312845
-1.12938e-21 0.0212894 0.00229422 -0.00125065 0.00137909 3.18248e-05
1.35525e-20 -0.0214254 -2.81734e-16 0 0 0
2.71051e-20 0.0214257 -2.82212e-16 0 0 0
-1.12938e-21 -0.0212264 0.0031084 0.0677497 -0.0659153 -0.00401193
1.35525e-21 0.0212264 0.0031085 -0.00128933 0.00142032 4.20611e-05
0 -0.0209342 0.00494631 0 0 0
-1.35525e-20 0.0209345 0.00494647 0 0 0
0 -0.0212107 0.00381738 0.0544157 -0.0503759 -0.00424636
-1.12938e-21 0.0212107 0.00381746 -0.00103965 0.00114433 4.28027e-05
-2.71051e-20 -0.0215707 0.0001272 0.00756826 -0.00799319 -0.000136178
-1.35525e-20 0.0215713 0.000127441 9.43899e-08 4.74891e-07 -3.25586e-07
0 -0.0216062 1.81935e-16 0 0 0
-2.71051e-20 0.0216069 1.81687e-16 0 0 0
2.71051e-20 -0.0210473 0.00500657 0 0 0
1.35525e-20 0.0210475 0.00500662 0 0 0
0 -0.0210904 0.00488681 0.0081747 -0.00715965 -0.000786078
1.35525e-20 0.0210904 0.00488706 -0.000153503 0.000177679 8.76456e-06
2.63521e-21 -0.0212076 0.00450575 0.0309531 -0.0274023 -0.00296501
1.12938e-21 0.0212077 0.00450582 -0.000553269 0.000610639 2.66714e-05
-2.71051e-20 -0.0215471 0.00276781 0.0748317 -0.0744626 -0.00393876
2.71051e-20 0.0215471 0.00276784 -0.00143282 0.00158529 4.56386e-05
0 -0.0215274 0.00347141 0.0665988 -0.0633274 -0.00462564
0 0.0215275 0.00347145 -0.00133788 0.00147742 5.33185e-05
0 0.0212499 0.0051145 0 0 0
-1.69407e-20 -0.0212502 0.00511463 0 0 0
3.38813e-21 -0.0212808 0.00513096 0 0 0
0 0.0212811 0.00513109 0 0 0
3.38813e-21 -0.0213032 0.0050955 0.00327476 -0.00281257 -0.000400807
-3.38813e-21 0.0213038 0.00509507 -5.42872e-05 5.7704e-05 2.66375e-06
0 -0.0215161 0.00414688 0.0544116 -0.049019 -0.00481697
2.71051e-20 0.0215162 0.00414698 -0.000999002 0.00110285 4.87575e-05
-3.38813e-21 -0.0213149 0.00514909 0 0 0
0 0.0213156 0.0051495 0 0 0
0 -0.0219059 0.00171801 0.0693122 -0.071781 -0.00229668
-5.42101e-20 0.0219059 0.00171801 -0.00112819 0.00125828 2.23057e-05
1.05409e-20 -0.0214404 0.00489776 0.0211563 -0.0181577 -0.00248525
-3.01167e-21 0.0214406 0.00489792 -0.00035058 0.000380381 1.7802e-05
2.11758e-22 -0.0218827 0.00243256 0.0741807 -0.0746584 -0.00355421
3.5293e-22 0.0218827 0.00243267 -0.00142235 0.00158557 4.16683e-05
-5.42101e-20 -0.0220245 0.000514823 0.0319681 -0.034323 -0.000455337
0 0.0220246 0.000514823 8.71145e-08 2.58954e-06 -1.72702e-06
5.64689e-22 -0.0218548 0.00311111 0.0729476 -0.0714127 -0.00422252
0 0.0218549 0.00311114 -0.00147461 0.00164068 5.15065e-05
-3.38813e-21 -0.0218321 0.00380922 0.0649676 -0.0606261 -0.00477722
0 0.0218321 0.00380928 -0.00128852 0.00143163 5.59581e-05
0 -0.0215576 0.00527841 0 0 0
0 0.021558 0.0052786 0 0 0
-2.71051e-20 -0.021618 0.00521401 0.00752943 -0.00614367 -0.000972516
0 0.0216183 0.00521431 -0.000108288 0.000120365 5.58288e-06
2.25875e-21 -0.0217926 0.00451289 0.0455515 -0.0405709 -0.0041185
-2.25875e-21 0.0217927 0.00451304 -0.000823878 0.000917536 4.30418e-05
2.71051e-20 -0.0216749 0.00534089 0 0 0
-2.71051e-20 0.021675 0.00534096 0 0 0
-2.71051e-20 -0.0221927 0.00274699 0.0767189 -0.0772707 -0.00377492
-2.71051e-20 0.0221928 0.002747 -0.00157253 0.0017646 4.69744e-05
-1.12938e-21 -0.0218358 0.00496905 0.0294641 -0.0252174 -0.00316318