# U  POINT_DATA 27756
# x  y  z  U_x  U_y  U_z
0.014142 -1.35525e-20 1.6805e-07 0 0 0
-0.014142 1.35525e-20 1.6805e-07 0 0 0
-0.014142 -6.77626e-21 0.000389161 0 0 0
0.014142 -3.38813e-21 0.000389161 0 0 0
-0.014142 1.35525e-20 0.000654607 0 0 0
0.014142 -1.01644e-20 0.000654607 0 0 0
0.014142 0 0.0010436 0 0 0
-0.014142 0 0.0010436 0 0 0
0.014142 3.38813e-21 0.00143258 0 0 0
-0.014142 -3.38813e-21 0.00143258 0 0 0
0.0142373 -1.35525e-20 0.000284221 -2.68864e-05 2.63605e-05 -2.40835e-07
-0.0142373 0 0.000284221 0.00205254 -0.00217891 -6.87739e-05
0.014142 -3.38813e-21 0.00169802 0 0 0
-0.014142 3.38813e-21 0.00169802 0 0 0
0.0142373 -1.35525e-20 0.000886478 -2.68866e-05 2.63606e-05 -2.40836e-07
-0.0142373 -1.35525e-20 0.00088648 0.00205255 -0.00217892 -6.87742e-05
-0.0142692 -2.03288e-20 1.47356e-07 0 0 0
0.0142693 2.03288e-20 1.47356e-07 0 0 0
0.0142379 -1.35525e-20 0.0012254 -4.79306e-05 4.97431e-05 1.44877e-06
-0.0142379 0 0.0012254 0.00279031 -0.00293569 2.25622e-05
0.014142 -1.35525e-20 0.002087 0 0 0
-0.014142 1.35525e-20 0.002087 0 0 0
-0.0142973 0 0.000101975 0.00110005 -0.00129061 -3.61107e-05
0.0142973 1.35525e-20 0.000101973 -5.17146e-07 1.57646e-06 2.35326e-07
0.0142379 0 0.00182879 -4.79303e-05 4.97429e-05 1.44876e-06
-0.0142379 -1.35525e-20 0.00182879 0.00279029 -0.00293568 2.25621e-05
-0.014375 -1.35525e-20 1.30159e-07 0 0 0
0.014375 1.35525e-20 1.30159e-07 0 0 0
0.0143675 0 0.000671993 -6.29919e-05 6.32797e-05 6.95392e-08
-0.0143675 -1.35525e-20 0.000671996 0.00461067 -0.0048027 -6.57764e-05
-0.0142629 6.77626e-21 0.00213232 0 0 0
0.0142629 6.77626e-21 0.00213231 0 0 0
-0.0142983 0 0.00203123 0.00265014 -0.00282091 1.96852e-05
0.0142983 0 0.00203122 -4.63143e-05 5.06418e-05 6.41467e-07
0.0143695 2.71051e-20 0.00147469 -0.000115931 0.000116155 1.34326e-07
-0.0143695 -1.35525e-20 0.0014747 0.00639136 -0.00651941 -4.42136e-05
0.0145077 4.92819e-21 0.000511288 -8.93093e-05 9.00488e-05 2.53429e-07
-0.0145077 7.39229e-21 0.000511289 0.00643881 -0.00635318 7.44853e-05
-0.0145274 -1.35525e-20 1.02817e-07 0 0 0
0.0145274 1.35525e-20 1.02816e-07 0 0 0
-0.014375 0 0.00217431 0 0 0
0.014375 0 0.00217432 0 0 0
0.0144983 -1.12938e-21 0.00108867 -0.000166392 0.000167011 -8.35762e-08
-0.0144983 0 0.00108868 0.00948638 -0.00943072 -2.87511e-05
-0.0145754 9.41148e-22 0.000290395 0.00374735 -0.00337188 -0.000142617
0.0145754 -3.76459e-22 0.000290391 -8.99436e-06 6.17251e-06 -5.22603e-07
0.0145113 -6.16024e-21 0.00167641 -0.000164241 0.000164616 -1.80211e-07
-0.0145113 -2.4641e-21 0.00167642 0.00902679 -0.00896435 -0.000136254
-0.0146106 0 8.78841e-08 0 0 0
0.0146106 2.71051e-20 8.78836e-08 0 0 0
-0.0145148 1.35525e-20 0.00222669 0 0 0
0.0145148 -1.35525e-20 0.00222669 0 0 0
0.0146674 -2.25875e-21 0.00084634 -0.000185326 0.000174861 6.20244e-06
-0.0146674 0 0.000846346 0.010937 -0.0101576 0.000329331
0.0145789 -9.41148e-23 0.00192781 -0.00014162 0.000132259 -1.22986e-06
-0.0145789 9.41148e-23 0.00192783 0.00820402 -0.00813384 -3.95309e-05
0.0146711 -3.38813e-21 0.00137924 -0.000244064 0.000232714 -4.01499e-06
-0.0146711 0 0.00137925 0.0132035 -0.0123124 -0.000289305
-0.0145873 0 0.00225387 0 0 0
0.0145873 0 0.00225387 0 0 0
0.0147492 0 0.000649507 -0.000146499 0.000137121 4.86237e-06
-0.0147492 -1.35525e-20 0.00064951 0.0104455 -0.0096164 0.000329005
0.0147845 5.0822e-21 0.000655261 -0.000146081 0.000147504 2.70127e-07
-0.0147845 3.38813e-21 0.000655264 0.0101374 -0.0101012 0.000103149
0.014799 6.77626e-21 0.00087194 -0.000217911 0.00021015 4.93809e-06
-0.014799 -6.77626e-21 0.000871947 0.013083 -0.012734 0.000231063
0.0147848 -1.50584e-21 0.00117685 -0.000255625 0.000255703 -1.78524e-07
-0.0147848 -6.02335e-21 0.00117685 0.0142745 -0.0142096 -4.37089e-05
0.0147611 1.35525e-20 0.00160916 -0.000255973 0.00024747 -3.23564e-06
-0.0147611 0 0.00160917 0.0141763 -0.0135777 -0.000282789
0.0147982 9.85638e-21 0.00158804 -0.000263547 0.000262584 -4.10408e-07
-0.0147982 1.10884e-20 0.00158805 0.0140814 -0.0140585 -0.000155592
-0.0148904 6.77626e-21 6.18651e-08 0 0 0
0.0148905 0 6.18649e-08 0 0 0
0.0147327 4.06576e-20 0.00230835 0 0 0
-0.0147327 0 0.00230836 0 0 0
-0.0149957 4.70574e-23 0.000282714 0.00546808 -0.00560101 4.91766e-05
0.0149957 -1.8823e-22 0.000282717 -7.51752e-06 7.38488e-06 -2.98012e-08
-0.015 0 5.8904e-08 0 0 0
0.015 6.77626e-21 5.89036e-08 0 0 0
-0.0149675 7.52918e-22 0.00202158 0.010826 -0.0114074 7.68228e-06
0.0149675 -3.76459e-22 0.00202157 -0.000216014 0.000220138 1.44208e-06
-0.0150978 1.01644e-20 0.000881424 0.0162784 -0.0165851 3.70883e-05
0.0150978 1.12938e-21 0.000881419 -0.000264069 0.000269162 2.32021e-07
0.015 -3.38813e-21 0.00225502 -9.12683e-05 9.33843e-05 4.98371e-07
-0.015 0 0.00225504 0.00459915 -0.00488945 2.20871e-06
0.0151059 6.77626e-21 0.00145532 -0.00034714 0.000354923 2.05221e-06
-0.0151059 2.25875e-21 0.00145533 0.0186852 -0.0191728 8.92066e-06
0.015 -3.38813e-21 0.00240854 0 0 0
-0.015 0 0.00240855 0 0 0
-0.0150379 0 0.00242273 0 0 0
0.0150379 -3.38813e-21 0.00242272 0 0 0
0.01529 0 2.82763e-08 0 0 0
-0.01529 2.71051e-20 2.82765e-08 0 0 0
0.0151247 0 0.00245524 0 0 0
-0.0151247 -3.38813e-21 0.00245526 0 0 0
-0.0153535 2.71051e-20 0.00058317 0.0136068 -0.0135557 8.65978e-05
0.0153535 5.42101e-20 0.000583168 -0.000173867 0.000177635 3.84185e-07
0.0153939 0 0.00118159 -0.000380325 0.000389183 1.6073e-06
-0.0153939 0 0.0011816 0.021171 -0.021265 3.4694e-05
0.0153693 -2.71051e-20 0.00185215 -0.000349288 0.000359187 2.56133e-06
-0.0153693 -2.71051e-20 0.00185216 0.0174802 -0.0176919 -5.9807e-07
-0.0152781 0 0.00251266 0 0 0
0.0152781 6.77626e-21 0.00251265 0 0 0
-0.0153114 0 0.00239528 0.00501745 -0.00501448 2.39619e-06
0.0153114 -3.38813e-21 0.00239523 -0.000111252 0.000106614 2.08127e-06
0.0153767 -4.51751e-21 0.00228002 -0.000220392 0.000213103 3.81469e-06
-0.0153767 0 0.00228003 0.00997497 -0.0100031 5.76771e-06
-0.015625 1.01644e-20 2.01017e-08 0 0 0
0.015625 -2.87991e-20 2.01015e-08 0 0 0
0.0156405 -1.52466e-20 1.9576e-08 0 0 0
-0.0156405 2.71051e-20 1.95762e-08 0 0 0
-0.0156637 -1.12938e-21 0.000293614 0.0088346 -0.0087597 2.14373e-05
0.0156637 3.38813e-21 0.000293613 -1.51839e-05 1.55651e-05 1.74808e-08
0.0154678 0 0.00258382 0 0 0
-0.0154678 -1.35525e-20 0.00258382 0 0 0
0.0157172 -2.25875e-21 0.00089524 -0.000379723 0.000390047 9.46134e-07
-0.0157172 0 0.000895245 0.0233137 -0.0232 5.39139e-05
0.015724 0 0.00153553 -0.000519185 0.000534981 4.08144e-06
-0.015724 -2.25875e-21 0.00153553 0.0268789 -0.0268706 0.000123029
0.0156525 0 0.00230987 -0.000273544 0.000283892 2.96944e-06
-0.0156525 0 0.00230987 0.0123027 -0.0125266 6.72267e-05
-0.015625 0 0.00255394 0.003876 -0.00387088 -1.44391e-05
0.015625 -1.35525e-20 0.00255394 -8.11807e-05 8.45126e-05 1.13243e-06
-0.015625 -2.03288e-20 0.00264258 0 0 0
0.015625 1.35525e-20 0.00264259 0 0 0
-0.0157449 -1.35525e-20 0.00206368 0.018976 -0.0192518 0.000144434
0.0157449 -4.51751e-21 0.00206369 -0.000411978 0.00042968 4.09897e-06
-0.015972 -5.42101e-20 1.0971e-08 0 0 0
0.015972 -2.71051e-20 1.0971e-08 0 0 0
-0.0157606 0 0.00269322 0 0 0
0.0157606 -4.06576e-20 0.00269323 0 0 0
-0.0158002 0 0.00252824 0.0075855 -0.00769481 -3.85627e-06
0.0158002 -8.13152e-21 0.00252825 -0.000164355 0.000173648 1.74987e-06
-0.0160283 2.71051e-20 0.000587666 0.0182029 -0.0181049 3.02277e-05
0.0160283 2.71051e-20 0.000587665 -0.000224987 0.000232996 4.11828e-07
0.016059 -2.71051e-20 0.00121824 -0.00053397 0.00055374 3.07702e-06
-0.0160591 0 0.00121824 0.0290755 -0.0290007 6.20307e-05
-0.0160388 -2.71051e-20 0.00190504 0.0254891 -0.0255946 8.37657e-05
0.0160388 2.71051e-20 0.00190505 -0.00053649 0.000558652 5.50464e-06
-0.0159592 2.71051e-20 0.00276747 0 0 0
0.0159593 -2.71051e-20 0.00276748 0 0 0
-0.0160464 1.12938e-20 0.00232046 0.0178025 -0.0179044 6.76007e-05
0.0160464 6.77626e-21 0.00232048 -0.000391732 0.000408516 4.83512e-06
-0.01625 1.35525e-20 8.16833e-09 0 0 0
0.01625 -1.35525e-20 8.1683e-09 0 0 0
-0.0163416 -2.25875e-21 0.000297322 0.0107998 -0.0106826 7.65684e-06
0.0163416 -4.51751e-21 0.000297321 -3.55628e-05 3.6939e-05 3.63627e-08
0.0163888 -3.38813e-20 5.62447e-09 0 0 0
-0.0163888 -2.71051e-20 5.62442e-09 0 0 0
0.0163802 2.25875e-21 0.000909932 -0.000480247 0.00049991 1.26882e-06
-0.0163802 9.03502e-21 0.00090993 0.0289643 -0.0287307 2.36745e-05
-0.0163169 1.89735e-20 0.00210721 0.0272149 -0.0272825 0.000104079
0.0163169 1.6263e-20 0.00210723 -0.000594726 0.000621059 7.23399e-06
0.016394 2.25875e-21 0.0015607 -0.00069282 0.000722614 5.84712e-06
-0.016394 0 0.00156069 0.0341334 -0.0339489 7.5175e-05
-0.01625 1.69407e-20 0.00287738 0 0 0
0.0162501 -3.38813e-20 0.00287742 0 0 0
-0.0162993 2.03288e-20 0.00289583 0 0 0
0.0162996 -3.04932e-20 0.00289591 0 0 0
-0.0163574 4.51751e-21 0.00265188 0.0126521 -0.0126179 -3.69091e-05
0.0163575 2.25875e-21 0.00265193 -0.000274517 0.00028692 4.07107e-06
-0.0166549 0 2.57175e-09 0 0 0
0.0166549 0 2.57177e-09 0 0 0
0.0166925 2.71051e-20 0.00059198 -0.000276277 0.000288883 4.66627e-07
-0.0166925 0 0.000591981 0.0219095 -0.021693 1.1441e-05
-0.0165907 0 0.00300593 0 0 0
0.0165909 -2.71051e-20 0.00300602 0 0 0
-0.0168227 -4.51751e-21 0.00122863 0.0367927 -0.0365063 -7.82776e-06
0.0168227 4.51751e-21 0.00122863 -0.000707674 0.00074184 4.33058e-06
-0.016875 0 2.08171e-09 0 0 0
0.016875 1.35525e-20 2.08172e-09 0 0 0
-0.0167197 0 0.00238747 0.0266091 -0.0266169 -1.43551e-05
0.0167198 0 0.00238751 -0.00060418 0.000635082 8.72497e-06
-0.0167791 6.77626e-21 0.00193458 0.0354396 -0.0353311 1.01438e-05
0.0167791 4.51751e-21 0.00193459 -0.000777067 0.000815657 9.03852e-06
0.0169402 0 0.000818281 -0.000507326 0.000532264 8.51254e-07
-0.0169402 0 0.000818282 0.0314127 -0.0311239 -1.22197e-05
-0.0170157 -4.51751e-21 0.000298727 0.012305 -0.0121548 1.72124e-05
0.0170157 4.51751e-21 0.000298727 -6.1334e-05 6.4292e-05 7.83513e-08
-0.0168154 2.71051e-20 0.00309174 0 0 0
0.0168157 2.03288e-20 0.00309186 0 0 0
-0.017054 0 0.00156175 0.0424265 -0.0421162 -4.72407e-05
0.017054 0 0.00156176 -0.000911357 0.000958187 8.33881e-06
0.0171302 -1.35525e-20 1.11108e-09 0 0 0
-0.0171302 0 1.11107e-09 0 0 0
-0.016875 6.77626e-21 0.00300832 0.00531967 -0.0053893 -1.56103e-05
0.0168752 -6.77626e-21 0.00300853 -0.00012892 0.000136191 2.40284e-06
-0.016875 0 0.00311456 0 0 0
0.0168752 -3.38813e-21 0.00311463 0 0 0
-0.0169671 -3.38813e-21 0.00280904 0.0164217 -0.0165905 -4.88474e-05
0.0169673 2.25875e-21 0.00280912 -0.000396981 0.000419251 7.15347e-06
-0.0170607 0 0.00222781 0.0366048 -0.036577 -7.57068e-05
0.0170608 0 0.00222783 -0.000843481 0.000889111 1.24354e-05
-0.0173299 2.71051e-20 6.20517e-10 0 0 0
0.0173299 -2.71051e-20 6.2052e-10 0 0 0
-0.0170892 -4.06576e-20 0.00319641 0 0 0
0.0170896 0 0.00319653 0 0 0
-0.017405 0 0.000633538 0.0265181 -0.0262655 -1.85779e-05
0.017405 -2.25875e-21 0.000633539 -0.00036337 0.000382997 4.30399e-07
-0.0173772 2.25875e-21 0.00122567 0.0411437 -0.0408257 -9.91622e-05
0.0173772 -2.25875e-21 0.00122567 -0.000820638 0.000865825 5.28624e-06
-0.0173848 4.51751e-21 0.00190647 0.0427031 -0.0425065 -0.000180881
0.0173849 -4.51751e-21 0.00190649 -0.000982951 0.00103924 1.26797e-05
-0.0175 0 5.31043e-10 0 0 0
0.0175 0 5.31044e-10 0 0 0
-0.0175 2.71051e-20 0.000142313 0.00666781 -0.00658272 2.05016e-05
0.0175 -1.35525e-20 0.000142315 -2.7419e-06 2.91949e-06 4.88137e-08
-0.0172483 0 0.00325639 0 0 0
0.0172486 1.35525e-20 0.00325649 0 0 0
-0.0172988 1.35525e-20 0.00309078 0.00925264 -0.00931699 -0.000118321
0.0172991 0 0.00309094 -0.000259747 0.000262103 5.15536e-06
-0.0174281 1.35525e-20 0.0026727 0.0265302 -0.0265734 -0.000171818
0.0174282 6.77626e-21 0.00267274 -0.000672757 0.000712654 1.20674e-05
-0.0176747 0 0.000289064 0.0131942 -0.0130171 3.96151e-05
0.0176747 0 0.000289064 -5.51018e-06 5.84893e-06 7.37547e-08
-0.0177004 -2.71051e-20 0.000896457 0.03934 -0.0390244 -9.308e-05
0.0177004 0 0.000896462 -0.000687577 0.000727302 4.23034e-07
-0.0174579 0 0.00333599 0 0 0
0.0174583 1.69407e-21 0.00333616 0 0 0
-0.0177158 0 0.00155351 0.0480783 -0.0477466 -0.000242191
0.0177158 0 0.00155351 -0.0010968 0.00116234 1.1542e-05
-0.0174806 0 0.00332675 0.00089445 -0.000900671 -1.1438e-05
0.0174809 0 0.00332697 -2.49536e-05 2.51799e-05 4.95269e-07
-0.0174846 1.69407e-21 0.00334611 0 0 0
0.0174848 0 0.00334621 0 0 0
-0.0175001 1.69407e-21 0.00332514 0.0012401 -0.00124944 -1.23578e-05
0.0175002 0 0.00332537 -3.54258e-05 3.79559e-05 7.69154e-07
-0.0175001 0 0.00334303 0.000472268 -0.000469199 -9.9116e-06
0.0175002 0 0.00334314 -1.28546e-05 1.38326e-05 3.04003e-07
-0.0175001 0 0.00335193 0 0 0
0.0175002 0 0.00335199 0 0 0
-0.0177088 -2.71051e-20 0.00225929 0.0444231 -0.0442953 -0.000361126
0.0177089 0 0.00225933 -0.00109622 0.00116455 1.8616e-05
0.0178538 0 1.78852e-10 0 0 0
-0.0178538 -2.71051e-20 1.78849e-10 0 0 0
0.0178633 1.35525e-20 0.000120403 -2.31974e-06 2.46998e-06 4.1298e-08
-0.0178633 0 0.000120401 0.00564118 -0.00556919 1.7345e-05
-0.0176368 -4.51751e-21 0.00307374 0.0148651 -0.0152156 -2.84073e-05
0.017637 4.51751e-21 0.00307382 -0.000433111 0.000473609 9.44149e-06
-0.0176473 1.35525e-20 0.00307813 0.0149918 -0.0153407 -2.93677e-05
0.0176475 -1.35525e-20 0.00307821 -0.000437097 0.000478741 9.55566e-06
-0.0179989 1.35525e-20 9.3839e-11 0 0 0
0.0179989 1.35525e-20 9.38393e-11 0 0 0
-0.0180169 -2.25875e-21 0.000576041 0.0268269 -0.0266347 -5.17967e-05
0.0180169 4.51751e-21 0.000576041 -0.000358868 0.000381356 -6.69697e-08
-0.0180393 0 0.00120814 0.0453715 -0.045095 -0.000265634
0.0180394 2.25875e-21 0.00120814 -0.00095222 0.00101272 6.24781e-06
-0.0177861 1.35525e-20 0.00345972 0 0 0
0.0177863 -1.35525e-20 0.00345982 0 0 0
-0.0181252 0 8.38838e-11 0 0 0
0.0181253 0 8.38839e-11 0 0 0
-0.0181254 -2.71051e-20 0.000104621 0.00513505 -0.00514237 3.89158e-05
0.0181254 0 0.00010462 -2.18182e-06 2.37114e-06 2.30188e-07
-0.0180404 2.25875e-21 0.00190105 0.0489616 -0.0487233 -0.000490905
0.0180405 -2.25875e-21 0.00190107 -0.00120935 0.00128804 1.70973e-05
-0.0178475 1.35525e-20 0.0033839 0.00524783 -0.00521372 -0.000110137
0.0178476 1.35525e-20 0.00338403 -0.000143712 0.000154647 3.39872e-06
-0.0180106 -4.51751e-21 0.00263553 0.0351916 -0.0350143 -0.000492317
0.0180107 -4.51751e-21 0.0026356 -0.000964216 0.0010303 1.9002e-05
-0.0179205 -2.71051e-20 0.00351035 0 0 0
0.0179207 0 0.00351043 0 0 0
-0.0180602 -9.03502e-22 0.00312038 0.0199735 -0.0198305 -0.000323656
0.0180604 9.03502e-22 0.00312046 -0.000592678 0.000635965 1.38282e-05
-0.0183343 -2.71051e-20 0.000279709 0.013489 -0.0134165 7.80629e-05
0.0183343 0 0.000279703 -5.68933e-06 6.12994e-06 4.25434e-07
-0.0183566 0 0.000873067 0.0421589 -0.0419561 -0.000224848
0.0183566 2.71051e-20 0.000873065 -0.000758032 0.000808913 -1.25805e-06
-0.01837 0 0.00152863 0.0522287 -0.0519658 -0.0005062
0.0183701 -2.71051e-20 0.00152863 -0.00127528 0.00136203 1.428e-05
-0.018125 -6.77626e-21 0.00358731 0 0 0
0.0181251 6.77626e-21 0.00358737 0 0 0
-0.0183588 -2.71051e-20 0.0022394 0.0514321 -0.0511929 -0.000847862
0.0183589 2.71051e-20 0.00223943 -0.00137593 0.00147064 2.40085e-05
-0.0185565 0 2.08884e-11 0 0 0
0.0185566 1.35525e-20 2.08886e-11 0 0 0
-0.0185599 1.35525e-20 8.401e-05 0.00412341 -0.00412929 3.12491e-05
0.0185599 0 8.40103e-05 -1.75201e-06 1.90403e-06 1.84842e-07
-0.0182327 -3.38813e-20 0.00362784 0 0 0
0.0182331 -2.03288e-20 0.00362801 0 0 0
-0.0182779 -1.807e-20 0.0034486 0.0095313 -0.00931459 -0.000224881
0.0182781 -4.51751e-21 0.00344874 -0.000297608 0.000321071 8.30661e-06
-0.018389 0 0.00288151 0.0338437 -0.0332989 -0.000702095
0.0183891 5.42101e-20 0.00288158 -0.00102271 0.00109749 2.40158e-05
-0.0186587 0 1.21776e-11 0 0 0
0.0186588 0 1.21775e-11 0 0 0
-0.0186718 -1.12938e-21 0.000554126 0.0277278 -0.0276974 -0.000102348
0.0186718 0 0.000554126 -0.000382191 0.000407975 2.77431e-07
-0.0186932 -3.38813e-21 0.00117299 0.048016 -0.0478978 -0.000483788
0.0186932 2.25875e-21 0.00117299 -0.00106197 0.00113536 8.17233e-06
-0.01875 0 1.12105e-11 0 0 0
0.01875 0 1.12104e-11 0 0 0
-0.01875 -1.35525e-20 7.46445e-05 0.00369769 -0.00381143 9.28112e-05
0.01875 0 7.46508e-05 -1.50477e-06 1.63685e-06 5.2473e-08
-0.0186938 0 0.00186329 0.0541433 -0.0539611 -0.000907576
0.0186938 0 0.0018633 -0.00144076 0.0015437 2.15197e-05
-0.0184518 -1.35525e-20 0.00371033 0 0 0
0.0184522 1.35525e-20 0.00371046 0 0 0
-0.018692 -1.12938e-21 0.00255869 0.0461232 -0.0455884 -0.00112634
0.018692 1.12938e-21 0.00255873 -0.0013553 0.00145584 2.82112e-05
-0.0185639 1.35525e-20 0.00375412 0 0 0
0.0185642 2.71051e-20 0.00375424 0 0 0
-0.0185985 -2.71051e-20 0.00364672 0.00651332 -0.0062041 -0.000303132
0.0185988 -1.35525e-20 0.00364689 -0.000225859 0.000232286 6.13787e-06
-0.0189816 0 0.0002651 0.013077 -0.0132285 0.000166953
0.0189816 0 0.00026511 -5.46199e-06 5.83106e-06 1.93927e-08
-0.0187018 0 0.00326235 0.0236516 -0.0230389 -0.000735304
0.0187021 -7.52918e-22 0.00326243 -0.000771408 0.00083227 2.08088e-05
-0.0190035 5.42101e-20 0.000835928 0.043045 -0.0430622 -0.000409642
0.0190035 5.42101e-20 0.00083593 -0.000781462 0.000834519 1.80874e-06
-0.0190203 0 0.00148196 0.0548829 -0.0548491 -0.000796378
0.0190203 2.71051e-20 0.00148197 -0.00144109 0.00154508 1.7782e-05
-0.01875 0 0.00382122 0 0 0
0.0187502 0 0.00382131 0 0 0
-0.0190138 2.71051e-20 0.00218695 0.0580333 -0.0578395 -0.00146762
0.0190138 -2.71051e-20 0.00218697 -0.00166997 0.00179611 2.99779e-05
-0.0188263 0 0.00385065 0 0 0
0.0188267 6.77626e-21 0.00385081 0 0 0
-0.0190106 -2.71051e-20 0.00288311 0.0426039 -0.0414611 -0.00153055
0.0190107 2.71051e-20 0.00288317 -0.00139044 0.00149986 3.53552e-05
-0.0188705 -6.77626e-21 0.00377231 0.00447321 -0.00450715 -4.44243e-05
0.0188709 0 0.0037723 -0.000168679 0.000194398 6.48975e-06
0.0192456 -6.77626e-21 1.60933e-12 0 0 0
-0.0192456 0 1.60924e-12 0 0 0
0.0192459 0 5.21771e-05 -1.05175e-06 1.14408e-06 3.6676e-08
-0.0192459 0 5.21707e-05 0.0025844 -0.00266389 6.48678e-05
-0.01896 4.51751e-21 0.00363202 0.0131871 -0.0130223 -0.000310495
0.0189603 -4.51751e-21 0.00363217 -0.000487567 0.000549505 1.76337e-05
0.0193107 0 8.87425e-13 0 0 0
-0.0193107 0 8.87409e-13 0 0 0
-0.0189237 1.35525e-20 0.00389016 0 0 0
0.0189243 -1.35525e-20 0.00389043 0 0 0
0.0193153 0 0.000516097 -0.000376121 0.000407876 -2.17072e-06
-0.0193153 2.25875e-21 0.000516096 0.02671 -0.0268706 -0.000193646
0.0193661 -1.35525e-20 4.34935e-05 -1.24482e-06 4.20132e-07 -9.2329e-07
-0.0193661 -6.77626e-21 4.34909e-05 0.00228294 -0.00240063 8.81916e-05
0.0193681 -6.77626e-21 8.52462e-13 0 0 0
-0.0193681 0 8.52481e-13 0 0 0
0.019358 -1.58113e-21 0.00110754 -0.00112831 0.00121654 7.07562e-06
-0.019358 -6.77626e-22 0.00110754 0.0483634 -0.04856 -0.00073559
-0.0193483 5.64689e-22 0.00179883 0.0582929 -0.0583622 -0.00137099
0.0193484 -1.69407e-21 0.00179884 -0.00166567 0.0017926 2.42608e-05
-0.0193331 -2.25875e-21 0.00252234 0.0534768 -0.052783 -0.00188191
0.0193332 2.25875e-21 0.00252237 -0.00170746 0.00184176 3.61389e-05
-0.019126 0 0.00398495 0 0 0
0.0191265 0 0.00398518 0 0 0
-0.0191704 1.35525e-20 0.00393584 0.00372492 -0.00348221 -0.0002056
0.0191709 -1.35525e-20 0.0039361 -0.000126179 0.000137589 4.65342e-06
-0.0193001 2.25875e-21 0.00324569 0.0328487 -0.0315796 -0.00155657
0.0193003 6.77626e-21 0.0032458 -0.0011671 0.00126386 3.28889e-05
0.0196143 0 0.000236552 -6.60369e-06 4.07646e-06 -2.71364e-06
-0.0196143 -2.71051e-20 0.000236554 0.0120728 -0.012297 7.81071e-05
-0.0192183 1.35525e-20 0.00403232 0 0 0
0.0192187 0 0.00403252 0 0 0
-0.0196507 0 0.000769621 0.0400362 -0.040303 -0.000596385
0.0196507 0 0.000769623 -0.000747743 0.00082483 -7.26733e-06
-0.0193646 -2.25875e-22 0.00369144 0.0192064 -0.0181006 -0.00104031
0.0193648 5.64689e-22 0.00369158 -0.000706262 0.000767761 2.35624e-05
-0.0197261 0 4.33323e-13 0 0 0
0.0197262 1.01644e-20 4.33135e-13 0 0 0
-0.0196852 -2.71051e-20 0.00139142 0.0564286 -0.0568817 -0.00111734
0.0196853 0 0.00139142 -0.00156827 0.00169062 1.58817e-05
-0.0196581 0 0.00213359 0.0636504 -0.0637102 -0.00208574
0.0196582 -2.71051e-20 0.00213361 -0.00197401 0.00212883 3.31023e-05
-0.0193749 0 0.00398198 0.00664889 -0.0060641 -0.000480605
0.0193751 -1.35525e-20 0.00398219 -0.000245579 0.000267504 1.00124e-05
-0.0193749 -6.77626e-21 0.00411562 0 0 0
0.0193752 -1.35525e-20 0.00411575 0 0 0
-0.0196509 0 0.00284944 0.0503334 -0.0488932 -0.0024415
0.019651 2.71051e-20 0.00284949 -0.00180849 0.00195613 4.58283e-05
0.0199511 1.35525e-21 0.000464178 -0.000286039 0.000310212 -1.32431e-06
-0.0199511 4.51751e-21 0.00046418 0.0241526 -0.0244781 -0.000523679
-0.0196745 -2.71051e-20 0.0034813 0.0326571 -0.0305692 -0.0020045
0.0196747 2.71051e-20 0.00348141 -0.00122899 0.00133404 3.89022e-05
-0.0195416 1.35525e-20 0.00420424 0 0 0
0.0195422 2.03288e-20 0.00420454 0 0 0
-0.0199999 0 4.82349e-13 0 0 0
-0.0199999 6.77626e-21 2.78793e-05 0.00136928 -0.00133105 -5.32318e-05
0.02 0 4.8203e-13 0 0 0
0.02 0 2.78629e-05 -7.51939e-07 7.58536e-07 3.90034e-08
-0.0199999 -3.38813e-21 0.00020828 0.0108827 -0.0109925 -0.000233673
0.02 -3.38813e-21 0.000208219 -0.000124681 0.00013402 2.29131e-07
-0.0200396 -6.77626e-21 7.2017e-14 0 0 0
0.0200396 0 7.19638e-14 0 0 0
-0.0196493 -2.71051e-20 0.00406163 0.00980674 -0.0089776 -0.000677435
0.0196497 0 0.0040619 -0.000359053 0.00039107 1.43955e-05
0.0200681 0 2.37653e-05 -1.6564e-07 7.64435e-07 5.83692e-07
-0.0200681 0 2.37764e-05 0.00116533 -0.00110334 -7.76394e-05
-0.0199936 -2.82344e-22 0.00175494 0.0604238 -0.0608932 -0.00180069
0.0199936 4.70574e-23 0.00175489 -0.00186512 0.00201953 2.43006e-05
0.0200714 0 3.9275e-14 0 0 0
-0.0200714 0 3.92932e-14 0 0 0
0.0200889 2.25875e-21 0.000959457 -0.00100442 0.00108591 8.4279e-06
-0.0200889 -9.03502e-21 0.000959452 0.0428136 -0.0434679 -0.000949513
-0.0200181 0 0.00244871 0.0582488 -0.0576553 -0.00255725
0.0200182 -1.6134e-22 0.00244877 -0.00203709 0.0022075 4.19702e-05
0.0201758 6.77626e-21 9.02736e-15 0 0 0
-0.0201758 -6.77626e-21 9.03236e-15 0 0 0
-0.0197167 0 0.00429743 0 0 0
0.0197172 1.35525e-20 0.00429767 0 0 0
-0.0199681 -1.12938e-21 0.00317465 0.0454245 -0.0434173 -0.00271155
0.0199682 5.64689e-22 0.00317472 -0.00172398 0.00187057 5.05998e-05
-0.0198179 1.35525e-20 0.00435132 0 0 0
0.0198183 0 0.00435153 0 0 0
-0.0198553 1.35525e-20 0.0042445 0.00663823 -0.00593937 -0.000651547
0.0198557 2.71051e-20 0.00424476 -0.000248652 0.000260537 9.17396e-06
-0.0199718 1.8823e-22 0.00386197 0.0240259 -0.0221242 -0.00178733
0.0199721 6.2693e-38 0.0038621 -0.000926772 0.00100846 3.43488e-05
0.0204248 -2.25875e-21 0.000311566 -3.52195e-05 4.76561e-05 -1.95519e-05
-0.0204248 -2.25875e-21 0.000311579 0.019028 -0.0196848 -0.000717392
-0.02042 0 0.00146739 0.058764 -0.0600525 -0.00174127
0.0204201 2.71051e-20 0.00146739 -0.00189908 0.00207274 1.86096e-05
-0.0202842 2.71051e-20 0.00282334 0.0572334 -0.0559018 -0.00321046
0.0202843 0 0.00282338 -0.00221735 0.0024082 5.74603e-05
-0.0199999 0 0.00444833 0 0 0
0.0200001 0 0.00444847 0 0 0
-0.0204142 -2.71051e-20 0.00196456 0.0651666 -0.0659969 -0.00248609
0.0204142 0 0.00196457 -0.00223581 0.00243353 2.6157e-05
0.0205235 -1.35525e-20 4.55491e-15 0 0 0
-0.0205235 0 4.54657e-15 0 0 0
-0.0200605 0 0.00448064 0 0 0
0.0200609 0 0.00448086 0 0 0
-0.0202767 2.71051e-20 0.00350287 0.0429713 -0.0398342 -0.00327654
0.0202769 0 0.00350296 -0.00169984 0.00184751 6.13032e-05
-0.0201022 -3.38813e-21 0.00441312 0.00397632 -0.00372199 -0.000247264
0.0201026 0 0.00441316 -0.000167045 0.000190854 8.12313e-06
-0.0201274 1.35525e-20 0.00451629 0 0 0
0.020128 -6.77626e-21 0.00451661 0 0 0
-0.0202113 3.01167e-21 0.00425304 0.0140726 -0.0129317 -0.00105556
0.0202117 3.01167e-21 0.00425325 -0.00057188 0.000642345 2.62262e-05
-0.0206612 4.03349e-22 0.000857173 0.0367779 -0.0379911 -0.0011292
0.0206612 -1.6134e-21 0.000857148 -0.000854706 0.000927326 3.21542e-06
0.0206906 0 1.34853e-15 0 0 0
-0.0206907 -1.35525e-20 1.33611e-15 0 0 0
-0.020629 -1.35525e-20 0.00169533 0.0622985 -0.0635492 -0.00215158
0.0206291 1.35525e-20 0.00169533 -0.00212853 0.00231618 2.31771e-05
-0.0206304 -5.64689e-22 0.00244032 0.0627905 -0.0625299 -0.00323803
0.0206304 0 0.00244033 -0.00241746 0.00262901 5.14397e-05
-0.0205957 5.64689e-22 0.00315757 0.053824 -0.0515762 -0.00376436
0.0205958 -5.64689e-22 0.00315762 -0.00219226 0.00238476 6.74294e-05
-0.0203417 1.35525e-20 0.00463048 0 0 0
0.0203423 1.35525e-20 0.00463076 0 0 0
-0.0208463 -2.71051e-20 0.00142107 0.0594686 -0.0612518 -0.00189809
0.0208463 0 0.00142105 -0.00201703 0.00219299 1.5485e-05
-0.0203947 -2.71051e-20 0.00457337 0.0047776 -0.00411023 -0.000515711
0.0203952 0 0.00457368 -0.00016677 0.000182533 6.94737e-06
-0.0205529 -2.25875e-21 0.00387353 0.0347898 -0.0317483 -0.00308409
0.0205531 -2.25875e-21 0.00387367 -0.00140947 0.00153618 5.44429e-05
-0.0208258 5.42101e-20 0.00194373 0.0662366 -0.0675723 -0.00257362
0.0208259 -2.71051e-20 0.00194374 -0.00244175 0.00265671 3.1045e-05
0.0209524 0 4.20741e-16 0 0 0
-0.0209524 -8.47033e-21 4.14861e-16 0 0 0
-0.0209675 -2.5411e-21 0.000105966 0.0051694 -0.00560575 -0.000192184
0.0209676 0 0.000106769 -6.17055e-06 8.13242e-06 -3.02415e-06
-0.0209754 -1.18585e-20 2.17868e-16 0 0 0
0.0209755 0 2.20894e-16 0 0 0
-0.0204458 0 0.00468592 0 0 0
0.0204463 0 0.00468616 0 0 0
0.020982 0 0.000349578 -7.31139e-05 8.47352e-05 -9.32297e-06
-0.020982 1.69407e-21 0.000349595 0.0173887 -0.0187405 -0.000636156
-0.0206056 0 0.00432294 0.021589 -0.019028 -0.00220077
0.020606 3.38813e-22 0.00432311 -0.000837559 0.000915489 3.5701e-05
-0.0209339 0 0.00277546 0.0635229 -0.0626703 -0.00408161
0.020934 2.71051e-20 0.00277549 -0.00266132 0.00289715 7.1781e-05
-0.0206248 6.77626e-21 0.0047813 0 0 0
0.0206252 6.77626e-21 0.00478146 0 0 0
-0.0208973 0 0.00349614 0.0521659 -0.0485776 -0.00450207
0.0208974 0 0.00349621 -0.00221507 0.00241267 7.92129e-05
-0.0212499 1.35525e-20 -3.23245e-16 0 0 0
0.02125 0 -3.25657e-16 0 0 0
-0.0207397 -6.77626e-21 0.00484247 0 0 0
0.0207403 0 0.00484278 0 0 0
-0.0207849 4.51751e-21 0.00466272 0.0109378 -0.00917974 -0.00134963
0.0207853 0 0.00466297 -0.000395694 0.000434782 1.93458e-05
-0.020919 -2.71051e-20 0.00411646 0.0369938 -0.0327312 -0.00382243
0.0209192 0 0.00411659 -0.00147026 0.00160483 6.19076e-05
0.0212542 8.47033e-22 0.00168692 -0.00238507 0.00260226 2.46031e-05
-0.0212542 1.12938e-21 0.00168692 0.0629007 -0.0648799 -0.00230817
-0.0213183 -5.27043e-21 0.00090011 0.0375748 -0.0393945 -0.00117875
0.0213184 3.76459e-21 0.000900084 -0.00107921 0.00118148 6.97572e-06
-0.0213459 2.71051e-20 0.000121878 0.00591586 -0.00609981 -0.000129529
0.0213461 0 0.000122078 -1.19872e-05 9.47747e-06 1.62162e-06
-0.0213547 -1.35525e-20 6.62743e-17 0 0 0
0.0213549 1.35525e-20 6.75068e-17 0 0 0
-0.0212894 -1.12938e-21 0.00229421 0.0653596 -0.0659651 -0.0034702
0.0212894 -2.25875e-21 0.00229423 -0.0027364 0.00298593 5.23676e-05
-0.0214253 1.35525e-20 -2.81409e-16 0 0 0
0.0214256 4.06576e-20 -2.82555e-16 0 0 0
-0.0212264 -1.35525e-21 0.00310843 0.0612404 -0.0594164 -0.00445738
0.0212264 9.03502e-22 0.00310848 -0.00268249 0.00292599 7.72198e-05
-0.0209343 1.35525e-20 0.00494614 0 0 0
0.0209347 0 0.00494637 0 0 0
-0.0212106 1.12938e-21 0.00381734 0.0494666 -0.0452108 -0.00468702
0.0212108 -1.12938e-21 0.00381742 -0.00209887 0.00229213 8.02342e-05
-0.0215706 0 0.000127244 0.00692728 -0.00746666 -0.000152412
0.0215712 1.35525e-20 0.00012747 -0.000147392 0.000167108 8.26771e-07
-0.0216062 1.35525e-20 1.82017e-16 0 0 0
0.0216069 1.35525e-20 1.81754e-16 0 0 0
-0.0210472 -1.35525e-20 0.00500632 0 0 0
0.0210476 -1.35525e-20 0.00500653 0 0 0
-0.0210903 -2.71051e-20 0.00488671 0.00909353 -0.00756953 -0.00129788
0.0210906 -2.71051e-20 0.00488695 -0.000316637 0.000336906 1.48387e-05
-0.0212076 -1.8823e-21 0.00450561 0.0283552 -0.0245465 -0.00324024
0.0212079 -1.8823e-21 0.00450575 -0.0010972 0.00120349 4.98201e-05
-0.0215471 -5.42101e-20 0.0027678 0.0678707 -0.0678401 -0.00427682
0.0215471 0 0.00276782 -0.00307432 0.00335697 6.98971e-05
-0.0215274 2.71051e-20 0.00347138 0.0604195 -0.0569774 -0.00521877
0.0215275 -2.71051e-20 0.00347142 -0.00276308 0.00301877 9.41004e-05
-0.0212498 3.38813e-21 0.00511424 0 0 0
0.0212501 3.38813e-21 0.00511439 0 0 0
-0.0212808 0 0.00513076 0 0 0
0.0212812 0 0.00513096 0 0 0
-0.0213035 6.77626e-21 0.00509491 0.00253305 -0.00215587 -0.000292647
0.0213039 -3.38813e-21 0.00509497 -0.000101099 0.000116528 5.66971e-06
-0.0215161 2.71051e-20 0.00414681 0.049819 -0.0441016 -0.00531854
0.0215163 2.71051e-20 0.00414691 -0.00202579 0.00221817 8.81922e-05
-0.0213152 -6.77626e-21 0.00514909 0 0 0
0.0213157 0 0.00514937 0 0 0
-0.0219058 -5.42101e-20 0.001718 0.0632413 -0.0663047 -0.0025249
0.0219059 -5.42101e-20 0.001718 -0.00277444 0.00304848 2.60985e-05
-0.0214404 9.03502e-21 0.00489762 0.0176812 -0.0148805 -0.0021849
0.0214407 -3.01167e-21 0.00489781 -0.000670494 0.000758566 3.56931e-05
-0.0218827 -8.47033e-22 0.00243261 0.0672609 -0.0680327 -0.00393198
0.0218827 -4.94103e-22 0.00243267 -0.00318057 0.00348066 7.10866e-05
-0.0220244 0 0.000514819 0.029225 -0.0320617 -0.000502049
0.0220245 0 0.000514821 -0.000712312 0.000794216 1.97398e-07
-0.0218548 0 0.00311109 0.0661022 -0.0646829 -0.00470721
0.0218549 5.64689e-22 0.00311111 -0.00317348 0.00346902 9.3898e-05
-0.0218321 -1.12938e-21 0.00380917 0.0591884 -0.0546194 -0.00538955
0.0218322 -3.38813e-21 0.00380923 -0.00268537 0.00293892 0.000104592
-0.0215576 1.35525e-20 0.00527824 0 0 0
0.0215581 1.35525e-20 0.00527848 0 0 0
-0.021618 0 0.00521392 0.00693653 -0.00543993 -0.00104284
0.0216184 0 0.00521418 -0.000213761 0.000237096 1.06935e-05
-0.0217926 -2.25875e-21 0.00451282 0.0418954 -0.0364945 -0.00462794
0.0217928 2.25875e-21 0.00451296 -0.00168301 0.00185133 7.9072e-05
-0.0216748 2.71051e-20 0.00534064 0 0 0
0.0216752 2.71051e-20 0.00534085 0 0 0
-0.0221927 2.71051e-20 0.00274698 0.0693146 -0.0699801 -0.00425466
0.0221928 0 0.00274698 -0.00351751 0.00384998 9.3403e-05
-0.0218358 -2.25875e-22 0.0049689 0.0272988 -0.0226402 -0.0035145
0.0218361 -2.25875e-22 0.00496905 -0.000975299 0.00107977 5.02815e-05
-0.0221555 0 0.0034489 0.0667401 -0.0638899 -0.00508435
0.0221556 2.71051e-20 0.00344893 -0.00332808 0.00363861 0.000117511