# UMean  POINT_DATA 14932
# x  y  z  UMean_x  UMean_y  UMean_z
-1.35525e-20 0.014142 1.6805e-07 0 0 0
1.35525e-20 -0.014142 1.6805e-07 0 0 0
-3.38813e-21 0.014142 0.00038916 0 0 0
6.77626e-21 -0.014142 0.000389158 0 0 0
3.38813e-21 0.014142 0.000654608 0 0 0
1.35525e-20 -0.014142 0.000654611 0 0 0
1.35525e-20 0.014142 0.0010436 0 0 0
1.35525e-20 -0.014142 0.0010436 0 0 0
3.38813e-21 0.014142 0.00143258 0 0 0
-3.38813e-21 -0.014142 0.00143258 0 0 0
0 -0.0142373 0.000284209 0.00209378 -0.00212909 1.11868e-05
-1.35525e-20 0.0142373 0.000284209 9.55481e-05 -8.64213e-05 1.90223e-05
-1.01644e-20 0.014142 0.00169802 0 0 0
-1.69407e-20 -0.014142 0.00169802 0 0 0
2.71051e-20 0.0142373 0.000886385 9.55486e-05 -8.64218e-05 1.90223e-05
0 -0.0142373 0.000886387 0.00209377 -0.00212908 1.11867e-05
6.77626e-21 -0.0142692 1.47356e-07 0 0 0
0 0.0142693 1.47356e-07 0 0 0
-1.35525e-20 0.0142379 0.00122537 0.000104697 -0.000107096 1.32585e-05
0 -0.0142379 0.00122537 0.00287553 -0.00284404 -4.76413e-05
-1.35525e-20 0.014142 0.002087 0 0 0
1.35525e-20 -0.014142 0.002087 0 0 0
0 -0.0142973 0.00010195 0.00148452 -0.00134862 -7.35072e-05
0 0.0142973 0.000101947 4.68819e-05 -3.9543e-05 -4.59796e-07
1.35525e-20 0.0142379 0.00182859 0.000104696 -0.000107096 1.32584e-05
0 -0.0142379 0.00182859 0.00287555 -0.00284406 -4.76416e-05
1.35525e-20 -0.014375 1.30158e-07 0 0 0
0 0.014375 1.30158e-07 0 0 0
-1.35525e-20 0.0143674 0.000671835 0.000199877 -0.000176043 5.01323e-05
0 -0.0143674 0.000671836 0.00523322 -0.00544277 -7.89097e-05
-6.77626e-21 0.0142627 0.00213224 0 0 0
-6.77626e-21 -0.0142627 0.00213225 0 0 0
0 0.0142982 0.00203098 7.1139e-05 -6.34178e-05 5.84252e-07
0 -0.0142982 0.00203099 0.00326843 -0.00326357 -1.02722e-05
0 0.0143693 0.00147446 0.000210792 -0.000220229 3.00784e-05
-2.71051e-20 -0.0143693 0.00147446 0.00708074 -0.00725394 -1.56227e-05
-4.92819e-21 0.0145076 0.000511139 0.00018985 -0.000236577 4.86967e-05
2.4641e-21 -0.0145076 0.000511141 0.00733035 -0.00727796 1.74858e-05
0 -0.0145274 1.02816e-07 0 0 0
-4.06576e-20 0.0145274 1.02816e-07 0 0 0
1.35525e-20 0.014375 0.00217431 0 0 0
2.71051e-20 -0.014375 0.00217431 0 0 0
0 0.0144982 0.00108838 0.000251642 -0.000326036 3.7946e-05
1.12938e-21 -0.0144982 0.00108838 0.0106342 -0.0106936 -4.73583e-05
3.76459e-22 -0.0145753 0.000290334 0.00371497 -0.00427454 -0.000129072
-5.64689e-22 0.0145754 0.000290329 0.000123681 -0.00013691 -2.51836e-06
1.23205e-21 0.014511 0.00167594 0.000237468 -0.000280583 2.90223e-06
0 -0.014511 0.00167595 0.0100709 -0.0101276 -0.000116218
-2.71051e-20 -0.0146106 8.78837e-08 0 0 0
2.71051e-20 0.0146106 8.78835e-08 0 0 0
2.71051e-20 0.0145143 0.00222654 0 0 0
0 -0.0145144 0.00222654 0 0 0
-1.12938e-21 0.0146672 0.000846041 0.000275607 -0.00036832 7.95244e-05
1.12938e-21 -0.0146672 0.000846045 0.0119273 -0.0126794 -0.000192974
9.41148e-23 0.0145785 0.00192704 0.000213033 -0.000194134 1.09534e-05
1.8823e-22 -0.0145785 0.00192707 0.00821919 -0.00874987 5.93564e-05
-3.38813e-21 0.0146707 0.00137874 0.000330805 -0.000418212 2.30252e-05
2.25875e-21 -0.0146707 0.00137875 0.0139697 -0.0148223 -1.61812e-05
-2.71051e-20 0.0145865 0.0022536 0 0 0
0 -0.0145866 0.00225361 0 0 0
1.35525e-20 0.0147491 0.000649276 0.000263699 -0.000370938 7.19278e-05
0 -0.0147491 0.000649279 0.0108518 -0.0111005 3.93478e-05
-8.47033e-21 0.0147844 0.000655031 0.000259009 -0.000331926 5.12334e-05
3.38813e-21 -0.0147844 0.000655034 0.0113552 -0.0113283 5.96568e-05
0 0.0147988 0.000871585 0.000324228 -0.000410106 5.63805e-05
6.77626e-21 -0.0147988 0.000871591 0.0138622 -0.0145065 -9.77791e-05
0 0.0147845 0.00117651 0.000351518 -0.00045374 3.34998e-05
6.02335e-21 -0.0147845 0.00117652 0.0156378 -0.0158474 -6.33637e-05
0 0.0147605 0.00160861 0.000350982 -0.000425511 -1.39853e-05
0 -0.0147605 0.00160862 0.0148634 -0.0152838 -0.000237291
-1.35525e-20 0.0147977 0.00158745 0.000356489 -0.000408031 2.32514e-06
1.72487e-20 -0.0147977 0.00158746 0.0152182 -0.0156596 -0.00014609
6.77626e-21 -0.0148904 6.18649e-08 0 0 0
1.35525e-20 0.0148905 6.18648e-08 0 0 0
0 0.0147312 0.00230781 0 0 0
0 -0.0147313 0.00230783 0 0 0
3.29402e-22 -0.0149957 0.000282608 0.00609967 -0.00635696 3.38807e-05
-5.64689e-22 0.0149957 0.00028261 0.000110148 -0.0001146 -9.47245e-06
2.71051e-20 -0.015 5.89037e-08 0 0 0
0 0.015 5.89034e-08 0 0 0
2.63521e-21 0.0149668 0.00202068 0.000279023 -0.000196633 -1.22236e-06
-1.8823e-21 -0.0149669 0.00202069 0.0118007 -0.0125038 5.95981e-06
-2.25875e-21 0.0150976 0.000881085 0.000354356 -0.00041565 3.55265e-05
-4.51751e-21 -0.0150976 0.00088109 0.0181124 -0.0183774 -1.44383e-06
1.69407e-21 -0.015 0.00226026 0.00489018 -0.00520583 -2.44171e-07
1.69407e-21 0.015 0.00226035 0.000119056 -7.66237e-05 -3.05658e-07
-2.25875e-21 0.0151055 0.00145482 0.000433821 -0.000467922 1.21846e-05
-2.25875e-21 -0.0151055 0.00145483 0.0206175 -0.0211254 -5.92132e-05
-3.38813e-21 -0.015 0.00240853 0 0 0
3.38813e-21 0.015 0.00240854 0 0 0
2.37169e-20 0.0150362 0.00242211 0 0 0
0 -0.0150362 0.00242211 0 0 0
-2.71051e-20 0.01529 2.82762e-08 0 0 0
-2.71051e-20 -0.01529 2.82764e-08 0 0 0
-3.38813e-21 0.015119 0.00245307 0 0 0
3.38813e-21 -0.015119 0.0024531 0 0 0
2.71051e-20 0.0153534 0.000582976 0.000247525 -0.000314403 2.71604e-05
5.42101e-20 -0.0153534 0.000582978 0.0150968 -0.0150648 4.85362e-05
-2.71051e-20 0.0153937 0.00118118 0.000421299 -0.000509719 2.97104e-05
0 -0.0153937 0.00118119 0.0233338 -0.0234793 -2.24969e-05
0 0.0153686 0.00185159 0.000365234 -0.000380554 2.35609e-06
-2.71051e-20 -0.0153687 0.00185159 0.0192149 -0.0194932 -3.32345e-05
-1.35525e-20 0.0152769 0.00251208 0 0 0
0 -0.0152769 0.0025121 0 0 0
6.77626e-21 0.0153113 0.00239115 0.0001093 -0.000107253 -6.63054e-06
6.77626e-21 -0.0153113 0.00239115 0.00475408 -0.00510558 5.47163e-05
-2.25875e-21 0.015375 0.00227891 0.000212464 -0.000206855 -1.21553e-05
0 -0.015375 0.00227891 0.00942015 -0.0100518 9.199e-05
2.20229e-20 0.015625 2.01014e-08 0 0 0
2.03288e-20 -0.015625 2.01012e-08 0 0 0
1.18585e-20 0.0156405 1.9576e-08 0 0 0
1.01644e-20 -0.0156405 1.95765e-08 0 0 0
1.12938e-21 0.0156636 0.000293521 8.91858e-05 -0.000122002 -1.40583e-05
2.25875e-21 -0.0156636 0.000293518 0.00979643 -0.0098015 7.51111e-06
-1.35525e-20 -0.0154657 0.00258282 0 0 0
0 0.0154657 0.00258282 0 0 0
-2.25875e-21 -0.015717 0.000894934 0.0256541 -0.0255376 1.53071e-05
-6.77626e-21 0.015717 0.000894932 0.00037838 -0.000471196 3.17806e-05
0 0.0157234 0.00153502 0.000489131 -0.000569568 2.65997e-05
4.51751e-21 -0.0157234 0.00153501 0.0294593 -0.0295112 5.31556e-05
0 -0.015651 0.00230882 0.013542 -0.0137873 5.01042e-05
-8.47033e-22 0.015651 0.00230883 0.000227993 -0.000223758 -1.3298e-05
-1.35525e-20 0.0156249 0.00255271 5.49759e-05 -7.98533e-05 -2.18264e-05
1.35525e-20 -0.0156249 0.0025527 0.00433514 -0.00432639 -1.81887e-05
6.77626e-21 0.0156249 0.0026425 0 0 0
-6.77626e-21 -0.0156249 0.00264251 0 0 0
-9.03502e-21 0.0157441 0.00206315 0.000354021 -0.000352272 8.58e-06
1.35525e-20 -0.0157441 0.00206315 0.0209852 -0.021244 0.000100041
2.71051e-20 0.015972 1.09709e-08 0 0 0
0 -0.015972 1.09709e-08 0 0 0
2.71051e-20 -0.0157578 0.00269219 0 0 0
2.71051e-20 0.0157578 0.00269219 0 0 0
0 -0.0157985 0.00252729 0.00869726 -0.00868815 -3.17285e-05
-8.13152e-21 0.0157985 0.0025273 0.000117097 -0.000143244 -3.48017e-05
-2.71051e-20 0.0160282 0.000587523 0.00024482 -0.000310116 1.0326e-05
2.71051e-20 -0.0160282 0.000587524 0.0200413 -0.01999 5.66115e-06
0 0.0160587 0.00121789 0.000481428 -0.000565786 2.97935e-05
0 -0.0160587 0.00121789 0.0318838 -0.031837 1.01434e-05
0 0.0160379 0.00190439 0.000445033 -0.000473777 2.00723e-05
2.71051e-20 -0.0160379 0.00190438 0.0279224 -0.0280879 4.86245e-05
0 -0.0159573 0.00276704 0 0 0
0 0.0159573 0.00276704 0 0 0
1.12938e-20 -0.0160447 0.00231947 0.019305 -0.0194382 4.67261e-05
-4.51751e-21 0.0160447 0.0023195 0.000291172 -0.000315437 -4.41035e-06
6.77626e-21 0.01625 8.16826e-09 0 0 0
-6.77626e-21 -0.01625 8.16829e-09 0 0 0
-2.25875e-21 0.0163415 0.000297249 7.98627e-05 -0.000128528 -9.36703e-06
2.25875e-21 -0.0163415 0.000297252 0.0119345 -0.0119028 -1.67291e-06
6.77626e-21 0.0163888 5.62448e-09 0 0 0
-2.03288e-20 -0.0163888 5.62434e-09 0 0 0
-2.25875e-21 -0.0163799 0.000909686 0.0317543 -0.0315309 1.24983e-06
4.51751e-21 0.0163799 0.000909686 0.000416158 -0.000511315 3.18893e-05
-1.6263e-20 0.0163164 0.002107 0.000450155 -0.00048213 3.42764e-05
0 -0.0163164 0.00210699 0.0298945 -0.0300262 8.16995e-05
-6.77626e-21 -0.0163934 0.00156024 0.0373546 -0.0372061 1.55818e-05
2.25875e-21 0.0163934 0.00156024 0.000561478 -0.000642341 2.79463e-05
-1.35525e-20 0.0162498 0.00287804 0 0 0
2.37169e-20 -0.0162499 0.00287808 0 0 0
6.77626e-21 -0.016295 0.00289505 0 0 0
-1.01644e-20 0.0162953 0.00289514 0 0 0
0 -0.0163557 0.00265169 0.014035 -0.0139949 -6.00821e-05
0 0.0163557 0.00265171 0.000194919 -0.000222085 -1.4628e-05
-2.71051e-20 0.0166549 2.57177e-09 0 0 0
0 -0.0166549 2.57172e-09 0 0 0
-2.71051e-20 0.0166923 0.000591889 0.000255134 -0.00033364 1.09364e-05
-2.71051e-20 -0.0166923 0.000591889 0.024032 -0.0238655 2.66914e-06
2.71051e-20 -0.0165883 0.00300631 0 0 0
2.71051e-20 0.0165884 0.00300634 0 0 0
0 0.0168225 0.00122844 0.000550594 -0.00064494 2.90016e-05
4.51751e-21 -0.0168225 0.00122844 0.0401714 -0.0399052 -4.90861e-05
-1.35525e-20 0.016875 2.08171e-09 0 0 0
-2.71051e-20 -0.016875 2.08167e-09 0 0 0
4.51751e-21 -0.0167185 0.00238646 0.0294015 -0.0294419 -5.75256e-05
9.03502e-21 0.0167185 0.00238653 0.000415747 -0.000447554 2.47024e-05
9.03502e-21 0.0167785 0.00193449 0.000562473 -0.000619194 3.56317e-05
-6.77626e-21 -0.0167785 0.00193449 0.0388735 -0.0388121 -5.22929e-05
-8.13152e-21 0.0169401 0.000818251 0.00041043 -0.000507497 2.8731e-05
2.71051e-21 -0.0169401 0.000818252 0.034313 -0.0340494 -3.36042e-06
0 0.0170157 0.000298678 8.6862e-05 -0.00014006 -4.66131e-06
-6.77626e-21 -0.0170157 0.000298678 0.0135234 -0.0134329 2.24095e-05
-6.77626e-21 -0.0168116 0.00309149 0 0 0
6.77626e-21 0.0168118 0.00309158 0 0 0
-2.71051e-20 0.0170535 0.00156148 0.000672842 -0.00075416 1.96456e-05
0 -0.0170535 0.00156147 0.046228 -0.0459463 -0.000139049
1.35525e-20 -0.0171302 1.11108e-09 0 0 0
0 0.0171302 1.11109e-09 0 0 0
-6.77626e-21 0.0168748 0.00300377 9.90295e-05 -8.90137e-05 -3.76941e-07
-3.38813e-21 -0.016875 0.00300312 0.00628247 -0.00633969 -2.7711e-05
6.77626e-21 0.0168748 0.00311544 0 0 0
3.38813e-21 -0.0168751 0.00311552 0 0 0
2.25875e-21 -0.0169651 0.00280897 0.0183124 -0.0184488 -7.93337e-05
4.51751e-21 0.0169652 0.00280902 0.000284052 -0.000265008 1.44904e-06
-2.71051e-20 -0.0170597 0.00222742 0.0404565 -0.0404766 -0.000162038
-2.71051e-20 0.0170597 0.00222745 0.000556788 -0.000595663 5.3694e-05
2.71051e-20 0.0173299 6.20518e-10 0 0 0
-5.42101e-20 -0.0173299 6.2051e-10 0 0 0
0 -0.0170862 0.00319594 0 0 0
2.71051e-20 0.0170864 0.00319602 0 0 0
9.03502e-21 0.0174049 0.000633537 0.000296019 -0.0003821 1.09934e-05
6.77626e-21 -0.0174049 0.000633537 0.0289983 -0.0287993 -1.925e-05
-4.51751e-21 -0.0173768 0.00122554 0.0448889 -0.0445896 -0.000139932
-2.25875e-21 0.0173768 0.00122555 0.000587081 -0.000681877 2.19309e-05
0 -0.0173842 0.00190622 0.0469052 -0.0467457 -0.000245039
-1.35525e-20 0.0173842 0.00190623 0.000640024 -0.000705545 3.70819e-05
4.06576e-20 0.0175 5.31041e-10 0 0 0
0 -0.0175 5.31033e-10 0 0 0
2.71051e-20 0.0175 0.000142326 2.65236e-05 -6.07142e-05 -6.44817e-06
-1.35525e-20 -0.0175 0.000142327 0.00733406 -0.00729426 2.31503e-05
1.35525e-20 -0.0172465 0.00325641 0 0 0
2.03288e-20 0.0172466 0.00325643 0 0 0
0 -0.0172975 0.00308987 0.00917774 -0.00957303 7.93554e-05
2.71051e-20 0.0172975 0.00309007 0.000197898 -0.000190744 4.04624e-06
-3.38813e-21 0.0174273 0.00267257 0.00042676 -0.000438256 2.86495e-05
5.64689e-21 -0.0174273 0.00267255 0.0295037 -0.029602 -0.000189803
-2.71051e-20 0.0176746 0.000289047 5.34051e-05 -0.000120176 -1.23664e-05
-2.71051e-20 -0.0176746 0.000289047 0.014552 -0.0144752 4.12485e-05
0 0.0177002 0.000896397 0.00049805 -0.000600653 2.31923e-05
0 -0.0177002 0.000896392 0.0429129 -0.0426186 -0.000115964
1.69407e-21 -0.0174509 0.00333352 0 0 0
1.69407e-21 0.0174516 0.00333379 0 0 0
-2.71051e-20 0.0177154 0.00155334 0.000713401 -0.000801995 7.85368e-06
0 -0.0177154 0.00155333 0.0524866 -0.0521687 -0.000304092
1.69407e-21 -0.0174773 0.00332283 0.00102119 -0.00106517 8.82974e-06
0 0.0174776 0.00332327 2.16698e-05 -2.08864e-05 4.43062e-07
0 -0.0174819 0.00334524 0 0 0
0 0.0174821 0.0033453 0 0 0
0 0.0174998 0.00332149 2.57651e-05 -2.47338e-05 8.46359e-07
1.69407e-21 -0.0174999 0.00332102 0.00160353 -0.00161441 -1.65145e-05
0 0.0174997 0.00334181 9.43103e-06 -9.451e-06 -3.76753e-07
1.69407e-21 -0.0174999 0.00334168 0.000617041 -0.000612031 -1.30566e-05
0 0.0174997 0.00335193 0 0 0
0 -0.0174999 0.00335198 0 0 0
-2.71051e-20 -0.0177081 0.00225899 0.0492303 -0.0491595 -0.000383849
0 0.0177081 0.00225902 0.000628289 -0.000681666 6.66172e-05
-1.35525e-20 -0.0178538 1.78852e-10 0 0 0
-1.35525e-20 0.0178538 1.78853e-10 0 0 0
1.35525e-20 -0.0178632 0.000120417 0.00620505 -0.00617137 1.95865e-05
-1.35525e-20 0.0178632 0.000120416 2.24405e-05 -5.13677e-05 -5.45552e-06
9.03502e-21 -0.017635 0.00307305 0.0173985 -0.0175382 -0.000194558
-9.03502e-21 0.0176351 0.00307313 0.000276377 -0.000244491 7.15561e-06
0 -0.0176457 0.00307746 0.0176077 -0.0177284 -0.000206923
-1.35525e-20 0.0176457 0.00307753 0.000276942 -0.000245254 7.39217e-06
-1.35525e-20 0.0179989 9.38387e-11 0 0 0
1.35525e-20 -0.0179989 9.38379e-11 0 0 0
0 -0.0180168 0.00057603 0.0292781 -0.0291095 -9.01509e-05
0 0.0180168 0.00057603 0.000275582 -0.000357284 -1.21427e-06
4.51751e-21 -0.0180391 0.00120807 0.0493539 -0.0491124 -0.000302263
0 0.0180391 0.00120807 0.000607129 -0.000706724 7.54051e-06
-2.71051e-20 -0.0177836 0.00345876 0 0 0
-1.35525e-20 0.0177837 0.00345884 0 0 0
1.35525e-20 0.0181253 8.3883e-11 0 0 0
0 -0.0181253 8.38822e-11 0 0 0
-1.35525e-20 -0.0181254 0.000104633 0.00563248 -0.00556389 -4.17846e-05
-1.35525e-20 0.0181255 0.000104633 2.72122e-05 -4.7185e-05 -7.79275e-06
0 -0.0180399 0.00190087 0.0538247 -0.053616 -0.000551367
4.51751e-21 0.0180399 0.00190089 0.000676489 -0.000759164 3.29733e-05
0 -0.0178455 0.00338254 0.00596393 -0.00591551 -0.000126197
0 0.0178456 0.00338269 9.2621e-05 -9.28171e-05 -3.70005e-06
2.25875e-21 -0.0180098 0.0026349 0.0393119 -0.0391752 -0.000527836
0 0.0180098 0.00263498 0.000510559 -0.000545017 4.76031e-05
0 -0.0179191 0.00350977 0 0 0
0 0.0179192 0.00350979 0 0 0
-3.61401e-21 -0.0180588 0.00311986 0.0223924 -0.0222669 -0.000351162
-2.25875e-21 0.0180589 0.00311992 0.000338436 -0.000335711 1.98685e-05
0 -0.0183343 0.000279701 0.014833 -0.0146546 -6.3167e-05
-2.71051e-20 0.0183343 0.000279704 6.46077e-05 -0.000124399 -1.83092e-05
0 -0.0183564 0.000873036 0.0457596 -0.0456233 -0.000221956
-2.71051e-20 0.0183565 0.000873036 0.000501131 -0.000599703 3.86511e-06
-2.71051e-20 0.0183698 0.00152854 0.00072164 -0.000829568 -5.77539e-06
-2.71051e-20 -0.0183698 0.00152853 0.0565822 -0.056361 -0.000570911
1.35525e-20 0.0181249 0.00358718 0 0 0
0 -0.018125 0.00358724 0 0 0
2.71051e-20 -0.0183583 0.00223916 0.0573094 -0.0570772 -0.000945973
0 0.0183583 0.0022392 0.000648028 -0.000729806 6.18921e-05
0 0.0185566 2.08891e-11 0 0 0
0 -0.0185566 2.08891e-11 0 0 0
1.35525e-20 -0.0185599 8.40225e-05 0.00452301 -0.00446794 -3.35541e-05
-1.35525e-20 0.0185599 8.40238e-05 2.18524e-05 -3.78913e-05 -6.25787e-06
1.35525e-20 -0.0182298 0.00362666 0 0 0
6.77626e-21 0.0182303 0.00362685 0 0 0
9.03502e-21 -0.0182769 0.00344762 0.0108231 -0.0105946 -0.0002579
0 0.018277 0.00344779 0.000179937 -0.000157244 5.69469e-06
-5.42101e-20 -0.0183882 0.00288112 0.0382767 -0.037795 -0.000683308
-2.71051e-20 0.0183883 0.00288119 0.000505989 -0.000545988 6.04673e-05
-1.35525e-20 -0.0186588 1.21775e-11 0 0 0
0 0.0186588 1.21774e-11 0 0 0
2.25875e-21 -0.0186718 0.000554126 0.0301822 -0.0302101 -0.000117344
6.77626e-21 0.0186718 0.000554126 0.000270163 -0.000344556 -1.20474e-05
-1.12938e-21 -0.0186931 0.00117295 0.0521948 -0.0520925 -0.000511578
-3.38813e-21 0.0186931 0.00117295 0.000584119 -0.000694642 -7.05586e-06
-1.35525e-20 -0.01875 1.12105e-11 0 0 0
1.35525e-20 0.01875 1.12102e-11 0 0 0
1.35525e-20 -0.01875 7.46541e-05 0.00404501 -0.00419368 9.87418e-05
-1.35525e-20 0.01875 7.46588e-05 2.30307e-05 -3.16589e-05 -3.80733e-06
4.51751e-21 -0.0186935 0.00186318 0.0595569 -0.059377 -0.000923678
3.38813e-21 0.0186935 0.0018632 0.000665244 -0.00077455 2.54113e-05
-1.35525e-20 -0.0184505 0.00370969 0 0 0
2.71051e-20 0.0184507 0.00370979 0 0 0
-1.12938e-21 -0.0186914 0.00255843 0.0516386 -0.0511404 -0.00111896
-1.12938e-21 0.0186914 0.00255847 0.000578191 -0.000653891 6.84996e-05
-4.06576e-20 -0.0185631 0.00375372 0 0 0
0 0.0185633 0.00375376 0 0 0
-1.35525e-20 -0.018598 0.00364592 0.00636442 -0.00641989 -5.61127e-05
-4.06576e-20 0.018598 0.00364611 0.000150425 -0.000131666 1.50517e-05
0 -0.0189815 0.000265107 0.0143444 -0.0147148 0.000256587
-2.71051e-20 0.0189816 0.000265108 7.31079e-05 -0.000112819 -1.67603e-05
1.12938e-21 -0.0187011 0.00326206 0.0267606 -0.0261969 -0.000731588
0 0.0187012 0.0032621 0.000375608 -0.000371676 4.47316e-05
2.71051e-20 -0.0190034 0.000835917 0.0467253 -0.0467721 -0.000445062
0 0.0190034 0.000835918 0.000456887 -0.000556762 -1.56965e-05
-2.71051e-20 -0.0190202 0.00148192 0.0599667 -0.0598663 -0.000814029
5.42101e-20 0.0190202 0.00148194 0.000663061 -0.000798248 -1.17496e-05
-6.77626e-21 0.0187498 0.00382104 0 0 0
-1.35525e-20 -0.0187499 0.00382109 0 0 0
0 -0.0190135 0.00218681 0.0643592 -0.0641915 -0.00135986
-2.71051e-20 0.0190135 0.00218684 0.000629306 -0.000742203 5.63832e-05
-6.77626e-21 -0.0188253 0.00385016 0 0 0
0 0.0188256 0.00385027 0 0 0
-5.42101e-20 -0.0190102 0.00288285 0.0481641 -0.0470684 -0.00152915
0 0.0190103 0.00288292 0.00053633 -0.000608729 9.4714e-05
-6.77626e-21 -0.018869 0.00377278 0.00579472 -0.00556809 -0.000247777
6.77626e-21 0.0188695 0.00377248 8.87843e-05 -5.91468e-05 8.51144e-06
-1.35525e-20 0.0192456 1.60944e-12 0 0 0
-6.77626e-21 -0.0192456 1.60935e-12 0 0 0
0 0.0192458 5.21881e-05 1.6099e-05 -2.21303e-05 -2.66141e-06
0 -0.0192459 5.21802e-05 0.0028273 -0.00293122 6.90166e-05
4.51751e-21 -0.0189593 0.00363159 0.0163241 -0.0157159 -0.000667826
-4.51751e-21 0.0189594 0.00363171 0.000257776 -0.000189766 2.93166e-05
-6.77626e-21 -0.0193107 8.87467e-13 0 0 0
0 0.0193107 8.87427e-13 0 0 0
1.35525e-20 -0.0189216 0.00388925 0 0 0
-6.77626e-21 0.0189225 0.00388962 0 0 0
2.25875e-21 -0.0193153 0.000516098 0.0290304 -0.0291379 -0.000400968
0 0.0193153 0.000516099 0.000240251 -0.000308581 -2.38162e-05
1.35525e-20 -0.0193661 4.34921e-05 0.00233027 -0.00222342 -0.00014314
-6.77626e-21 0.0193662 4.35036e-05 1.58716e-05 -2.42276e-05 -5.26566e-06
6.77626e-21 -0.0193681 8.52526e-13 0 0 0
-6.77626e-21 0.0193681 8.52456e-13 0 0 0
9.03502e-22 0.0193579 0.00110753 0.000518696 -0.000634549 -1.63004e-05
-9.03502e-22 -0.0193579 0.00110753 0.0525057 -0.0527227 -0.000803346
-1.12938e-21 -0.0193482 0.00179878 0.0640625 -0.0640593 -0.00137056
1.12938e-21 0.0193482 0.00179879 0.000612177 -0.000746817 1.96665e-05
-1.12938e-21 -0.0193328 0.00252219 0.0600148 -0.0593455 -0.00176599
0 0.0193329 0.00252223 0.000562832 -0.000668642 7.76553e-05
2.71051e-20 -0.0191251 0.00398458 0 0 0
0 0.0191255 0.00398476 0 0 0
2.71051e-20 -0.0191698 0.00393531 0.00426202 -0.00401674 -0.000215248
-1.35525e-20 0.01917 0.00393559 6.86474e-05 -5.61769e-05 9.87966e-06
-1.12938e-20 -0.0192999 0.00324532 0.0372241 -0.0360616 -0.00143159
-6.77626e-21 0.0192999 0.00324545 0.000436977 -0.000452256 8.43818e-05
-2.71051e-20 -0.0196143 0.000236549 0.0127122 -0.0122686 -0.000652765
0 0.0196143 0.000236555 7.17214e-05 -0.000123542 -3.34607e-05
0 -0.0192179 0.00403218 0 0 0
0 0.019218 0.00403225 0 0 0
0 -0.0196507 0.000769621 0.0438256 -0.0442786 -0.000753932
-2.71051e-20 0.0196507 0.000769624 0.000380101 -0.000465355 -2.79887e-05
5.64689e-22 -0.019364 0.0036912 0.0217567 -0.0207179 -0.000988178
-7.90564e-22 0.0193642 0.00369131 0.000321346 -0.000277656 5.91158e-05
0 -0.0197262 4.3324e-13 0 0 0
3.38813e-21 0.0197263 4.33011e-13 0 0 0
-2.71051e-20 -0.0196852 0.0013914 0.0607653 -0.061173 -0.00119538
-2.71051e-20 0.0196852 0.0013914 0.000599751 -0.000747705 -1.04866e-05
5.42101e-20 -0.019658 0.00213353 0.0708801 -0.0707494 -0.00209422
0 0.019658 0.00213356 0.000557183 -0.000700297 4.42891e-05
0 0.0193748 0.00398188 0.000120341 -7.92492e-05 2.23444e-05
0 -0.0193751 0.00398171 0.00755851 -0.00698717 -0.000458623
1.35525e-20 0.0193748 0.00411568 0 0 0
-6.77626e-21 -0.0193751 0.00411583 0 0 0
-5.42101e-20 -0.0196507 0.00284929 0.0572301 -0.0559671 -0.00209888
0 0.0196508 0.00284935 0.000528793 -0.000625699 0.000113849
2.48463e-21 0.0199511 0.000464191 0.000172685 -0.000221087 -3.03946e-05
1.58113e-21 -0.0199511 0.00046419 0.0258892 -0.0261589 -0.000537168
2.71051e-20 -0.0196742 0.00348114 0.0369966 -0.0350772 -0.00176325
-2.71051e-20 0.0196743 0.00348124 0.000449908 -0.000439177 0.000114151
0 -0.0195407 0.00420391 0 0 0
-6.77626e-21 0.0195414 0.00420428 0 0 0
0 0.02 4.81857e-13 0 0 0
0 0.02 2.78524e-05 6.17927e-06 -1.32726e-05 -4.68981e-06
0 -0.02 4.82208e-13 0 0 0
0 -0.02 2.78703e-05 0.00150367 -0.00147278 -5.73631e-05
-3.38813e-21 0.02 0.000208128 7.77887e-05 -0.00010145 -1.42341e-05
0 -0.02 0.000208218 0.0118143 -0.0119305 -0.00023018
-6.77626e-21 0.0200396 7.19394e-14 0 0 0
-6.77626e-21 -0.0200397 7.19946e-14 0 0 0
0 -0.0196489 0.00406133 0.011145 -0.0103328 -0.000653088
-1.0842e-20 0.0196492 0.00406167 0.000178572 -0.000122258 3.18924e-05
0 0.0200681 2.37555e-05 2.31086e-06 -6.31371e-06 -2.76838e-06
0 -0.0200682 2.37724e-05 0.00136892 -0.00144068 5.25859e-05
-2.35287e-22 -0.0199935 0.00175524 0.0664538 -0.0667672 -0.00170029
1.41172e-22 0.0199936 0.00175513 0.00054768 -0.000690743 1.69696e-05
-6.77626e-21 0.0200714 3.9263e-14 0 0 0
-6.77626e-21 -0.0200715 3.9285e-14 0 0 0
-2.25875e-21 0.0200889 0.000959444 0.0003847 -0.000473647 -2.19275e-05
0 -0.0200889 0.000959437 0.0464018 -0.0469272 -0.000894661
-8.87368e-22 -0.020018 0.0024485 0.0651837 -0.0645535 -0.00235568
3.22679e-22 0.0200181 0.0024486 0.000517188 -0.000639609 7.53731e-05
-6.77626e-21 0.0201757 9.02792e-15 0 0 0
0 -0.0201759 9.03188e-15 0 0 0
-1.35525e-20 -0.0197164 0.0042974 0 0 0
-2.71051e-20 0.0197167 0.00429758 0 0 0
-2.82344e-21 -0.019968 0.00317454 0.0513699 -0.0495005 -0.00247484
0 0.019968 0.00317461 0.000474816 -0.000526877 0.00012159
1.35525e-20 -0.0198178 0.00435143 0 0 0
-1.35525e-20 0.0198179 0.00435149 0 0 0
1.35525e-20 -0.0198553 0.00424439 0.00633074 -0.00601531 -0.000315834
0 0.0198553 0.00424466 0.000134835 -9.05154e-05 2.9556e-05
1.50584e-21 -0.0199716 0.00386195 0.0271406 -0.0253975 -0.00165072
-1.69407e-21 0.0199717 0.00386203 0.000338901 -0.000280184 8.99282e-05
0 0.0204248 0.000311575 0.000123699 -0.000140951 -3.62875e-05
2.25875e-21 -0.0204248 0.000311594 0.0179978 -0.0182979 -0.000332943
0 -0.02042 0.00146742 0.0650865 -0.0659547 -0.00153508
-2.71051e-20 0.02042 0.00146741 0.000486418 -0.00061289 -6.13146e-06
0 -0.0202841 0.00282329 0.0644755 -0.0630837 -0.00307155
0 0.0202842 0.00282334 0.000477811 -0.000594541 0.000100693
6.77626e-21 0.0199999 0.00444852 0 0 0
6.77626e-21 -0.0200001 0.00444866 0 0 0
-2.71051e-20 -0.0204141 0.00196452 0.0715979 -0.0723105 -0.00209521
-5.42101e-20 0.0204142 0.00196455 0.000503841 -0.000650558 2.83249e-05
1.35525e-20 0.0205235 4.55464e-15 0 0 0
0 -0.0205236 4.54438e-15 0 0 0
6.77626e-21 -0.0200603 0.00448072 0 0 0
0 0.0200605 0.00448086 0 0 0
-2.71051e-20 -0.0202766 0.00350282 0.0485574 -0.0456834 -0.00304921
-2.71051e-20 0.0202767 0.00350291 0.000444066 -0.00045744 0.000157158
3.38813e-21 -0.0201017 0.00441369 0.00523835 -0.00479554 -0.000434218
3.38813e-21 0.0201022 0.00441328 7.30365e-05 -3.11503e-05 1.86819e-05
-6.77626e-21 -0.0201267 0.00451611 0 0 0
6.77626e-21 0.0201275 0.00451657 0 0 0
-6.77626e-21 -0.0202112 0.00425305 0.0174625 -0.0159839 -0.00140371
5.27043e-21 0.0202113 0.00425322 0.000244347 -0.000122014 6.44848e-05
1.77474e-21 -0.0206611 0.000857183 0.0395012 -0.0402532 -0.000921462
-7.26028e-22 0.0206612 0.000857155 0.000273724 -0.000314289 -2.88707e-05
-2.71051e-20 0.0206907 1.34737e-15 0 0 0
0 -0.0206907 1.33314e-15 0 0 0
0 -0.020629 0.00169534 0.0686216 -0.0695614 -0.00190152
1.35525e-20 0.020629 0.00169534 0.000480536 -0.000613979 1.15368e-05
1.41172e-22 0.0206304 0.00244032 0.00046668 -0.000602373 6.2463e-05
0 -0.0206304 0.0024403 0.0700614 -0.0697083 -0.00289789
-5.64689e-22 -0.0205956 0.00315756 0.0606151 -0.0584903 -0.00343146
-1.69407e-21 0.0205957 0.0031576 0.000439658 -0.00051151 0.000117921
0 -0.0203415 0.00463057 0 0 0
-1.35525e-20 0.0203419 0.00463079 0 0 0
2.71051e-20 -0.0208462 0.00142109 0.0650749 -0.0664639 -0.00174967
0 0.0208463 0.00142107 0.000446819 -0.000559204 -4.02371e-06
0 -0.0203946 0.00457335 0.00537565 -0.00475674 -0.000484275
0 0.0203949 0.0045737 7.09118e-05 -4.00791e-05 2.06432e-05
0 -0.0205528 0.00387349 0.0390112 -0.0362486 -0.00280105
0 0.0205529 0.00387365 0.000367396 -0.000313254 0.000121767
0 -0.0208258 0.00194371 0.0730289 -0.0740145 -0.00231796
0 0.0208258 0.00194373 0.000472058 -0.000611325 2.5097e-05
-3.38813e-21 0.0209525 4.1993e-16 0 0 0
0 -0.0209526 4.12756e-16 0 0 0
0 -0.0209676 0.000105362 0.00558699 -0.0056978 -9.99577e-05
3.38813e-21 0.0209677 0.000106546 1.50112e-05 -9.66193e-07 -9.40631e-06
-1.69407e-21 -0.0209754 2.17162e-16 0 0 0
1.69407e-21 0.0209756 2.20484e-16 0 0 0
-2.71051e-20 -0.0204458 0.00468612 0 0 0
0 0.020446 0.00468621 0 0 0
-1.12938e-21 0.0209821 0.000349585 6.07062e-05 -2.33554e-05 -2.93841e-05
0 -0.0209822 0.000349599 0.018822 -0.0192352 -0.000358508
-1.01644e-21 -0.0206056 0.00432302 0.0240742 -0.0217763 -0.00199526
1.12938e-22 0.0206057 0.00432315 0.000285088 -0.000178678 8.9021e-05
0 -0.0209339 0.00277547 0.0715411 -0.0707288 -0.00355444
-5.42101e-20 0.0209339 0.00277549 0.000426704 -0.000562766 6.96507e-05
1.35525e-20 0.0206249 0.00478151 0 0 0
0 -0.0206251 0.00478166 0 0 0
0 -0.0208973 0.00349615 0.0585729 -0.0552273 -0.00405428
-2.71051e-20 0.0208974 0.00349622 0.000411248 -0.000436819 0.000141926
0 0.0212501 -3.25606e-16 0 0 0
0 -0.0212501 -3.23147e-16 0 0 0
-3.38813e-20 -0.0207393 0.0048425 0 0 0
2.71051e-20 0.0207401 0.00484287 0 0 0
1.35525e-20 -0.020785 0.00466278 0.0121365 -0.0105672 -0.00123343
0 0.0207851 0.00466305 0.000150276 -6.37449e-05 4.63259e-05
-2.71051e-20 -0.020919 0.0041165 0.0411609 -0.0373657 -0.00338575
2.71051e-20 0.0209191 0.00411663 0.000372193 -0.000276505 0.000139392
5.64689e-22 0.0212542 0.00168692 0.000443657 -0.000561373 3.78619e-06
1.69407e-21 -0.0212543 0.00168692 0.0691578 -0.0706731 -0.00209393
7.52918e-22 -0.0213184 0.000900124 0.0411595 -0.0427127 -0.0011062
-1.50584e-21 0.0213184 0.000900095 0.000227787 -0.000240558 -2.20182e-05
-2.71051e-20 -0.021346 0.00012185 0.00647916 -0.00696559 -0.000208739
0 0.0213462 0.000122052 -3.10903e-06 1.27447e-05 -4.34298e-06
0 -0.0213548 6.61869e-17 0 0 0
0 0.021355 6.76435e-17 0 0 0
0 -0.0212894 0.0022942 0.0726423 -0.0729256 -0.00310851
-1.12938e-21 0.0212894 0.00229422 0.000418177 -0.000550809 3.52945e-05
1.35525e-20 -0.0214254 -2.81734e-16 0 0 0
2.71051e-20 0.0214257 -2.82212e-16 0 0 0
-1.12938e-21 -0.0212264 0.0031084 0.0684445 -0.0666269 -0.00395299
1.35525e-21 0.0212264 0.0031085 0.000390009 -0.000480349 8.43379e-05
0 -0.0209342 0.00494631 0 0 0
-1.35525e-20 0.0209345 0.00494647 0 0 0
0 -0.0212107 0.00381738 0.0550469 -0.0511753 -0.00413563
-1.12938e-21 0.0212107 0.00381746 0.000371241 -0.000344306 0.000133372
-2.71051e-20 -0.0215707 0.0001272 0.00761376 -0.00807367 -0.0001381
-1.35525e-20 0.0215713 0.000127441 3.3234e-05 -2.08141e-05 -6.0579e-06
0 -0.0216062 1.81935e-16 0 0 0
-2.71051e-20 0.0216069 1.81687e-16 0 0 0
2.71051e-20 -0.0210473 0.00500657 0 0 0
1.35525e-20 0.0210475 0.00500662 0 0 0
0 -0.0210904 0.00488681 0.00825172 -0.00730517 -0.000742626
1.35525e-20 0.0210904 0.00488706 0.000133759 -6.47478e-05 3.5547e-05
2.63521e-21 -0.0212076 0.00450575 0.0312469 -0.0278875 -0.00285143
1.12938e-21 0.0212077 0.00450582 0.000287315 -0.000166885 0.000102877
-2.71051e-20 -0.0215471 0.00276781 0.0754025 -0.0749501 -0.00389833
2.71051e-20 0.0215471 0.00276784 0.000362826 -0.000508654 3.79962e-05
0 -0.0215274 0.00347141 0.067285 -0.0640832 -0.0045303
0 0.0215275 0.00347145 0.000352931 -0.000396673 9.99578e-05
0 0.0212499 0.0051145 0 0 0
-1.69407e-20 -0.0212502 0.00511463 0 0 0
3.38813e-21 -0.0212808 0.00513096 0 0 0
0 0.0212811 0.00513109 0 0 0
3.38813e-21 -0.0213032 0.0050955 0.00329461 -0.00285969 -0.00038404
-3.38813e-21 0.0213038 0.00509507 3.40306e-05 -4.75686e-06 1.1524e-05
0 -0.0215161 0.00414688 0.0548691 -0.0497283 -0.00466803
2.71051e-20 0.0215162 0.00414698 0.000347228 -0.000273773 0.000150546
-3.38813e-21 -0.0213149 0.00514909 0 0 0
0 0.0213156 0.0051495 0 0 0
0 -0.0219059 0.00171801 0.06961 -0.0719672 -0.00228487
-5.42101e-20 0.0219059 0.00171801 0.000400664 -0.000493496 -1.39442e-05
1.05409e-20 -0.0214404 0.00489776 0.0212681 -0.0184454 -0.00237685
-3.01167e-21 0.0214406 0.00489792 0.000216897 -5.5079e-05 7.25819e-05
2.11758e-22 -0.0218827 0.00243256 0.074649 -0.0750192 -0.00352084
3.5293e-22 0.0218827 0.00243267 0.000351561 -0.000479751 1.86968e-05
-5.42101e-20 -0.0220245 0.000514823 0.032177 -0.0346553 -0.0004655
0 0.0220246 0.000514823 0.000131018 -6.02141e-05 -2.31282e-05
5.64689e-22 -0.0218548 0.00311111 0.0735054 -0.0719302 -0.00416031
0 0.0218549 0.00311114 0.000324833 -0.000423743 4.99774e-05
-3.38813e-21 -0.0218321 0.00380922 0.0654664 -0.061257 -0.00466133
0 0.0218321 0.00380928 0.000317736 -0.000314715 0.000109692
0 -0.0215576 0.00527841 0 0 0
0 0.021558 0.0052786 0 0 0
-2.71051e-20 -0.021618 0.00521401 0.00754453 -0.00623448 -0.000924062
0 0.0216183 0.00521431 6.71384e-05 -2.58445e-05 2.09155e-05
2.25875e-21 -0.0217926 0.00451289 0.0457487 -0.0410132 -0.00397212
-2.25875e-21 0.0217927 0.00451304 0.000300009 -0.000184881 0.000124592
2.71051e-20 -0.0216749 0.00534089 0 0 0
-2.71051e-20 0.021675 0.00534096 0 0 0
-2.71051e-20 -0.0221927 0.00274699 0.0771676 -0.0775767 -0.00374196