# UMean  POINT_DATA 27756
# x  y  z  UMean_x  UMean_y  UMean_z
0.014142 -1.35525e-20 1.6805e-07 0 0 0
-0.014142 1.35525e-20 1.6805e-07 0 0 0
-0.014142 -6.77626e-21 0.000389161 0 0 0
0.014142 -3.38813e-21 0.000389161 0 0 0
-0.014142 1.35525e-20 0.000654607 0 0 0
0.014142 -1.01644e-20 0.000654607 0 0 0
0.014142 0 0.0010436 0 0 0
-0.014142 0 0.0010436 0 0 0
0.014142 3.38813e-21 0.00143258 0 0 0
-0.014142 -3.38813e-21 0.00143258 0 0 0
0.0142373 -1.35525e-20 0.000284221 7.06874e-05 -5.96745e-05 2.32886e-05
-0.0142373 0 0.000284221 0.00218205 -0.00231416 -7.53515e-05
0.014142 -3.38813e-21 0.00169802 0 0 0
-0.014142 3.38813e-21 0.00169802 0 0 0
0.0142373 -1.35525e-20 0.000886478 7.06877e-05 -5.96748e-05 2.32887e-05
-0.0142373 -1.35525e-20 0.00088648 0.00218206 -0.00231417 -7.53519e-05
-0.0142692 -2.03288e-20 1.47356e-07 0 0 0
0.0142693 2.03288e-20 1.47356e-07 0 0 0
0.0142379 -1.35525e-20 0.0012254 6.55021e-05 -7.07714e-05 1.20876e-05
-0.0142379 0 0.0012254 0.00289745 -0.00306471 3.62359e-05
0.014142 -1.35525e-20 0.002087 0 0 0
-0.014142 1.35525e-20 0.002087 0 0 0
-0.0142973 0 0.000101975 0.00118896 -0.00138897 -4.43114e-05
0.0142973 1.35525e-20 0.000101973 4.59023e-05 -5.0127e-05 -1.68888e-06
0.0142379 0 0.00182879 6.55018e-05 -7.0771e-05 1.20875e-05
-0.0142379 -1.35525e-20 0.00182879 0.00289744 -0.0030647 3.62358e-05
-0.014375 -1.35525e-20 1.30159e-07 0 0 0
0.014375 1.35525e-20 1.30159e-07 0 0 0
0.0143675 0 0.000671993 0.000193194 -0.000169062 5.00214e-05
-0.0143675 -1.35525e-20 0.000671996 0.00490604 -0.00509831 -7.82912e-05
-0.0142629 6.77626e-21 0.00213232 0 0 0
0.0142629 6.77626e-21 0.00213231 0 0 0
-0.0142983 0 0.00203123 0.00275308 -0.00293603 2.68776e-05
0.0142983 0 0.00203122 6.83597e-05 -6.13883e-05 3.85101e-06
0.0143695 2.71051e-20 0.00147469 0.000192734 -0.00020104 2.87914e-05
-0.0143695 -1.35525e-20 0.0014747 0.00663393 -0.00679591 -8.14866e-06
0.0145077 4.92819e-21 0.000511288 0.000187577 -0.000234848 4.68518e-05
-0.0145077 7.39229e-21 0.000511289 0.00679091 -0.0067119 3.86432e-05
-0.0145274 -1.35525e-20 1.02817e-07 0 0 0
0.0145274 1.35525e-20 1.02816e-07 0 0 0
-0.014375 0 0.00217431 0 0 0
0.014375 0 0.00217432 0 0 0
0.0144983 -1.12938e-21 0.00108867 0.0002398 -0.000312336 3.56943e-05
-0.0144983 0 0.00108868 0.00987381 -0.00987245 -4.22735e-05
-0.0145754 9.41148e-22 0.000290395 0.00401346 -0.0036515 -0.000172796
0.0145754 -3.76459e-22 0.000290391 0.00013678 -0.000123706 1.33315e-06
0.0145113 -6.16024e-21 0.00167641 0.000221083 -0.000263176 1.53834e-06
-0.0145113 -2.4641e-21 0.00167642 0.00935584 -0.00934889 -0.000126014
-0.0146106 0 8.78841e-08 0 0 0
0.0146106 2.71051e-20 8.78836e-08 0 0 0
-0.0145148 1.35525e-20 0.00222669 0 0 0
0.0145148 -1.35525e-20 0.00222669 0 0 0
0.0146674 -2.25875e-21 0.00084634 0.000289371 -0.000423285 6.85963e-05
-0.0146674 0 0.000846346 0.0114585 -0.0106815 0.000279725
0.0145789 -9.41148e-23 0.00192781 0.000174465 -0.000157535 -1.38001e-06
-0.0145789 9.41148e-23 0.00192783 0.00851493 -0.00847109 -1.6405e-05
0.0146711 -3.38813e-21 0.00137924 0.000304264 -0.00044971 1.9627e-05
-0.0146711 0 0.00137925 0.0136685 -0.0128472 -0.000283571
-0.0145873 0 0.00225387 0 0 0
0.0145873 0 0.00225387 0 0 0
0.0147492 0 0.000649507 0.000238555 -0.00033882 6.76252e-05
-0.0147492 -1.35525e-20 0.00064951 0.0109769 -0.0101322 0.000262927
0.0147845 5.0822e-21 0.000655261 0.000241543 -0.000313676 5.03558e-05
-0.0147845 3.38813e-21 0.000655264 0.0106257 -0.0106057 4.96509e-05
0.014799 6.77626e-21 0.00087194 0.000292661 -0.000378048 4.74097e-05
-0.014799 -6.77626e-21 0.000871947 0.0136699 -0.0133155 0.000168614
0.0147848 -1.50584e-21 0.00117685 0.000311544 -0.000411771 3.1788e-05
-0.0147848 -6.02335e-21 0.00117685 0.0148215 -0.0148267 -8.21055e-05
0.0147611 1.35525e-20 0.00160916 0.000302525 -0.000367457 -2.80262e-05
-0.0147611 0 0.00160917 0.0146921 -0.0141527 -0.000288865
0.0147982 9.85638e-21 0.00158804 0.000309638 -0.000360995 7.84445e-07
-0.0147982 1.10884e-20 0.00158805 0.0145768 -0.0146254 -0.000171969
-0.0148904 6.77626e-21 6.18651e-08 0 0 0
0.0148905 0 6.18649e-08 0 0 0
0.0147327 4.06576e-20 0.00230835 0 0 0
-0.0147327 0 0.00230836 0 0 0
-0.0149957 4.70574e-23 0.000282714 0.00574988 -0.00592521 2.51318e-05
0.0149957 -1.8823e-22 0.000282717 0.000115709 -0.000121881 -7.854e-06
-0.015 0 5.8904e-08 0 0 0
0.015 6.77626e-21 5.89036e-08 0 0 0
-0.0149675 7.52918e-22 0.00202158 0.011174 -0.0117909 1.07799e-05
0.0149675 -3.76459e-22 0.00202157 0.000237736 -0.000155806 -3.3965e-06
-0.0150978 1.01644e-20 0.000881424 0.0168979 -0.0172211 -2.39389e-05
0.0150978 1.12938e-21 0.000881419 0.000313021 -0.000371796 3.34154e-05
0.015 -3.38813e-21 0.00225502 0.000107128 -6.52671e-05 -1.56356e-06
-0.015 0 0.00225504 0.00475115 -0.00505615 5.27016e-06
0.0151059 6.77626e-21 0.00145532 0.000373505 -0.000406623 1.02016e-05
-0.0151059 2.25875e-21 0.00145533 0.0192828 -0.0198493 -3.22146e-05
0.015 -3.38813e-21 0.00240854 0 0 0
-0.015 0 0.00240855 0 0 0
-0.0150379 0 0.00242273 0 0 0
0.0150379 -3.38813e-21 0.00242272 0 0 0
0.01529 0 2.82763e-08 0 0 0
-0.01529 2.71051e-20 2.82765e-08 0 0 0
0.0151247 0 0.00245524 0 0 0
-0.0151247 -3.38813e-21 0.00245526 0 0 0
-0.0153535 2.71051e-20 0.00058317 0.0141093 -0.014088 4.13764e-05
0.0153535 5.42101e-20 0.000583168 0.000220107 -0.000286592 2.65161e-05
0.0153939 0 0.00118159 0.00035235 -0.000439357 2.77961e-05
-0.0153939 0 0.0011816 0.0218219 -0.0219747 -1.46634e-05
0.0153693 -2.71051e-20 0.00185215 0.000299505 -0.000316993 6.43796e-07
-0.0153693 -2.71051e-20 0.00185216 0.0179775 -0.0182561 -1.50168e-05
-0.0152781 0 0.00251266 0 0 0
0.0152781 6.77626e-21 0.00251265 0 0 0
-0.0153114 0 0.00239528 0.00515212 -0.00516796 1.47465e-07
0.0153114 -3.38813e-21 0.00239523 6.78617e-05 -3.94043e-05 -4.27612e-06
0.0153767 -4.51751e-21 0.00228002 0.000140862 -8.99945e-05 -8.60689e-06
-0.0153767 0 0.00228003 0.0102463 -0.0103118 1.27164e-06
-0.015625 1.01644e-20 2.01017e-08 0 0 0
0.015625 -2.87991e-20 2.01015e-08 0 0 0
0.0156405 -1.52466e-20 1.9576e-08 0 0 0
-0.0156405 2.71051e-20 1.95762e-08 0 0 0
-0.0156637 -1.12938e-21 0.000293614 0.0091431 -0.00915264 -9.17184e-07
0.0156637 3.38813e-21 0.000293613 8.76292e-05 -0.000122444 -1.31686e-05
0.0154678 0 0.00258382 0 0 0
-0.0154678 -1.35525e-20 0.00258382 0 0 0
0.0157172 -2.25875e-21 0.00089524 0.000305728 -0.000394015 2.92133e-05
-0.0157172 0 0.000895245 0.0239898 -0.0238911 1.54884e-05
0.015724 0 0.00153553 0.000383432 -0.000462264 2.61066e-05
-0.015724 -2.25875e-21 0.00153553 0.0275557 -0.0276266 7.49099e-05
0.0156525 0 0.00230987 0.000176802 -0.00017988 -1.46567e-05
-0.0156525 0 0.00230987 0.0126264 -0.0128953 7.19348e-05
-0.015625 0 0.00255394 0.00398351 -0.00399338 -7.54102e-06
0.015625 -1.35525e-20 0.00255394 3.80536e-05 -6.52932e-05 -2.16541e-05
-0.015625 -2.03288e-20 0.00264258 0 0 0
0.015625 1.35525e-20 0.00264259 0 0 0
-0.0157449 -1.35525e-20 0.00206368 0.0194551 -0.0198042 0.000146002
0.0157449 -4.51751e-21 0.00206369 0.000278105 -0.000287738 6.65129e-06
-0.015972 -5.42101e-20 1.0971e-08 0 0 0
0.015972 -2.71051e-20 1.0971e-08 0 0 0
-0.0157606 0 0.00269322 0 0 0
0.0157606 -4.06576e-20 0.00269323 0 0 0
-0.0158002 0 0.00252824 0.00779725 -0.00793367 7.05585e-06
0.0158002 -8.13152e-21 0.00252825 9.17879e-05 -0.000133899 -3.63015e-05
-0.0160283 2.71051e-20 0.000587666 0.0186985 -0.0186555 9.88404e-06
0.0160283 2.71051e-20 0.000587665 0.000200081 -0.000263336 1.00534e-05
0.016059 -2.71051e-20 0.00121824 0.000371324 -0.000451107 2.87801e-05
-0.0160591 0 0.00121824 0.0297718 -0.0297465 2.36666e-05
-0.0160388 -2.71051e-20 0.00190504 0.0260646 -0.0262471 6.36027e-05
0.0160388 2.71051e-20 0.00190505 0.000331895 -0.000361592 2.00816e-05
-0.0159592 2.71051e-20 0.00276747 0 0 0
0.0159593 -2.71051e-20 0.00276748 0 0 0
-0.0160464 1.12938e-20 0.00232046 0.0182293 -0.018397 7.4191e-05
0.0160464 6.77626e-21 0.00232048 0.000213803 -0.000241626 -3.00598e-06
-0.01625 1.35525e-20 8.16833e-09 0 0 0
0.01625 -1.35525e-20 8.1683e-09 0 0 0
-0.0163416 -2.25875e-21 0.000297322 0.0110885 -0.0110644 -1.18248e-06
0.0163416 -4.51751e-21 0.000297321 7.05231e-05 -0.000119372 -8.29678e-06
0.0163888 -3.38813e-20 5.62447e-09 0 0 0
-0.0163888 -2.71051e-20 5.62442e-09 0 0 0
0.0163802 2.25875e-21 0.000909932 0.000311568 -0.000400702 3.01574e-05
-0.0163802 9.03502e-21 0.00090993 0.0296238 -0.0294281 1.47957e-05
-0.0163169 1.89735e-20 0.00210721 0.0278188 -0.0279838 9.97322e-05
0.0163169 1.6263e-20 0.00210723 0.000317438 -0.000351659 3.58339e-05
0.016394 2.25875e-21 0.0015607 0.000408657 -0.000485489 2.91541e-05
-0.016394 0 0.00156069 0.0348347 -0.0347267 3.37803e-05
-0.01625 1.69407e-20 0.00287738 0 0 0
0.0162501 -3.38813e-20 0.00287742 0 0 0
-0.0162993 2.03288e-20 0.00289583 0 0 0
0.0162996 -3.04932e-20 0.00289591 0 0 0
-0.0163574 4.51751e-21 0.00265188 0.0129753 -0.0129812 -3.19848e-05
0.0163575 2.25875e-21 0.00265193 0.000134698 -0.000165486 -1.34745e-05
-0.0166549 0 2.57175e-09 0 0 0
0.0166549 0 2.57177e-09 0 0 0
0.0166925 2.71051e-20 0.00059198 0.000190385 -0.000264812 1.10007e-05
-0.0166925 0 0.000591981 0.0223868 -0.0222423 6.87047e-06
-0.0165907 0 0.00300593 0 0 0
0.0165909 -2.71051e-20 0.00300602 0 0 0
-0.0168227 -4.51751e-21 0.00122863 0.0374762 -0.0372499 -3.35546e-05
0.0168227 4.51751e-21 0.00122863 0.000384854 -0.000470816 2.97282e-05
-0.016875 0 2.08171e-09 0 0 0
0.016875 1.35525e-20 2.08172e-09 0 0 0
-0.0167197 0 0.00238747 0.0271751 -0.0272667 -1.72148e-05
0.0167198 0 0.00238751 0.000270344 -0.000303415 2.81042e-05
-0.0167791 6.77626e-21 0.00193458 0.0361217 -0.0361088 -1.57012e-05
0.0167791 4.51751e-21 0.00193459 0.000377377 -0.000431461 3.91771e-05
0.0169402 0 0.000818281 0.000288397 -0.000376633 2.77202e-05
-0.0169402 0 0.000818282 0.0320102 -0.0317761 -8.27452e-06
-0.0170157 -4.51751e-21 0.000298727 0.0125699 -0.0125037 1.68497e-05
0.0170157 4.51751e-21 0.000298727 6.40382e-05 -0.000116651 -3.83503e-06
-0.0168154 2.71051e-20 0.00309174 0 0 0
0.0168157 2.03288e-20 0.00309186 0 0 0
-0.017054 0 0.00156175 0.0431307 -0.0429005 -0.000100969
0.017054 0 0.00156176 0.00045279 -0.000526044 2.34462e-05
0.0171302 -1.35525e-20 1.11108e-09 0 0 0
-0.0171302 0 1.11107e-09 0 0 0
-0.016875 6.77626e-21 0.00300832 0.00545436 -0.00553484 -1.79136e-05
0.0168752 -6.77626e-21 0.00300853 6.4444e-05 -5.47434e-05 6.08665e-07
-0.016875 0 0.00311456 0 0 0
0.0168752 -3.38813e-21 0.00311463 0 0 0
-0.0169671 -3.38813e-21 0.00280904 0.0168238 -0.0170293 -5.47068e-05
0.0169673 2.25875e-21 0.00280912 0.000190996 -0.000171562 4.4745e-06
-0.0170607 0 0.00222781 0.0373184 -0.0373983 -8.81161e-05
0.0170608 0 0.00222783 0.000341998 -0.00037887 5.9973e-05
-0.0173299 2.71051e-20 6.20517e-10 0 0 0
0.0173299 -2.71051e-20 6.2052e-10 0 0 0
-0.0170892 -4.06576e-20 0.00319641 0 0 0
0.0170896 0 0.00319653 0 0 0
-0.017405 0 0.000633538 0.0269791 -0.0268059 -1.6035e-05
0.017405 -2.25875e-21 0.000633539 0.000203079 -0.000281552 1.08305e-05
-0.0173772 2.25875e-21 0.00122567 0.041783 -0.0415369 -0.000125746
0.0173772 -2.25875e-21 0.00122567 0.00038717 -0.000471139 2.41946e-05
-0.0173848 4.51751e-21 0.00190647 0.0434005 -0.0433009 -0.00022056
0.0173849 -4.51751e-21 0.00190649 0.000389356 -0.000447968 4.46453e-05
-0.0175 0 5.31043e-10 0 0 0
0.0175 0 5.31044e-10 0 0 0
-0.0175 2.71051e-20 0.000142313 0.00679631 -0.00676008 2.23773e-05
0.0175 -1.35525e-20 0.000142315 1.98726e-05 -5.22935e-05 -6.35426e-06
-0.0172483 0 0.00325639 0 0 0
0.0172486 1.35525e-20 0.00325649 0 0 0
-0.0172988 1.35525e-20 0.00309078 0.00948141 -0.00956413 -0.000118568
0.0172991 0 0.00309094 9.16003e-05 -5.67193e-05 4.49595e-06
-0.0174281 1.35525e-20 0.0026727 0.0270766 -0.0271855 -0.000181194
0.0174282 6.77626e-21 0.00267274 0.000246928 -0.000250048 3.46619e-05
-0.0176747 0 0.000289064 0.0134577 -0.0133817 4.25839e-05
0.0176747 0 0.000289064 4.09426e-05 -0.000105692 -1.15063e-05
-0.0177004 -2.71051e-20 0.000896457 0.0399169 -0.039672 -9.22091e-05
0.0177004 0 0.000896462 0.000328759 -0.000416703 2.22462e-05
-0.0174579 0 0.00333599 0 0 0
0.0174583 1.69407e-21 0.00333616 0 0 0
-0.0177158 0 0.00155351 0.0487041 -0.0484637 -0.000304589
0.0177158 0 0.00155351 0.000442502 -0.000521621 1.569e-05
-0.0174806 0 0.00332675 0.000916565 -0.000924562 -1.1462e-05
0.0174809 0 0.00332697 8.79993e-06 -5.44896e-06 4.31921e-07
-0.0174846 1.69407e-21 0.00334611 0 0 0
0.0174848 0 0.00334621 0 0 0
-0.0175001 1.69407e-21 0.00332514 0.00127068 -0.00128273 -1.20798e-05
0.0175002 0 0.00332537 1.37064e-05 -1.23297e-05 1.0667e-06
-0.0175001 0 0.00334303 0.000485734 -0.000483799 -9.36943e-06
0.0175002 0 0.00334314 4.9716e-06 -4.79934e-06 -2.58e-07
-0.0175001 0 0.00335193 0 0 0
0.0175002 0 0.00335199 0 0 0
-0.0177088 -2.71051e-20 0.00225929 0.0451727 -0.0451528 -0.000393615
0.0177089 0 0.00225933 0.000325717 -0.000371029 7.92428e-05
0.0178538 0 1.78852e-10 0 0 0
-0.0178538 -2.71051e-20 1.78849e-10 0 0 0
0.0178633 1.35525e-20 0.000120403 1.68129e-05 -4.4242e-05 -5.37591e-06
-0.0178633 0 0.000120401 0.0057499 -0.00571924 1.89319e-05
-0.0176368 -4.51751e-21 0.00307374 0.0152324 -0.0156119 -2.42737e-05
0.017637 4.51751e-21 0.00307382 0.000201001 -0.000180994 1.20021e-05
-0.0176473 1.35525e-20 0.00307813 0.015362 -0.0157404 -2.51021e-05
0.0176475 -1.35525e-20 0.00307821 0.000202632 -0.000184016 1.23831e-05
-0.0179989 1.35525e-20 9.3839e-11 0 0 0
0.0179989 1.35525e-20 9.38393e-11 0 0 0
-0.0180169 -2.25875e-21 0.000576041 0.0272149 -0.0271193 -5.47016e-05
0.0180169 4.51751e-21 0.000576041 0.000176257 -0.000249217 -2.10716e-07
-0.0180393 0 0.00120814 0.0459193 -0.0457356 -0.00030119
0.0180394 2.25875e-21 0.00120814 0.000362786 -0.000448956 1.35479e-05
-0.0177861 1.35525e-20 0.00345972 0 0 0
0.0177863 -1.35525e-20 0.00345982 0 0 0
-0.0181252 0 8.38838e-11 0 0 0
0.0181253 0 8.38839e-11 0 0 0
-0.0181254 -2.71051e-20 0.000104621 0.00522415 -0.00527378 3.92114e-05
0.0181254 0 0.00010462 1.75622e-05 -3.64106e-05 -8.39441e-06
-0.0180404 2.25875e-21 0.00190105 0.0496133 -0.0494774 -0.000541657
0.0180405 -2.25875e-21 0.00190107 0.000352574 -0.000425517 4.64831e-05
-0.0178475 1.35525e-20 0.0033839 0.00539745 -0.00537596 -0.000104113
0.0178476 1.35525e-20 0.00338403 5.55819e-05 -5.36561e-05 -2.8844e-06
-0.0180106 -4.51751e-21 0.00263553 0.0358407 -0.0357459 -0.000513098
0.0180107 -4.51751e-21 0.0026356 0.000250166 -0.000273351 5.99323e-05
-0.0179205 -2.71051e-20 0.00351035 0 0 0
0.0179207 0 0.00351043 0 0 0
-0.0180602 -9.03502e-22 0.00312038 0.0204552 -0.0203643 -0.000324252
0.0180604 9.03502e-22 0.00312046 0.000185939 -0.000171505 2.64854e-05
-0.0183343 -2.71051e-20 0.000279709 0.013731 -0.0137665 7.91391e-05
0.0183343 0 0.000279703 4.2831e-05 -9.88112e-05 -1.87839e-05
-0.0183566 0 0.000873067 0.0426384 -0.0425405 -0.000241153
0.0183566 2.71051e-20 0.000873065 0.000301433 -0.000384956 8.29265e-06
-0.01837 0 0.00152863 0.052737 -0.0525791 -0.000572058
0.0183701 -2.71051e-20 0.00152863 0.000380531 -0.000474188 7.17856e-06
-0.018125 -6.77626e-21 0.00358731 0 0 0
0.0181251 6.77626e-21 0.00358737 0 0 0
-0.0183588 -2.71051e-20 0.0022394 0.0521508 -0.0520174 -0.000891659
0.0183589 2.71051e-20 0.00223943 0.000264059 -0.000338793 8.26348e-05
-0.0185565 0 2.08884e-11 0 0 0
0.0185566 1.35525e-20 2.08886e-11 0 0 0
-0.0185599 1.35525e-20 8.401e-05 0.00419495 -0.00423481 3.14864e-05
0.0185599 0 8.40103e-05 1.41025e-05 -2.92378e-05 -6.74074e-06
-0.0182327 -3.38813e-20 0.00362784 0 0 0
0.0182331 -2.03288e-20 0.00362801 0 0 0
-0.0182779 -1.807e-20 0.0034486 0.00979329 -0.00960898 -0.000223178
0.0182781 -4.51751e-21 0.00344874 0.000104513 -7.30236e-05 8.7573e-06
-0.018389 0 0.00288151 0.0345898 -0.0341388 -0.00071807
0.0183891 5.42101e-20 0.00288158 0.000228188 -0.000245243 7.2736e-05
-0.0186587 0 1.21776e-11 0 0 0
0.0186588 0 1.21775e-11 0 0 0
-0.0186718 -1.12938e-21 0.000554126 0.0280494 -0.0281439 -0.000116003
0.0186718 0 0.000554126 0.000161891 -0.000226687 -9.299e-06
-0.0186932 -3.38813e-21 0.00117299 0.0484476 -0.0484501 -0.000529551
0.0186932 2.25875e-21 0.00117299 0.000309938 -0.000407343 4.00333e-06
-0.01875 0 1.12105e-11 0 0 0
0.01875 0 1.12104e-11 0 0 0
-0.01875 -1.35525e-20 7.46445e-05 0.00375378 -0.00390867 9.14763e-05
0.01875 0 7.46508e-05 1.75058e-05 -2.51648e-05 -3.64188e-06
-0.0186938 0 0.00186329 0.0547023 -0.0546261 -0.000962192
0.0186938 0 0.0018633 0.000278561 -0.000376765 4.64581e-05
-0.0184518 -1.35525e-20 0.00371033 0 0 0
0.0184522 1.35525e-20 0.00371046 0 0 0
-0.018692 -1.12938e-21 0.00255869 0.0468704 -0.0464371 -0.00115774
0.018692 1.12938e-21 0.00255873 0.000201388 -0.000258123 8.95922e-05
-0.0185639 1.35525e-20 0.00375412 0 0 0
0.0185642 2.71051e-20 0.00375424 0 0 0
-0.0185985 -2.71051e-20 0.00364672 0.00668694 -0.00640375 -0.000300362
0.0185988 -1.35525e-20 0.00364689 5.29445e-05 -1.05251e-05 1.36211e-05
-0.0189816 0 0.0002651 0.0132846 -0.0135672 0.000162907
0.0189816 0 0.00026511 5.7596e-05 -9.27051e-05 -1.53192e-05
-0.0187018 0 0.00326235 0.0242066 -0.0236675 -0.000735714
0.0187021 -7.52918e-22 0.00326243 0.000165663 -0.000141293 5.56949e-05
-0.0190035 5.42101e-20 0.000835928 0.0434115 -0.0435835 -0.000445257
0.0190035 5.42101e-20 0.00083593 0.000254596 -0.000339007 -1.04162e-05
-0.0190203 0 0.00148196 0.0552556 -0.0553415 -0.00086343
0.0190203 2.71051e-20 0.00148197 0.000306046 -0.000433922 9.99443e-06
-0.01875 0 0.00382122 0 0 0
0.0187502 0 0.00382131 0 0 0
-0.0190138 2.71051e-20 0.00218695 0.0586645 -0.0585659 -0.00150999
0.0190138 -2.71051e-20 0.00218697 0.000164504 -0.000262258 8.52697e-05
-0.0188263 0 0.00385065 0 0 0
0.0188267 6.77626e-21 0.00385081 0 0 0
-0.0190106 -2.71051e-20 0.00288311 0.0434896 -0.0424584 -0.00155591
0.0190107 2.71051e-20 0.00288317 0.000145339 -0.000188138 0.000118208
-0.0188705 -6.77626e-21 0.00377231 0.00459176 -0.00464177 -4.1202e-05
0.0188709 0 0.0037723 7.76885e-05 -5.59727e-05 1.51612e-05
0.0192456 -6.77626e-21 1.60933e-12 0 0 0
-0.0192456 0 1.60924e-12 0 0 0
0.0192459 0 5.21771e-05 1.22356e-05 -1.75889e-05 -2.54548e-06
-0.0192459 0 5.21707e-05 0.0026236 -0.00273186 6.39348e-05
-0.01896 4.51751e-21 0.00363202 0.0135341 -0.0134189 -0.000298939
0.0189603 -4.51751e-21 0.00363217 0.000186257 -0.000126676 4.39644e-05
0.0193107 0 8.87425e-13 0 0 0
-0.0193107 0 8.87409e-13 0 0 0
-0.0189237 1.35525e-20 0.00389016 0 0 0
0.0189243 -1.35525e-20 0.00389043 0 0 0
0.0193153 0 0.000516097 0.000126872 -0.000187991 -2.08951e-05
-0.0193153 2.25875e-21 0.000516096 0.026953 -0.02727 -0.000213827
0.0193661 -1.35525e-20 4.34935e-05 4.48065e-08 -7.68243e-06 -4.66976e-06
-0.0193661 -6.77626e-21 4.34909e-05 0.00230848 -0.00245744 8.81623e-05
0.0193681 -6.77626e-21 8.52462e-13 0 0 0
-0.0193681 0 8.52481e-13 0 0 0
0.019358 -1.58113e-21 0.00110754 0.000224785 -0.000330447 -2.25767e-06
-0.019358 -6.77626e-22 0.00110754 0.0486721 -0.0490104 -0.000786577
-0.0193483 5.64689e-22 0.00179883 0.0587336 -0.0589016 -0.0014216
0.0193484 -1.69407e-21 0.00179884 0.000167675 -0.000295166 4.84647e-05
-0.0193331 -2.25875e-21 0.00252234 0.0542137 -0.0536121 -0.00190919
0.0193332 2.25875e-21 0.00252237 9.36887e-05 -0.000179439 0.000108186
-0.019126 0 0.00398495 0 0 0
0.0191265 0 0.00398518 0 0 0
-0.0191704 1.35525e-20 0.00393584 0.00383153 -0.00360401 -0.000198783
0.0191709 -1.35525e-20 0.0039361 3.45716e-05 -1.86573e-05 1.16191e-05
-0.0193001 2.25875e-21 0.00324569 0.0335455 -0.0323752 -0.0015481
0.0193003 6.77626e-21 0.0032458 0.000118325 -0.000104101 0.000105041
0.0196143 0 0.000236552 1.49725e-05 -6.20001e-05 -3.07973e-05
-0.0196143 -2.71051e-20 0.000236554 0.0122245 -0.0126036 7.50867e-05
-0.0192183 1.35525e-20 0.00403232 0 0 0
0.0192187 0 0.00403252 0 0 0
-0.0196507 0 0.000769621 0.0402933 -0.0407452 -0.000636131
0.0196507 0 0.000769623 0.000191396 -0.00027104 -2.53335e-05
-0.0193646 -2.25875e-22 0.00369144 0.0196794 -0.018656 -0.00101582
0.0193648 5.64689e-22 0.00369158 0.000131499 -6.59794e-05 7.14873e-05
-0.0197261 0 4.33323e-13 0 0 0
0.0197262 1.01644e-20 4.33135e-13 0 0 0
-0.0196852 -2.71051e-20 0.00139142 0.056678 -0.0572417 -0.00118269
0.0196853 0 0.00139142 0.000166779 -0.000302501 1.53574e-05
-0.0196581 0 0.00213359 0.0641552 -0.0642861 -0.00211457
0.0196582 -2.71051e-20 0.00213361 3.29854e-05 -0.000181103 8.28371e-05
-0.0193749 0 0.00398198 0.00681761 -0.00626856 -0.000468424
0.0193751 -1.35525e-20 0.00398219 5.55123e-05 -6.12621e-06 2.68652e-05
-0.0193749 -6.77626e-21 0.00411562 0 0 0
0.0193752 -1.35525e-20 0.00411575 0 0 0
-0.0196509 0 0.00284944 0.051242 -0.0498928 -0.00245498
0.019651 2.71051e-20 0.00284949 2.99765e-05 -8.93469e-05 0.00014453
0.0199511 1.35525e-21 0.000464178 7.20139e-05 -0.000120721 -2.21769e-05
-0.0199511 4.51751e-21 0.00046418 0.0243212 -0.0248208 -0.000540363
-0.0196745 -2.71051e-20 0.0034813 0.0333919 -0.0314436 -0.0019625
0.0196747 2.71051e-20 0.00348141 0.000113179 -6.2456e-05 0.000137253
-0.0195416 1.35525e-20 0.00420424 0 0 0
0.0195422 2.03288e-20 0.00420454 0 0 0
-0.0199999 0 4.82349e-13 0 0 0
-0.0199999 6.77626e-21 2.78793e-05 0.00138915 -0.0013668 -5.40326e-05
0.02 0 4.8203e-13 0 0 0
0.02 0 2.78629e-05 4.05233e-06 -1.04444e-05 -4.46657e-06
-0.0199999 -3.38813e-21 0.00020828 0.0109633 -0.0111541 -0.000241254
0.02 -3.38813e-21 0.000208219 3.73507e-05 -6.10956e-05 -1.10669e-05
-0.0200396 -6.77626e-21 7.2017e-14 0 0 0
0.0200396 0 7.19638e-14 0 0 0
-0.0196493 -2.71051e-20 0.00406163 0.0100599 -0.0092817 -0.000659796
0.0196497 0 0.0040619 8.2839e-05 -1.45975e-05 3.78837e-05
0.0200681 0 2.37653e-05 5.92916e-06 -1.12023e-05 -2.75984e-06
-0.0200681 0 2.37764e-05 0.0011793 -0.00113482 -7.70505e-05
-0.0199936 -2.82344e-22 0.00175494 0.0607817 -0.0613161 -0.00183873
0.0199936 4.70574e-23 0.00175489 6.14688e-05 -0.000190618 5.19485e-05
0.0200714 0 3.9275e-14 0 0 0
-0.0200714 0 3.92932e-14 0 0 0
0.0200889 2.25875e-21 0.000959457 0.000124869 -0.000208447 -8.93244e-07
-0.0200889 -9.03502e-21 0.000959452 0.0430285 -0.0438241 -0.000989723
-0.0200181 0 0.00244871 0.0589199 -0.0583783 -0.00256321
0.0200182 -1.6134e-22 0.00244877 -2.79155e-05 -6.15669e-05 0.000112329
0.0201758 6.77626e-21 9.02736e-15 0 0 0
-0.0201758 -6.77626e-21 9.03236e-15 0 0 0
-0.0197167 0 0.00429743 0 0 0
0.0197172 1.35525e-20 0.00429767 0 0 0
-0.0199681 -1.12938e-21 0.00317465 0.0462423 -0.0443435 -0.00268325
0.0199682 5.64689e-22 0.00317472 5.40077e-06 -1.1576e-05 0.00015236
-0.0198179 1.35525e-20 0.00435132 0 0 0
0.0198183 0 0.00435153 0 0 0
-0.0198553 1.35525e-20 0.0042445 0.00677951 -0.00612132 -0.000631702
0.0198557 2.71051e-20 0.00424476 3.21575e-05 3.14668e-05 2.89157e-05
-0.0199718 1.8823e-22 0.00386197 0.0245353 -0.0227453 -0.00174021
0.0199721 6.2693e-38 0.0038621 8.2979e-05 5.45671e-06 0.000105144
0.0204248 -2.25875e-21 0.000311566 -2.8573e-05 1.78024e-05 -1.33725e-05
-0.0204248 -2.25875e-21 0.000311579 0.0191407 -0.0199759 -0.000726186
-0.02042 0 0.00146739 0.0589716 -0.0602966 -0.00178095
0.0204201 2.71051e-20 0.00146739 5.11652e-05 -0.000169481 3.43979e-05
-0.0202842 2.71051e-20 0.00282334 0.0580552 -0.0567608 -0.00319421
0.0202843 0 0.00282338 -0.000110416 4.52089e-05 0.000141128
-0.0199999 0 0.00444833 0 0 0
0.0200001 0 0.00444847 0 0 0
-0.0204142 -2.71051e-20 0.00196456 0.0655444 -0.0663606 -0.00248804
0.0204142 0 0.00196457 -8.04875e-05 -2.21276e-05 6.82032e-05
0.0205235 -1.35525e-20 4.55491e-15 0 0 0
-0.0205235 0 4.54657e-15 0 0 0
-0.0200605 0 0.00448064 0 0 0
0.0200609 0 0.00448086 0 0 0
-0.0202767 2.71051e-20 0.00350287 0.0437858 -0.040809 -0.00320955
0.0202769 0 0.00350296 -2.4107e-05 6.56224e-05 0.000187382
-0.0201022 -3.38813e-21 0.00441312 0.00406906 -0.00383652 -0.000234778
0.0201026 0 0.00441316 5.11621e-05 -1.31997e-05 2.38981e-05
-0.0201274 1.35525e-20 0.00451629 0 0 0
0.020128 -6.77626e-21 0.00451661 0 0 0
-0.0202113 3.01167e-21 0.00425304 0.0143777 -0.0133177 -0.00100884
0.0202117 3.01167e-21 0.00425325 0.000135822 -1.52378e-05 7.8611e-05
-0.0206612 4.03349e-22 0.000857173 0.0369275 -0.0382781 -0.0011525
0.0206612 -1.6134e-21 0.000857148 2.25038e-05 -6.83198e-05 -7.97954e-07
0.0206906 0 1.34853e-15 0 0 0
-0.0206907 -1.35525e-20 1.33611e-15 0 0 0
-0.020629 -1.35525e-20 0.00169533 0.0625629 -0.0638252 -0.00216943
0.0206291 1.35525e-20 0.00169533 -5.23602e-05 -5.92332e-05 5.39908e-05
-0.0206304 -5.64689e-22 0.00244032 0.0633702 -0.0631076 -0.00321912
0.0206304 0 0.00244033 -0.000168296 8.03703e-05 0.000106304
-0.0205957 5.64689e-22 0.00315757 0.0545842 -0.0524164 -0.00370746
0.0205958 -5.64689e-22 0.00315762 -0.000150229 0.000135733 0.000157831
-0.0203417 1.35525e-20 0.00463048 0 0 0
0.0203423 1.35525e-20 0.00463076 0 0 0
-0.0208463 -2.71051e-20 0.00142107 0.0596354 -0.0614436 -0.00192013
0.0208463 0 0.00142105 -6.23293e-05 -3.93351e-05 3.70631e-05
-0.0203947 -2.71051e-20 0.00457337 0.00486854 -0.00423618 -0.00049182
0.0203952 0 0.00457368 2.22108e-05 1.23091e-05 2.19035e-05
-0.0205529 -2.25875e-21 0.00387353 0.0353499 -0.0324582 -0.00299928
0.0205531 -2.25875e-21 0.00387367 -2.15402e-05 0.000119296 0.000147989
-0.0208258 5.42101e-20 0.00194373 0.0665369 -0.0678458 -0.00257036
0.0208259 -2.71051e-20 0.00194374 -0.000150598 3.69913e-05 7.32623e-05
0.0209524 0 4.20741e-16 0 0 0
-0.0209524 -8.47033e-21 4.14861e-16 0 0 0
-0.0209675 -2.5411e-21 0.000105966 0.00519323 -0.00568138 -0.000191793
0.0209676 0 0.000106769 -1.17866e-05 1.30536e-05 -2.99904e-06
-0.0209754 -1.18585e-20 2.17868e-16 0 0 0
0.0209755 0 2.20894e-16 0 0 0
-0.0204458 0 0.00468592 0 0 0
0.0204463 0 0.00468616 0 0 0
0.020982 0 0.000349578 -3.80764e-05 4.05051e-05 -9.00635e-06
-0.020982 1.69407e-21 0.000349595 0.0174684 -0.0189788 -0.000635904
-0.0206056 0 0.00432294 0.0219316 -0.0195091 -0.00211882
0.020606 3.38813e-22 0.00432311 4.87755e-05 8.2631e-05 0.000102507
-0.0209339 0 0.00277546 0.0641757 -0.0633038 -0.00403646
0.020934 2.71051e-20 0.00277549 -0.000274156 0.000194487 0.000115405
-0.0206248 6.77626e-21 0.0047813 0 0 0
0.0206252 6.77626e-21 0.00478146 0 0 0
-0.0208973 0 0.00349614 0.0529157 -0.0494635 -0.0044041
0.0208974 0 0.00349621 -0.000197003 0.000237862 0.00018564
-0.0212499 1.35525e-20 -3.23245e-16 0 0 0
0.02125 0 -3.25657e-16 0 0 0
-0.0207397 -6.77626e-21 0.00484247 0 0 0
0.0207403 0 0.00484278 0 0 0
-0.0207849 4.51751e-21 0.00466272 0.0110809 -0.00941746 -0.00129312
0.0207853 0 0.00466297 3.47603e-05 6.39196e-05 5.05532e-05
-0.020919 -2.71051e-20 0.00411646 0.037477 -0.0334317 -0.00369489
0.0209192 0 0.00411659 -3.99741e-05 0.000185154 0.000167557
0.0212542 8.47033e-22 0.00168692 -0.000168265 7.49339e-05 4.97025e-05
-0.0212542 1.12938e-21 0.00168692 0.0631281 -0.0650753 -0.00230966
-0.0213183 -5.27043e-21 0.00090011 0.037713 -0.0396165 -0.00118614
0.0213184 3.76459e-21 0.000900084 -5.51582e-05 3.81811e-05 6.14739e-07
-0.0213459 2.71051e-20 0.000121878 0.00594667 -0.00617673 -0.000128501
0.0213461 0 0.000122078 5.94667e-06 2.55976e-06 -6.37555e-06
-0.0213547 -1.35525e-20 6.62743e-17 0 0 0
0.0213549 1.35525e-20 6.75068e-17 0 0 0
-0.0212894 -1.12938e-21 0.00229421 0.0657981 -0.0663489 -0.00343535
0.0212894 -2.25875e-21 0.00229423 -0.000295179 0.000214477 8.54105e-05
-0.0214253 1.35525e-20 -2.81409e-16 0 0 0
0.0214256 4.06576e-20 -2.82555e-16 0 0 0
-0.0212264 -1.35525e-21 0.00310843 0.0618489 -0.0600495 -0.00437988
0.0212264 9.03502e-22 0.00310848 -0.000328763 0.000309306 0.000134657
-0.0209343 1.35525e-20 0.00494614 0 0 0
0.0209347 0 0.00494637 0 0 0
-0.0212106 1.12938e-21 0.00381734 0.0500234 -0.0459433 -0.00456023
0.0212108 -1.12938e-21 0.00381742 -0.000217887 0.000312869 0.000176258
-0.0215706 0 0.000127244 0.00695445 -0.0075265 -0.00015406
0.0215712 1.35525e-20 0.00012747 -6.24103e-06 1.34686e-05 -2.88741e-06
-0.0216062 1.35525e-20 1.82017e-16 0 0 0
0.0216069 1.35525e-20 1.81754e-16 0 0 0
-0.0210472 -1.35525e-20 0.00500632 0 0 0
0.0210476 -1.35525e-20 0.00500653 0 0 0
-0.0210903 -2.71051e-20 0.00488671 0.00914995 -0.00771066 -0.00124473
0.0210906 -2.71051e-20 0.00488695 6.33964e-07 8.98836e-05 3.72815e-05
-0.0212076 -1.8823e-21 0.00450561 0.0286202 -0.0250078 -0.00311876
0.0212079 -1.8823e-21 0.00450575 -3.86882e-05 0.000194705 0.000121698
-0.0215471 -5.42101e-20 0.0027678 0.0683478 -0.0682374 -0.00421546
0.0215471 0 0.00276782 -0.000442261 0.000373948 9.47937e-05
-0.0215274 2.71051e-20 0.00347138 0.0610179 -0.0576575 -0.00510237
0.0215275 -2.71051e-20 0.00347142 -0.000408028 0.000452086 0.000155655
-0.0212498 3.38813e-21 0.00511424 0 0 0
0.0212501 3.38813e-21 0.00511439 0 0 0
-0.0212808 0 0.00513076 0 0 0
0.0212812 0 0.00513096 0 0 0
-0.0213035 6.77626e-21 0.00509491 0.00255699 -0.00220344 -0.000277447
0.0213039 -3.38813e-21 0.00509497 1.44689e-05 1.26744e-05 1.34053e-05
-0.0215161 2.71051e-20 0.00414681 0.0502208 -0.0447648 -0.00515268
0.0215163 2.71051e-20 0.00414691 -0.000248922 0.000392774 0.000196398
-0.0213152 -6.77626e-21 0.00514909 0 0 0
0.0213157 0 0.00514937 0 0 0
-0.0219058 -5.42101e-20 0.001718 0.0634514 -0.0663933 -0.00250105
0.0219059 -5.42101e-20 0.001718 -0.000318414 0.000263858 3.41625e-05
-0.0214404 9.03502e-21 0.00489762 0.0178046 -0.0151688 -0.00207943
0.0214407 -3.01167e-21 0.00489781 4.96659e-05 0.000113393 8.30549e-05
-0.0218827 -8.47033e-22 0.00243261 0.0676449 -0.0683142 -0.0038792
0.0218827 -4.94103e-22 0.00243267 -0.000493903 0.000432704 7.63656e-05
-0.0220244 0 0.000514819 0.0293525 -0.0323012 -0.000511649
0.0220245 0 0.000514821 -5.30591e-05 0.00010056 -1.01227e-05
-0.0218548 0 0.00311109 0.066576 -0.0651294 -0.00462208
0.0218549 5.64689e-22 0.00311111 -0.000537916 0.00051927 0.000112099
-0.0218321 -1.12938e-21 0.00380917 0.0596163 -0.0551977 -0.0052482
0.0218322 -3.38813e-21 0.00380923 -0.000448029 0.000535923 0.000167845
-0.0215576 1.35525e-20 0.00527824 0 0 0
0.0215581 1.35525e-20 0.00527848 0 0 0
-0.021618 0 0.00521392 0.00695244 -0.00553523 -0.000991375
0.0216184 0 0.00521418 -5.10559e-06 5.05687e-05 2.09397e-05
-0.0217926 -2.25875e-21 0.00451282 0.0420686 -0.0369266 -0.00446285
0.0217928 2.25875e-21 0.00451296 -0.000211215 0.000383591 0.000159063
-0.0216748 2.71051e-20 0.00534064 0 0 0
0.0216752 2.71051e-20 0.00534085 0 0 0
-0.0221927 2.71051e-20 0.00274698 0.0696906 -0.070227 -0.00420019
0.0221928 0 0.00274698 -0.00063461 0.00056669 7.55012e-05
-0.0218358 -2.25875e-22 0.0049689 0.0273335 -0.0229256 -0.00336114