# UMean  POINT_DATA 14923
# x  y  z  UMean_x  UMean_y  UMean_z
1.35525e-20 -0.014142 8.4025e-08 0 0 0
-1.35525e-20 0.014142 8.4025e-08 0 0 0
0 -0.014142 0.000246012 0 0 0
-6.77626e-21 0.014142 0.000246009 0 0 0
-1.69407e-20 -0.014142 0.000413826 0 0 0
6.77626e-21 0.014142 0.00041383 0 0 0
-1.35525e-20 -0.014142 0.000659755 0 0 0
-1.35525e-20 0.014142 0.000659755 0 0 0
0 0.014142 0.000918785 0 0 0
3.38813e-21 -0.014142 0.000918783 0 0 0
1.35525e-20 0.014142 0.00109555 0 0 0
3.38813e-21 -0.014142 0.00109556 0 0 0
1.35525e-20 0.014142 0.00135458 0 0 0
0 -0.014142 0.00135458 0 0 0
0 0.014142 0.00162762 0 0 0
-6.77626e-21 -0.014142 0.00162761 0 0 0
0 -0.014253 0.00012398 0.00167198 -0.0017365 -9.45219e-06
0 0.014253 0.000123977 9.77756e-06 -1.17217e-05 3.34055e-06
0 -0.0142541 8.84505e-08 0 0 0
-1.35525e-20 0.0142541 8.84502e-08 0 0 0
-3.38813e-21 0.014142 0.00181395 0 0 0
-6.77626e-21 -0.014142 0.00181396 0 0 0
0 -0.014253 0.000533539 0.00167201 -0.00173653 -9.45234e-06
0 0.014253 0.000533544 9.77735e-06 -1.17215e-05 3.34048e-06
0 0.0142487 0.00077903 8.69065e-05 -8.18172e-05 2.22162e-05
0 -0.0142487 0.000779034 0.00321075 -0.0032305 1.91762e-05
-1.35525e-20 0.014142 0.002087 0 0 0
1.35525e-20 -0.014142 0.002087 0 0 0
-1.35525e-20 0.0142487 0.00120328 8.6906e-05 -8.18168e-05 2.22161e-05
1.35525e-20 -0.0142487 0.00120328 0.00321057 -0.00323031 1.91751e-05
0 0.014243 0.00144974 8.33053e-05 -7.79044e-05 1.2421e-05
1.35525e-20 -0.014243 0.00144974 0.00293368 -0.00296294 -6.02426e-05
0 0.014243 0.00188498 8.33075e-05 -7.79064e-05 1.24213e-05
1.35525e-20 -0.014243 0.00188498 0.0029338 -0.00296306 -6.0245e-05
-2.71051e-20 -0.014375 9.00163e-08 0 0 0
1.35525e-20 0.014375 9.00164e-08 0 0 0
1.35525e-20 0.014375 0.0006466 7.09314e-05 -0.000101784 1.38769e-05
-2.71051e-20 -0.014375 0.0006466 0.00509966 -0.00502476 1.19107e-05
-6.77626e-21 0.0142627 0.00213224 0 0 0
-6.77626e-21 -0.0142627 0.00213225 0 0 0
0 0.0142992 0.00204049 4.80303e-05 -4.02218e-05 -6.45884e-07
1.35525e-20 -0.0142992 0.00204049 0.00317163 -0.00315337 -2.14133e-05
0 0.014391 0.00158911 0.000161601 -0.000158656 2.73523e-05
0 -0.014391 0.00158911 0.00760803 -0.00792191 7.6393e-06
-6.77626e-21 -0.014375 0.00187841 0.00631193 -0.00629865 -0.000115198
0 0.014375 0.0018784 0.000105546 -0.000124197 -7.31368e-06
0 0.0144892 0.000865926 0.000158239 -0.000178005 5.86081e-05
5.42101e-21 -0.0144892 0.000865928 0.00945479 -0.00967647 -5.20464e-05
0 0.0144694 0.00125569 0.000165234 -0.000211556 3.86728e-05
-4.51751e-21 -0.0144694 0.0012557 0.0102307 -0.0103965 -2.58679e-05
1.35525e-20 0.014375 0.00217431 0 0 0
2.71051e-20 -0.014375 0.00217431 0 0 0
-2.25875e-21 -0.0145461 0.000325602 0.00519812 -0.00532082 -0.000171846
-2.25875e-21 0.0145461 0.000325595 3.23671e-05 -5.41835e-05 1.74976e-05
2.71051e-20 -0.0145532 9.53759e-08 0 0 0
1.35525e-20 0.0145533 9.53758e-08 0 0 0
2.71051e-20 0.0145143 0.00222654 0 0 0
0 -0.0145144 0.00222654 0 0 0
-1.93608e-21 0.0146051 0.00164978 0.000199559 -0.000226256 -3.72163e-06
1.35525e-20 -0.0146051 0.00164978 0.0120314 -0.0121826 -0.000136988
-2.82344e-22 -0.014583 0.00195698 0.00799527 -0.00856155 0.000109113
-1.41172e-22 0.0145828 0.00195868 0.000143671 -0.000134599 2.20334e-06
0 -0.0147323 1.05322e-07 0 0 0
0 0.0147324 1.05321e-07 0 0 0
-2.25875e-21 0.014715 0.000923757 0.000232686 -0.000289902 6.90913e-05
-4.51751e-21 -0.014715 0.000923762 0.0140625 -0.0147566 -4.18781e-05
-2.71051e-20 0.0145865 0.0022536 0 0 0
0 -0.0145866 0.00225361 0 0 0
-2.25875e-21 0.0146936 0.00145601 0.00023138 -0.000290565 6.2269e-06
2.25875e-21 -0.0146936 0.00145601 0.0145331 -0.0154279 1.27008e-05
1.35525e-20 -0.0148202 0.000134139 0.00324268 -0.00336344 -6.27478e-05
1.35525e-20 0.0148203 0.000134125 1.84075e-05 -4.1236e-05 -8.9586e-06
-1.35525e-20 -0.0148273 9.52379e-08 0 0 0
0 0.0148274 9.52384e-08 0 0 0
-1.35525e-20 -0.0148725 9.04366e-08 0 0 0
1.35525e-20 0.0148726 9.04378e-08 0 0 0
6.45358e-21 -0.01487 0.000655521 0.0132035 -0.0133649 3.16978e-05
3.22679e-21 0.01487 0.000655519 0.00018503 -0.000248773 2.78688e-05
1.00389e-21 0.014845 0.00120712 0.000279731 -0.000343233 3.42816e-05
-7.27821e-21 -0.014845 0.00120713 0.0171303 -0.0174719 -4.44941e-05
0 0.0147312 0.00230781 0 0 0
0 -0.0147313 0.00230783 0 0 0
3.01167e-21 0.0148274 0.00162659 0.000270942 -0.000292141 -7.82276e-06
-6.02335e-21 -0.0148274 0.0016266 0.0161409 -0.0165903 -0.000171343
1.35525e-20 -0.015 7.90261e-08 0 0 0
-1.35525e-20 0.015 7.90279e-08 0 0 0
-1.35525e-20 -0.015 0.000133974 0.00416634 -0.00421332 4.43663e-05
-2.71051e-20 0.015 0.000133967 2.14826e-05 -4.555e-05 1.17463e-06
-3.76459e-22 0.0149713 0.00204049 0.000199295 -0.000127186 -5.47421e-06
1.50584e-21 -0.0149714 0.0020405 0.0116634 -0.012358 6.9131e-06
-3.38813e-21 -0.015 0.00225359 0.00526757 -0.00560239 8.04405e-07
-1.69407e-21 0.015 0.0022537 9.17173e-05 -5.27932e-05 -2.54608e-06
-3.38813e-21 -0.015 0.00240853 0 0 0
3.38813e-21 0.015 0.00240854 0 0 0
2.37169e-20 0.0150362 0.00242211 0 0 0
0 -0.0150362 0.00242211 0 0 0
1.35525e-20 -0.0152271 0.000388227 0.0109265 -0.0109603 3.5378e-05
1.35525e-20 0.0152271 0.000388232 9.13999e-05 -0.000145912 3.50809e-06
-4.51751e-21 0.0152249 0.000912209 0.000300005 -0.00034188 2.28816e-05
9.03502e-21 -0.0152249 0.000912211 0.0204683 -0.0208353 2.76687e-05
4.51751e-21 0.0151957 0.00150814 0.000347518 -0.000348276 1.2068e-05
0 -0.0151957 0.00150814 0.0222129 -0.0227605 -7.83046e-05
-3.38813e-21 0.015119 0.00245307 0 0 0
3.38813e-21 -0.015119 0.0024531 0 0 0
0 0.0153316 0.000145214 2.32965e-05 -4.93958e-05 1.27381e-06
1.35525e-20 -0.0153316 0.000145203 0.00451751 -0.00456845 4.81059e-05
1.35525e-20 0.0153419 1.97572e-08 0 0 0
0 -0.015342 1.97541e-08 0 0 0
0 -0.0154304 0.000610593 0.0168087 -0.0167915 3.54501e-05
2.71051e-20 0.0154304 0.000610592 0.000188379 -0.000260645 1.28705e-05
2.71051e-20 -0.0154185 0.00121382 0.0241989 -0.0244372 -2.71609e-05
2.71051e-20 0.0154185 0.00121382 0.000338937 -0.000402309 2.73754e-05
1.35525e-20 0.0154797 7.97399e-09 0 0 0
0 -0.0154798 7.9711e-09 0 0 0
-1.35525e-20 0.0152769 0.00251208 0 0 0
0 -0.0152769 0.0025121 0 0 0
-5.42101e-20 0.0153758 0.00187005 0.000273337 -0.000278463 -1.92167e-06
-2.71051e-20 -0.0153758 0.00187006 0.0193085 -0.0195886 -6.06425e-05
-6.77626e-21 0.0153108 0.00239814 7.78923e-05 -8.1429e-05 -7.47528e-06
0 -0.0153108 0.00239814 0.00457226 -0.00490697 5.64232e-05
-4.51751e-21 -0.0153783 0.00228563 0.00938469 -0.0100024 9.47328e-05
-1.12938e-21 0.0153783 0.00228563 0.000155926 -0.000160347 -1.44481e-05
-1.35525e-20 0.015625 7.21206e-09 0 0 0
0 -0.015625 7.20961e-09 0 0 0
0 -0.015625 0.000148496 0.00578416 -0.0057213 3.9319e-06
-1.35525e-20 0.015625 0.0001485 1.64977e-05 -4.65854e-05 -8.87223e-07
-1.35525e-20 -0.0154657 0.00258282 0 0 0
0 0.0154657 0.00258282 0 0 0
4.51751e-21 0.0157806 0.00040103 9.02151e-05 -0.000155098 2.98263e-06
4.51751e-21 -0.0157806 0.000401034 0.0140198 -0.0139405 1.8234e-05
2.25875e-21 -0.0157685 0.000915143 0.0261224 -0.0260681 -2.68112e-05
0 0.0157685 0.000915143 0.000304184 -0.000383004 1.6351e-05
1.12938e-20 -0.0157412 0.00155218 0.0295766 -0.0296743 4.20374e-05
-2.25875e-21 0.0157412 0.00155219 0.000380428 -0.0004321 2.82641e-05
0 -0.0156535 0.0023135 0.0134897 -0.0137389 4.19065e-05
-8.47033e-22 0.0156535 0.00231351 0.000162369 -0.000169002 -1.44809e-05
1.35525e-20 0.0156249 0.00255355 3.66436e-05 -6.33706e-05 -2.01427e-05
1.35525e-20 -0.0156249 0.00255354 0.00430598 -0.00430095 -1.66556e-05
6.77626e-21 0.0156249 0.0026425 0 0 0
-6.77626e-21 -0.0156249 0.00264251 0 0 0
-1.35525e-20 -0.0157486 0.00207232 0.0209833 -0.0212515 7.97936e-05
0 0.0157486 0.00207233 0.000260885 -0.000265234 6.47235e-06
1.35525e-20 0.01594 0.000153358 1.70374e-05 -4.81096e-05 -9.16251e-07
1.35525e-20 -0.01594 0.000153357 0.00597355 -0.00590863 4.06064e-06
0 0.0159518 6.42218e-09 0 0 0
-2.71051e-20 -0.0159518 6.42129e-09 0 0 0
2.71051e-20 -0.0157578 0.00269219 0 0 0
2.71051e-20 0.0157578 0.00269219 0 0 0
-1.35525e-20 -0.0157996 0.0025293 0.00866696 -0.00866575 -3.31632e-05
1.35525e-20 0.0157996 0.00252931 7.81706e-05 -0.00011034 -3.3012e-05
-1.35525e-20 -0.0161003 5.64387e-09 0 0 0
1.35525e-20 0.0161003 5.64434e-09 0 0 0
0 -0.0160445 0.00191468 0.0279835 -0.0281661 4.12187e-05
0 0.0160445 0.0019147 0.000345153 -0.000369113 2.03799e-05
0 -0.0159573 0.00276704 0 0 0
0 0.0159573 0.00276704 0 0 0
1.16165e-20 0.0161556 0.00116841 0.000384134 -0.000457664 1.97143e-05
-1.54886e-20 -0.0161556 0.00116841 0.0328147 -0.0327414 -2.89896e-05
-9.03502e-21 -0.0161993 0.000607818 0.021978 -0.0218687 -2.09986e-05
-4.51751e-21 0.0161993 0.000607817 0.000192016 -0.000265841 6.80119e-06
-2.25875e-21 -0.0160484 0.0023249 0.0192377 -0.0193785 3.84803e-05
-4.51751e-21 0.0160484 0.00232494 0.000214007 -0.000246093 -4.92674e-06
1.35525e-20 -0.01625 4.91522e-09 0 0 0
2.71051e-20 0.01625 4.91559e-09 0 0 0
1.35525e-20 -0.01625 0.000141091 0.0062677 -0.00621373 -5.5234e-06
0 0.01625 0.000141095 1.18273e-05 -4.25683e-05 -8.52398e-07
-9.03502e-21 -0.0162996 0.00156705 0.0360321 -0.0359548 2.08503e-05
4.51751e-21 0.0162996 0.00156705 0.000442197 -0.000499604 2.93394e-05
-2.71051e-20 0.0164196 0.000304857 2.83627e-05 -9.25688e-05 -2.053e-06
0 -0.0164196 0.000304857 0.0130987 -0.0129787 -8.40532e-06
0 0.0164158 0.000921443 0.000363063 -0.000460034 1.34249e-05
0 -0.0164158 0.000921442 0.0337624 -0.0334906 -6.76315e-05
-1.89735e-20 -0.0163183 0.00211157 0.0298507 -0.0299945 6.65932e-05
2.71051e-21 0.0163183 0.00211158 0.000343093 -0.000377618 3.16447e-05
-1.35525e-20 0.0162498 0.00287804 0 0 0
2.37169e-20 -0.0162499 0.00287808 0 0 0
6.77626e-21 -0.016295 0.00289505 0 0 0
-1.01644e-20 0.0162953 0.00289514 0 0 0
1.12938e-20 -0.0163566 0.00265265 0.014023 -0.0139812 -6.02913e-05
-4.51751e-21 0.0163567 0.00265268 0.000145582 -0.000178423 -1.35046e-05
-1.35525e-20 0.0165943 2.17699e-09 0 0 0
1.35525e-20 -0.0165943 2.17678e-09 0 0 0
1.35525e-20 0.0165961 0.000135303 1.1342e-05 -4.08216e-05 -8.17422e-07
0 -0.0165961 0.000135298 0.0060105 -0.00595875 -5.29675e-06
1.35525e-20 -0.0167375 1.46118e-09 0 0 0
-1.35525e-20 0.0167375 1.4613e-09 0 0 0
9.03502e-21 0.0167397 0.000605527 0.000205391 -0.000287009 6.07964e-06
2.25875e-21 -0.0167397 0.000605529 0.024897 -0.0246921 -2.81682e-05
0 -0.0167333 0.00124398 0.0395267 -0.0392735 -5.99842e-05
-6.77626e-21 0.0167333 0.00124398 0.000454709 -0.000537006 2.20542e-05
2.25875e-21 -0.0167335 0.00188821 0.0389588 -0.0388894 -4.74893e-05
6.77626e-21 0.0167335 0.00188822 0.000455744 -0.000509673 3.53647e-05
2.71051e-20 -0.0165883 0.00300631 0 0 0
2.71051e-20 0.0165884 0.00300634 0 0 0
0 -0.016875 1.28939e-09 0 0 0
0 0.016875 1.28948e-09 0 0 0
0 -0.016875 0.000125695 0.00610376 -0.00605006 1.61141e-05
-1.35525e-20 0.016875 0.000125698 1.03765e-05 -3.92322e-05 4.22258e-07
-4.51751e-21 -0.0167209 0.00239031 0.0293315 -0.0293735 -6.85095e-05
-9.03502e-21 0.016721 0.00239038 0.00032269 -0.000360661 2.15341e-05
-2.71051e-20 0.017064 0.000300536 2.56088e-05 -9.28361e-05 3.12839e-09
0 -0.017064 0.000300536 0.0142218 -0.0140953 2.66826e-05
-6.77626e-21 -0.0168116 0.00309149 0 0 0
6.77626e-21 0.0168118 0.00309158 0 0 0
0 0.0170693 0.000918164 0.00041251 -0.000511602 1.33867e-05
2.71051e-20 -0.0170693 0.000918164 0.0390948 -0.038787 -6.38369e-05
0 0.0170657 0.00156933 0.000569458 -0.00063564 2.66488e-05
-5.42101e-20 -0.0170657 0.00156932 0.0464695 -0.0461947 -0.000138236
0 0.0168748 0.00300443 7.95004e-05 -7.27431e-05 -7.44228e-07
3.38813e-21 -0.016875 0.0030038 0.00625601 -0.00631023 -2.76754e-05
6.77626e-21 0.0168748 0.00311544 0 0 0
3.38813e-21 -0.0168751 0.00311552 0 0 0
2.25875e-21 -0.0169659 0.00280947 0.0183283 -0.0184581 -8.05744e-05
-4.51751e-21 0.016966 0.00280951 0.000228309 -0.000217708 2.62665e-07
2.71051e-20 -0.0170634 0.00223057 0.0404442 -0.0404633 -0.000178321
0 0.0170635 0.00223059 0.000441066 -0.000486153 4.69766e-05
-1.35525e-20 0.0172527 5.17858e-10 0 0 0
0 -0.0172527 5.17805e-10 0 0 0
0 0.0172566 0.000116566 9.62267e-06 -3.6382e-05 3.91581e-07
1.35525e-20 -0.0172566 0.000116563 0.00566035 -0.00561055 1.49435e-05
0 -0.0173799 3.52927e-10 0 0 0
1.35525e-20 0.0173799 3.52962e-10 0 0 0
0 -0.0170862 0.00319594 0 0 0
2.71051e-20 0.0170864 0.00319602 0 0 0
-2.25875e-21 0.0173907 0.00059721 0.000225194 -0.000307163 4.03641e-06
0 -0.0173907 0.000597212 0.0277495 -0.0275472 -3.82444e-05
0 0.0173953 0.00123436 0.000512089 -0.000598216 1.50272e-05
0 -0.0173953 0.00123436 0.045343 -0.0450456 -0.000166237
-4.51751e-21 -0.0173902 0.00191068 0.0470361 -0.0468768 -0.000252535
6.77626e-21 0.0173903 0.00191069 0.000537367 -0.000600697 3.64439e-05
-1.35525e-20 -0.0175 3.17172e-10 0 0 0
0 0.0175 3.17202e-10 0 0 0
0 -0.0175 0.000105685 0.00552877 -0.00549723 1.73593e-05
0 0.0175 0.000105687 1.17265e-05 -3.48852e-05 -1.63744e-06
1.35525e-20 -0.0172465 0.00325641 0 0 0
2.03288e-20 0.0172466 0.00325643 0 0 0
0 -0.0172976 0.00309008 0.00918768 -0.00957809 7.94704e-05
-1.35525e-20 0.0172976 0.00309027 0.000170201 -0.000166307 1.66752e-06
3.76158e-37 -0.017428 0.00267359 0.0295163 -0.0296098 -0.000195621
2.25875e-21 0.017428 0.00267359 0.000352492 -0.00037085 2.35252e-05
0 -0.0177101 0.000293755 0.0150188 -0.0149251 4.08289e-05
0 0.0177101 0.000293755 2.87457e-05 -9.4517e-05 -2.92617e-06
0 0.0177219 0.000903839 0.000444953 -0.000541681 6.25404e-06
2.71051e-20 -0.0177219 0.000903839 0.043419 -0.0431293 -0.000158093
1.69407e-21 -0.0174509 0.00333352 0 0 0
1.69407e-21 0.0174516 0.00333379 0 0 0
0 -0.0174774 0.00332287 0.00102144 -0.00106484 8.8351e-06
1.69407e-21 0.0174776 0.00332332 1.86212e-05 -1.81952e-05 1.82439e-07
0 0.0177246 0.00155835 0.000627012 -0.000708812 1.39438e-05
2.71051e-20 -0.0177246 0.00155834 0.0527309 -0.0524095 -0.000305898
0 -0.0174819 0.00334524 0 0 0
0 0.0174821 0.0033453 0 0 0
0 0.0174998 0.00332151 2.19283e-05 -2.14746e-05 3.72945e-07
0 -0.0174999 0.00332104 0.00160615 -0.00161655 -1.66789e-05
0 0.0174997 0.00334181 7.90753e-06 -8.28777e-06 -7.19903e-07
1.69407e-21 -0.0174999 0.00334168 0.000618842 -0.000613597 -1.32122e-05
0 0.0174997 0.00335193 0 0 0
0 -0.0174999 0.00335198 0 0 0
0 -0.0177108 0.00226099 0.0492705 -0.0491964 -0.000395417
2.71051e-20 0.0177108 0.00226103 0.000523052 -0.000583423 5.78304e-05
4.51751e-21 -0.0176353 0.00307333 0.0174328 -0.0175678 -0.000197058
-1.807e-20 0.0176354 0.00307341 0.000231532 -0.000206372 2.94647e-06
0 -0.0176459 0.00307764 0.017643 -0.017759 -0.000209463
-2.71051e-20 0.0176459 0.00307771 0.000231979 -0.000207094 3.09301e-06
0 0.0179213 8.77536e-11 0 0 0
1.35525e-20 -0.0179213 8.77438e-11 0 0 0
0 0.0179252 9.30173e-05 1.03207e-05 -3.07032e-05 -1.44115e-06
2.71051e-20 -0.0179252 9.30153e-05 0.00486599 -0.00483824 1.52783e-05
0 -0.0180268 5.44536e-11 0 0 0
0 0.0180268 5.44591e-11 0 0 0
2.25875e-21 0.0180409 0.00058155 0.000240323 -0.000317944 -3.18808e-06
1.12938e-20 -0.0180409 0.000581551 0.0297173 -0.0295449 -0.000104795
-2.25875e-21 -0.0180512 0.00121327 0.0497086 -0.049465 -0.000320135
-3.38813e-21 0.0180512 0.00121327 0.000545977 -0.000640152 3.77325e-06
-2.71051e-20 -0.0177836 0.00345876 0 0 0
-1.35525e-20 0.0177837 0.00345884 0 0 0
0 -0.0181253 4.99506e-11 0 0 0
0 0.0181253 4.99554e-11 0 0 0
1.35525e-20 -0.0181254 8.3647e-05 0.00453612 -0.00448282 -3.29491e-05
0 0.0181254 8.3649e-05 1.53895e-05 -3.03485e-05 -4.27984e-06
-1.12938e-21 -0.018044 0.00190351 0.0539851 -0.0537708 -0.000556532
-3.38813e-21 0.018044 0.00190353 0.000593394 -0.000677479 3.16451e-05
-2.71051e-20 -0.0178455 0.00338256 0.00598162 -0.00593092 -0.000127706
0 0.0178456 0.00338271 7.76636e-05 -8.13981e-05 -7.0705e-06
9.03502e-21 -0.0180105 0.00263587 0.0393735 -0.0392317 -0.000531183
2.25875e-21 0.0180106 0.00263595 0.000441445 -0.00048386 4.03378e-05
0 -0.0179191 0.00350977 0 0 0
0 0.0179192 0.00350979 0 0 0
1.35525e-21 -0.0180589 0.00311996 0.0224521 -0.0223214 -0.000352871
-1.35525e-21 0.018059 0.00312002 0.000294035 -0.000299768 1.27581e-05
-5.42101e-20 -0.0183552 0.000282486 0.0151135 -0.0149339 -5.68578e-05
-5.42101e-20 0.0183552 0.000282486 4.36596e-05 -9.95957e-05 -1.09462e-05
2.71051e-20 0.0183704 0.000877818 0.000456462 -0.000548926 -4.7677e-06
0 -0.0183704 0.000877817 0.0461356 -0.0460002 -0.000245655
2.71051e-20 -0.0183759 0.00153184 0.0568159 -0.0565845 -0.000572498
-2.71051e-20 0.018376 0.00153185 0.000660115 -0.000765312 -6.73639e-07
1.35525e-20 0.0181249 0.00358718 0 0 0
0 -0.018125 0.00358724 0 0 0
0 -0.0183601 0.00224052 0.0574135 -0.057176 -0.000950725
0 0.0183602 0.00224054 0.000569425 -0.00065922 5.43942e-05
1.35525e-20 -0.0182298 0.00362666 0 0 0
6.77626e-21 0.0182303 0.00362685 0 0 0
0 0.0185903 1.14547e-11 0 0 0
-6.77626e-21 -0.0185903 1.14538e-11 0 0 0
-1.35525e-20 0.0185922 7.01833e-05 1.29121e-05 -2.54631e-05 -3.59088e-06
-1.35525e-20 -0.0185922 7.01798e-05 0.00380581 -0.00376109 -2.76443e-05
-9.03502e-21 -0.0182769 0.00344764 0.0108613 -0.01063 -0.00026007
1.807e-20 0.018277 0.00344781 0.000159163 -0.000144434 -2.60113e-07
2.71051e-20 -0.0183886 0.0028814 0.0383827 -0.0378954 -0.000682421
0 0.0183886 0.00288148 0.000449751 -0.000499809 5.07517e-05
0 -0.0186731 7.47945e-12 0 0 0
0 0.0186731 7.4798e-12 0 0 0
0 -0.0186856 0.000557203 0.0304533 -0.0304834 -0.000125221
-1.12938e-21 0.0186856 0.000557203 0.000239088 -0.000309909 -1.05849e-05
-1.12938e-21 -0.0187004 0.00117602 0.05247 -0.0523632 -0.00052094
1.12938e-21 0.0187004 0.00117602 0.000537611 -0.000646144 -6.35622e-06
0 -0.01875 6.97661e-12 0 0 0
-2.03288e-20 0.01875 6.97695e-12 0 0 0
0 -0.01875 6.37723e-05 0.00346616 -0.00359671 8.47017e-05
1.35525e-20 0.01875 6.37728e-05 1.54209e-05 -2.18598e-05 -1.95375e-06
2.25875e-21 -0.018696 0.00186471 0.0597337 -0.0595451 -0.000924281
2.25875e-21 0.018696 0.00186473 0.000609373 -0.000723189 2.58275e-05
-1.35525e-20 -0.0184505 0.00370969 0 0 0
2.71051e-20 0.0184507 0.00370979 0 0 0
3.38813e-21 -0.018692 0.00255887 0.0517739 -0.05127 -0.00111779
2.25875e-21 0.018692 0.00255892 0.000524311 -0.000610984 6.08255e-05
-4.06576e-20 -0.0185631 0.00375372 0 0 0
0 0.0185633 0.00375376 0 0 0
0 -0.018598 0.00364592 0.00638753 -0.00644162 -5.62859e-05
1.35525e-20 0.018598 0.00364612 0.000139733 -0.000127528 1.22482e-05
-3.76459e-22 -0.0187012 0.00326209 0.0268532 -0.0262858 -0.000730941
1.12938e-21 0.0187012 0.00326214 0.00034175 -0.00035093 3.61628e-05
0 -0.0189931 0.000266634 0.0144957 -0.0148707 0.000254436
0 0.0189931 0.000266631 5.47667e-05 -9.14743e-05 -1.0961e-05
2.71051e-20 -0.0190119 0.00083882 0.0470009 -0.0470524 -0.000457299
0 0.0190119 0.000838822 0.00041578 -0.000514259 -1.50753e-05
0 -0.0190241 0.00148402 0.0601742 -0.0600598 -0.000813163
0 0.0190241 0.00148403 0.000623899 -0.000761374 -5.42878e-06
-6.77626e-21 0.0187498 0.00382104 0 0 0
-1.35525e-20 -0.0187499 0.00382109 0 0 0
-2.71051e-20 -0.0190146 0.00218766 0.0645156 -0.0643418 -0.00135708
5.42101e-20 0.0190147 0.00218769 0.000585282 -0.000708637 5.41746e-05
-6.77626e-21 -0.0188253 0.00385016 0 0 0
0 0.0188256 0.00385027 0 0 0
0 -0.0190104 0.00288303 0.0483288 -0.0472271 -0.00152266
2.71051e-20 0.0190105 0.00288309 0.000501038 -0.000588824 8.38653e-05
-6.77626e-21 -0.018869 0.00377278 0.00581745 -0.00559107 -0.000247954
0 0.0188695 0.00377247 7.74549e-05 -5.34291e-05 5.42554e-06
6.77626e-21 0.0192614 9.27756e-13 0 0 0
0 -0.0192614 9.27688e-13 0 0 0
0 0.0192616 4.56754e-05 1.10447e-05 -1.56564e-05 -1.39932e-06
0 -0.0192616 4.56687e-05 0.00248219 -0.00257568 6.06567e-05
0 -0.0189593 0.0036316 0.0163884 -0.0157804 -0.000667828
7.52918e-21 0.0189594 0.00363172 0.0002305 -0.000177759 2.13279e-05
1.35525e-20 -0.0189216 0.00388925 0 0 0
6.77626e-21 -0.0193175 5.50573e-13 0 0 0
0 0.0193175 5.5057e-13 0 0 0
-6.77626e-21 0.0189225 0.00388962 0 0 0
0 -0.019323 0.000517724 0.0291914 -0.0293038 -0.000403485
0 0.019323 0.000517724 0.000211557 -0.000277538 -1.97417e-05
0 -0.0193664 3.8562e-05 0.00206843 -0.00197405 -0.000125911
-6.77626e-21 0.0193665 3.85723e-05 1.04733e-05 -1.85205e-05 -3.76079e-06
6.77626e-21 -0.0193681 5.31764e-13 0 0 0
6.77626e-21 0.0193682 5.31754e-13 0 0 0
2.03288e-21 0.0193603 0.00110958 0.000484495 -0.000600145 -1.1523e-05
-9.03502e-22 -0.0193603 0.00110958 0.0527489 -0.0529602 -0.000805151
5.64689e-22 -0.0193496 0.00179959 0.0642436 -0.0642295 -0.00136578
1.69407e-21 0.0193497 0.0017996 0.000582944 -0.000724733 2.40475e-05
1.12938e-21 -0.0193331 0.00252243 0.0601962 -0.0595204 -0.00175816
-2.25875e-21 0.0193332 0.00252246 0.000538152 -0.000658569 7.39177e-05
2.71051e-20 -0.0191251 0.00398458 0 0 0
0 0.0191255 0.00398476 0 0 0
2.71051e-20 -0.0191698 0.00393531 0.00428054 -0.00403536 -0.000215056
0 0.01917 0.00393559 6.32556e-05 -5.5728e-05 7.53324e-06
-4.51751e-21 -0.0192999 0.00324536 0.0373645 -0.0362001 -0.00142565
-2.25875e-21 0.0193 0.00324549 0.00041991 -0.00045204 7.58492e-05
-2.71051e-20 -0.0196204 0.00023725 0.0127796 -0.0123403 -0.000647585
-2.71051e-20 0.0196204 0.000237252 5.34272e-05 -0.00010544 -2.77403e-05
0 -0.0192179 0.00403218 0 0 0
0 0.019218 0.00403225 0 0 0
0 -0.0196557 0.000771332 0.0440172 -0.0444753 -0.000755489
2.71051e-20 0.0196557 0.000771331 0.000342665 -0.000422689 -2.42317e-05
-3.38813e-21 -0.019699 2.94695e-13 0 0 0
-3.38813e-21 0.0196992 2.94512e-13 0 0 0
-4.51751e-22 -0.019364 0.0036912 0.021847 -0.0208092 -0.000985706
4.51751e-22 0.0193642 0.00369132 0.00030593 -0.000278207 5.08261e-05
0 -0.0196876 0.00139268 0.0609379 -0.0613315 -0.00119017
0 0.0196876 0.00139268 0.000577808 -0.000728312 -2.11612e-06
-2.71051e-20 -0.0196587 0.00213403 0.0710713 -0.070931 -0.00208494
0 0.0196588 0.00213406 0.000545136 -0.000701456 4.92645e-05
1.35525e-20 0.0193748 0.00398188 0.000115788 -8.14968e-05 1.86341e-05
-1.35525e-20 -0.0193751 0.00398171 0.00758977 -0.00702044 -0.000457655
1.35525e-20 0.0193748 0.00411568 0 0 0
-6.77626e-21 -0.0193751 0.00411583 0 0 0
-5.42101e-20 -0.0196509 0.00284941 0.0574341 -0.0561662 -0.00208602
2.71051e-20 0.0196509 0.00284946 0.000522242 -0.000638455 0.000107325
9.03502e-22 0.0199546 0.000463669 0.000140351 -0.000191979 -2.40257e-05
2.25875e-21 -0.0199546 0.00046367 0.0259135 -0.026185 -0.00053383
2.71051e-20 -0.0196743 0.00348115 0.0371527 -0.0352371 -0.00175604
2.71051e-20 0.0196743 0.00348125 0.00044625 -0.000454236 0.000104257
0 -0.0195407 0.00420391 0 0 0
-6.77626e-21 0.0195414 0.00420428 0 0 0
0 -0.0199999 3.09655e-13 0 0 0
6.77626e-21 -0.0199999 2.958e-05 0.00160184 -0.0015694 -6.06694e-05
-6.77626e-21 0.02 3.09366e-13 0 0 0
0 0.02 2.95532e-05 4.92037e-06 -1.17962e-05 -4.18275e-06
6.77626e-21 -0.02 0.000220921 0.0125487 -0.0126738 -0.000243929
3.38813e-21 0.02 0.00022081 6.69107e-05 -9.32836e-05 -1.19421e-05
0 -0.0200415 5.23094e-14 0 0 0
0 0.0200415 5.22561e-14 0 0 0
1.35525e-20 -0.0196489 0.00406133 0.0111914 -0.0103817 -0.000651926
1.0842e-20 0.0196492 0.00406167 0.000170513 -0.000124587 2.62745e-05
0 0.0200712 2.48757e-05 2.41883e-07 -5.11405e-06 -2.37274e-06
0 -0.0200712 2.48981e-05 0.0014351 -0.00151158 5.51218e-05
0 0.0200746 3.09587e-14 0 0 0
0 -0.0200747 3.09943e-14 0 0 0
0 0.0199955 0.0017906 0.0005332 -0.000686823 2.54789e-05
-4.23516e-22 -0.0199954 0.00179105 0.0666619 -0.0669672 -0.00168847
9.03502e-21 0.0200905 0.000960733 0.000350467 -0.000444494 -1.32805e-05
-4.51751e-21 -0.0200905 0.000960726 0.0465711 -0.047091 -0.000892701
4.84019e-22 -0.0200182 0.00244878 0.0653831 -0.0647449 -0.00234264
-8.06698e-22 0.0200183 0.00244888 0.000516216 -0.00065619 7.80821e-05
-1.35525e-20 -0.0197164 0.0042974 0 0 0
-2.71051e-20 0.0197167 0.00429758 0 0 0
0 0.020182 1.06922e-14 0 0 0
0 -0.0201821 1.07019e-14 0 0 0
-5.64689e-22 -0.019968 0.00317457 0.0515656 -0.0496976 -0.00246133
1.12938e-21 0.019968 0.00317464 0.000482274 -0.000554016 0.000116109
1.35525e-20 -0.0198178 0.00435143 0 0 0
-1.35525e-20 0.0198179 0.00435149 0 0 0
-1.35525e-20 -0.0198553 0.00424439 0.00635408 -0.00604055 -0.000314012
0 0.0198553 0.00424466 0.000132508 -9.27492e-05 2.8242e-05
7.52918e-22 -0.0199716 0.00386195 0.0272503 -0.0255132 -0.00164376
3.76459e-22 0.0199717 0.00386203 0.000336043 -0.000294248 8.33523e-05
2.25875e-21 -0.0204272 0.00031081 0.0180011 -0.0183012 -0.000329491
-2.25875e-21 0.0204272 0.000310799 9.06055e-05 -0.000113882 -3.01321e-05
2.71051e-20 -0.0204209 0.00146754 0.065247 -0.0660949 -0.00152488
-2.71051e-20 0.0204209 0.00146753 0.000469954 -0.000609276 7.9765e-06
-2.71051e-20 -0.0202842 0.00282336 0.0647021 -0.0633069 -0.00305345
0 0.0202843 0.00282341 0.000498534 -0.000635417 0.000103193
6.77626e-21 0.0199999 0.00444852 0 0 0
6.77626e-21 -0.0200001 0.00444866 0 0 0
-2.71051e-20 -0.0204145 0.00196506 0.0717897 -0.072486 -0.00208249
0 0.0204145 0.00196508 0.000499584 -0.000664198 4.17076e-05
1.35525e-20 0.020525 4.12258e-15 0 0 0
2.71051e-20 -0.0205251 4.1176e-15 0 0 0
6.77626e-21 -0.0200603 0.00448072 0 0 0
0 0.0200605 0.00448086 0 0 0
2.71051e-20 -0.0202766 0.00350283 0.0487562 -0.0458922 -0.00303263
0 0.0202767 0.00350292 0.000465512 -0.000499511 0.000149983
3.38813e-21 -0.0201017 0.00441369 0.00525774 -0.00481724 -0.000432727
3.38813e-21 0.0201022 0.00441328 6.77345e-05 -3.16409e-05 1.66721e-05
-6.77626e-21 -0.0201267 0.00451611 0 0 0
6.77626e-21 0.0201275 0.00451657 0 0 0
3.01167e-21 -0.0202112 0.00425305 0.0175269 -0.0160557 -0.00139858
-4.51751e-21 0.0202113 0.00425322 0.00023154 -0.000125822 5.96195e-05
1.6134e-22 -0.0206625 0.000857339 0.0395377 -0.0402811 -0.00091632
7.26028e-22 0.0206626 0.00085731 0.000235758 -0.000286935 -1.83909e-05
-1.35525e-20 0.0206911 7.74573e-16 0 0 0
0 -0.0206911 7.64323e-16 0 0 0
-1.35525e-20 -0.0206295 0.00169559 0.0687937 -0.0697146 -0.00188932
-1.35525e-20 0.0206296 0.00169559 0.000471407 -0.00062131 2.6524e-05
1.41172e-21 -0.0206304 0.00244038 0.0702739 -0.0699103 -0.00288001
-4.23516e-22 0.0206304 0.0024404 0.00048444 -0.000641321 7.32746e-05
0 -0.0205956 0.00315757 0.0608318 -0.0587096 -0.00341149
0 0.0205957 0.00315762 0.000469239 -0.000563716 0.000120371
0 -0.0203415 0.00463057 0 0 0
-1.35525e-20 0.0203419 0.00463079 0 0 0
0 -0.0208473 0.00142111 0.065224 -0.0665914 -0.00173844
0 0.0208474 0.00142109 0.000431157 -0.000559951 1.22334e-05
2.71051e-20 -0.0203946 0.00457335 0.00539531 -0.00477813 -0.000483216
2.71051e-20 0.0203949 0.0045737 6.95235e-05 -4.17658e-05 2.08033e-05
2.25875e-21 -0.0205528 0.00387349 0.0391562 -0.0364051 -0.0027864
0 0.0205529 0.00387366 0.000379881 -0.00034548 0.00012118
0 -0.0208263 0.00194408 0.0732189 -0.0741852 -0.00230293
0 0.0208263 0.0019441 0.000474519 -0.000634894 4.2829e-05
6.77626e-21 0.020952 1.83096e-16 0 0 0
0 -0.0209522 1.78175e-16 0 0 0
0 -0.0209679 0.000111585 0.00591947 -0.00603594 -0.000105463
-8.47033e-22 0.020968 0.000112714 3.51554e-06 7.92205e-06 -8.84205e-06
-2.71051e-20 -0.0204458 0.00468612 0 0 0
0 -0.0209761 3.89075e-17 0 0 0
0 0.020446 0.00468621 0 0 0
-6.77626e-21 0.0209762 4.11732e-17 0 0 0
-1.12938e-21 0.020982 0.000349479 2.35266e-05 3.92688e-06 -2.55896e-05
-5.64689e-22 -0.0209821 0.000349501 0.018818 -0.0192265 -0.000355997
-3.38813e-22 -0.0206056 0.00432302 0.0241581 -0.0218705 -0.00198699
6.77626e-22 0.0206057 0.00432315 0.000284386 -0.000191314 9.00455e-05
-2.71051e-20 -0.020934 0.00277551 0.0717676 -0.0709465 -0.00353278
0 0.020934 0.00277555 0.000464481 -0.000624894 8.23058e-05
1.35525e-20 0.0206249 0.00478151 0 0 0
0 -0.0206251 0.00478166 0 0 0
0 -0.0208973 0.00349615 0.0587881 -0.0554542 -0.00403068
0 0.0208974 0.00349623 0.000449791 -0.000500673 0.000144227
-2.71051e-20 -0.02125 -2.7536e-16 0 0 0
0 0.02125 -2.77493e-16 0 0 0
-3.38813e-20 -0.0207393 0.0048425 0 0 0
2.71051e-20 0.0207401 0.00484287 0 0 0
4.51751e-21 -0.020785 0.00466278 0.0121737 -0.0106114 -0.00123006
9.03502e-21 0.0207851 0.00466305 0.000151126 -6.74361e-05 4.87891e-05
-5.42101e-20 -0.020919 0.0041165 0.0413015 -0.0375241 -0.00336873
0 0.0209191 0.00411663 0.000382454 -0.000305945 0.000145397
-2.82344e-22 0.0212543 0.00168707 0.000434626 -0.000575158 2.25105e-05
-2.82344e-22 -0.0212543 0.00168707 0.0693239 -0.0708159 -0.00208022
3.01167e-21 -0.0213188 0.000900049 0.0412329 -0.0427738 -0.00110076
-1.50584e-21 0.0213188 0.000900019 0.000185766 -0.000215508 -1.07238e-05
-1.35525e-20 -0.0213463 0.000122192 0.00649914 -0.00698726 -0.000208804
1.35525e-20 0.0213464 0.000122392 -1.68212e-05 2.20656e-05 -1.87114e-06
0 -0.021355 -2.3845e-18 0 0 0
0 0.0213552 -1.52921e-18 0 0 0
-4.51751e-21 -0.0212895 0.00229431 0.0728463 -0.0731141 -0.00308906
-3.38813e-21 0.0212895 0.00229433 0.000440181 -0.00059974 5.33427e-05
-2.71051e-20 -0.0214256 -2.50478e-16 0 0 0
-1.35525e-20 0.0214259 -2.50917e-16 0 0 0
6.77626e-22 -0.0212264 0.00310846 0.0686604 -0.0668428 -0.00392898
2.25875e-22 0.0212264 0.00310856 0.000432709 -0.000550721 9.74819e-05
0 -0.0209342 0.00494631 0 0 0
-1.35525e-20 0.0209345 0.00494647 0 0 0
-1.12938e-21 -0.0212107 0.00381738 0.0552272 -0.0513731 -0.00411183
0 0.0212107 0.00381746 0.00039992 -0.000396014 0.000142713
-2.71051e-20 -0.0215712 0.000127436 0.00763813 -0.00809653 -0.000137654
-1.35525e-20 0.0215719 0.000127681 1.56399e-05 -6.69885e-06 -4.94613e-06
4.06576e-20 -0.0216067 1.47634e-16 0 0 0
-1.35525e-20 0.0216074 1.47373e-16 0 0 0
2.71051e-20 -0.0210473 0.00500657 0 0 0
1.35525e-20 0.0210475 0.00500662 0 0 0
-1.35525e-20 -0.0210904 0.00488681 0.00827206 -0.00733089 -0.000739341
-4.06576e-20 0.0210904 0.00488706 0.000135204 -6.20964e-05 4.00026e-05
-7.52918e-22 -0.0212076 0.00450575 0.0313372 -0.0279947 -0.00283841
-4.89397e-21 0.0212077 0.00450582 0.000291619 -0.000178811 0.000111029
0 -0.0215471 0.00276786 0.0756211 -0.0751574 -0.0038745
0 0.0215471 0.00276788 0.000409876 -0.000587308 5.93395e-05
0 -0.0215274 0.00347141 0.0674936 -0.0643049 -0.00450176
-5.42101e-20 0.0215275 0.00347146 0.000405438 -0.000478789 0.000115033
0 0.0212499 0.0051145 0 0 0
-1.69407e-20 -0.0212502 0.00511463 0 0 0
3.38813e-21 -0.0212808 0.00513096 0 0 0
0 0.0212811 0.00513109 0 0 0
0 -0.0213032 0.0050955 0.00330212 -0.00286961 -0.000382727
0 0.0213038 0.00509507 3.25394e-05 -3.86605e-06 1.24677e-05
-2.71051e-20 -0.0215161 0.00414688 0.05503 -0.0499169 -0.00464117
2.71051e-20 0.0215162 0.00414698 0.000363165 -0.000308315 0.000165231
-3.38813e-21 -0.0213149 0.00514909 0 0 0
0 0.0213156 0.0051495 0 0 0