# U  POINT_DATA 43300
# x  y  z  U_x  U_y  U_z
0 -3.82597e-09 0.05 -2.68432e-08 -2.2188e-10 1.71217e-11
4.1359e-25 0.000624995 0.05 -2.69021e-08 2.24133e-10 1.71796e-11
-4.1359e-25 -0.000625003 0.05 -2.65764e-08 -6.613e-10 2.47889e-11
0 0.00124999 0.05 -2.66367e-08 6.64764e-10 2.49304e-11
-4.1359e-25 -0.00125 0.05 -2.63759e-08 -1.0955e-09 3.66911e-11
0 -0.001875 0.05 -2.65117e-08 -1.54279e-09 5.07796e-11
4.1359e-25 0.001875 0.05 -2.6019e-08 1.08277e-09 3.65555e-11
0 -0.0025 0.05 -2.66121e-08 -1.99149e-09 6.55732e-11
0 0.0025 0.05 -2.52792e-08 1.4731e-09 4.88764e-11
0 -0.003125 0.05 -2.64069e-08 -2.41477e-09 7.94887e-11
0 0.003125 0.05 -2.47246e-08 1.85236e-09 6.11764e-11
4.1359e-25 -0.00375 0.05 -2.62489e-08 -2.83552e-09 9.29935e-11
0 0.00375 0.05 -2.45111e-08 2.24388e-09 7.39222e-11
0 -0.004375 0.05 -2.605e-08 -3.24512e-09 1.06036e-10
0 0.004375 0.05 -2.47645e-08 2.67787e-09 8.80108e-11
0 0.00499999 0.05 -2.53164e-08 3.15632e-09 1.03228e-10
0 -0.005 0.05 -2.57369e-08 -3.63075e-09 1.18149e-10
-2.71051e-20 0.000312496 0.0502952 -0.00598342 1.19007e-07 -0.000133488
2.71051e-20 -0.000312503 0.0502952 -0.00598375 -9.6499e-05 -0.000132913
-2.71051e-20 -0.000937501 0.0502952 -0.00598405 -0.000193732 -0.000131564
0 0.000937496 0.0502952 -0.00598362 9.67515e-05 -0.000132942
0 0.005625 0.05 -2.54572e-08 3.59387e-09 1.16653e-10
0 -0.00562501 0.05 -2.51927e-08 -3.96818e-09 1.28182e-10
-2.71051e-20 0.0015625 0.0502952 -0.00598376 0.000194072 -0.000131596
-2.71051e-20 -0.0015625 0.0502952 -0.00598365 -0.000291368 -0.000129957
0 0.0021875 0.0502952 -0.00598343 0.00029169 -0.000129907
-2.71051e-20 -0.0021875 0.0502952 -0.00598292 -0.000388972 -0.000128235
5.42101e-20 0.0028125 0.0502952 -0.0059828 0.000389305 -0.000128232
2.71051e-20 -0.0028125 0.0502952 -0.00598182 -0.000486399 -0.000126588
0 0.00625 0.05 -2.53191e-08 3.99116e-09 1.28401e-10
0 -0.00625001 0.05 -2.47647e-08 -4.30668e-09 1.37773e-10
-5.42101e-20 0.0034375 0.0502952 -0.00598196 0.00048681 -0.000126605
0 -0.0034375 0.0502952 -0.00598071 -0.000583567 -0.000125044
2.71051e-20 0.0040625 0.0502952 -0.00598097 0.000584117 -0.000125061
-5.42101e-20 -0.0040625 0.0502952 -0.00597931 -0.000680525 -0.00012366
-4.1359e-25 0.006875 0.05 -2.54539e-08 4.43022e-09 1.414e-10
0 -0.006875 0.05 -2.52521e-08 -4.80404e-09 1.52238e-10
0 -0.0046875 0.0502952 -0.00597798 -0.000777166 -0.000122267
0 0.0046875 0.0502952 -0.00597988 0.000681073 -0.000123576
0 0.00749999 0.05 -2.57109e-08 4.89517e-09 1.55076e-10
0 -0.0075 0.05 -2.60399e-08 -5.37768e-09 1.68801e-10
-2.71051e-20 0.0053125 0.0502952 -0.00597853 0.000777687 -0.000122329
2.71051e-20 -0.0053125 0.0502952 -0.00597661 -0.000873385 -0.00012105
1.06934e-20 -3.57407e-09 0.0505762 -0.00348636 -5.99399e-05 -0.000300216
5.54335e-21 0.000624996 0.0505762 -0.00348616 6.1071e-05 -0.000300212
8.51624e-21 -0.000625001 0.0505762 -0.0034848 -0.000180855 -0.000300303
-2.27227e-20 0.00125 0.0505762 -0.00348418 0.000182045 -0.000300253
-5.41183e-22 -0.00125 0.0505762 -0.00348169 -0.000301598 -0.000300276
-2.12769e-20 -0.001875 0.0505762 -0.00347764 -0.000422135 -0.000300062
-1.87005e-20 0.001875 0.0505762 -0.00348111 0.000302831 -0.000300171
5.06276e-21 -0.0025 0.0505762 -0.00347292 -0.00054238 -0.000299719
-3.30097e-21 0.0025 0.0505762 -0.00347729 0.000423349 -0.000299981
0 0.0059375 0.0502952 -0.00597699 0.000873981 -0.000121201
-2.71051e-20 -0.0059375 0.0502952 -0.00597522 -0.00096922 -0.000119977
0 0.00812499 0.05 -2.59744e-08 5.36776e-09 1.6852e-10
4.1359e-25 -0.008125 0.05 -2.64056e-08 -5.88096e-09 1.82571e-10
2.94642e-21 -0.003125 0.0505762 -0.00346767 -0.000662274 -0.000299331
1.79744e-20 0.003125 0.0505762 -0.00347282 0.000543646 -0.00029973
8.57373e-21 -0.00375 0.0505762 -0.00346177 -0.00078183 -0.000298921
1.25075e-20 0.00375 0.0505762 -0.00346785 0.000663694 -0.000299413
-2.71051e-20 0.0065625 0.0502952 -0.00597515 0.000969955 -0.000120248
-2.71051e-20 -0.0065625 0.0502952 -0.00597357 -0.00106469 -0.000119104
0 0.00875 0.05 -2.62129e-08 5.84153e-09 1.81469e-10
0 -0.00875001 0.05 -2.65431e-08 -6.33965e-09 1.94459e-10
-2.31026e-20 -0.004375 0.0505762 -0.00345546 -0.000901045 -0.000298469
7.27609e-21 0.004375 0.0505762 -0.00346248 0.00078335 -0.000299052
0 0.0071875 0.0502952 -0.00597336 0.00106544 -0.000119255
-2.71051e-20 -0.0071875 0.0502952 -0.00597179 -0.0011597 -0.000118279
6.08391e-21 -0.005 0.0505762 -0.00344909 -0.00101976 -0.000298055
2.00362e-20 0.005 0.0505762 -0.00345642 0.000902509 -0.000298663
0 0.009375 0.05 -2.63689e-08 6.30155e-09 1.93684e-10
-4.1359e-25 -0.00937501 0.05 -2.66176e-08 -6.78476e-09 2.05775e-10
-2.71051e-20 0.000312498 0.050875 -0.000825756 1.0573e-06 -0.000477851
0 -0.000312502 0.050875 -0.000823801 -0.000145984 -0.000478625
-2.71051e-20 0.000937499 0.050875 -0.000823086 0.00014802 -0.000478576
0 -0.000937501 0.050875 -0.000818616 -0.000291911 -0.00048026
-1.26797e-20 0.005625 0.0505762 -0.00344953 0.0010212 -0.000298241
0 -0.005625 0.0505762 -0.00344228 -0.00113788 -0.000297668
-2.71051e-20 0.0078125 0.0502952 -0.00597163 0.00116038 -0.000118445
2.71051e-20 -0.0078125 0.0502952 -0.00596978 -0.00125417 -0.000117672
2.71051e-20 0.0015625 0.050875 -0.000817236 0.000294161 -0.000480037
-2.71051e-20 -0.0015625 0.050875 -0.000811056 -0.000437159 -0.000481665
2.71051e-20 0.0021875 0.050875 -0.000810616 0.000439295 -0.000481473
0 -0.0021875 0.050875 -0.000803126 -0.000581837 -0.000482923
0 0.0028125 0.050875 -0.000802475 0.000584019 -0.000482838
2.71051e-20 -0.0028125 0.050875 -0.000793506 -0.0007261 -0.000483836
3.20129e-21 0.00625 0.0505762 -0.00344178 0.00113945 -0.000297728
5.96583e-21 -0.00625 0.0505762 -0.00343472 -0.00125547 -0.000297242
0 0.00999999 0.05 -2.63708e-08 6.7251e-09 2.04428e-10
0 -0.01 0.05 -2.66703e-08 -7.22409e-09 2.16777e-10
2.71051e-20 0.0034375 0.050875 -0.000793695 0.000728355 -0.000483956
-5.42101e-20 -0.0034375 0.050875 -0.000783761 -0.000869793 -0.000484723
2.71051e-20 0.0084375 0.0502952 -0.00596985 0.00125477 -0.000117754
2.71051e-20 -0.0084375 0.0502952 -0.00596777 -0.00134806 -0.000117185
-2.71051e-20 0.0040625 0.050875 -0.000783885 0.000872381 -0.000484905
0 -0.0040625 0.050875 -0.000771821 -0.00101316 -0.000485261
-3.32382e-21 -0.006875 0.0505762 -0.00342651 -0.00137251 -0.000296748
-4.25388e-21 0.006875 0.0505762 -0.00343363 0.00125719 -0.000297162
-2.71051e-20 0.0046875 0.050875 -0.000773746 0.00101569 -0.000485695
5.42101e-20 -0.0046875 0.050875 -0.000760576 -0.00115601 -0.000485818
0 0.0090625 0.0502952 -0.0059678 0.0013487 -0.000117294
2.71051e-20 -0.0090625 0.0502952 -0.0059655 -0.00144142 -0.000116882
4.1359e-25 -0.010625 0.05 -2.66866e-08 -7.65195e-09 2.27097e-10
0 0.010625 0.05 -2.62176e-08 7.10436e-09 2.13431e-10
-1.28587e-20 -0.0075 0.0505762 -0.00341768 -0.00148885 -0.000296189
1.11921e-20 0.0075 0.0505762 -0.00342558 0.00137423 -0.000296671
0 0.0053125 0.050875 -0.000761456 0.00115839 -0.000486207
0 -0.0053125 0.050875 -0.000748396 -0.00129808 -0.000486333
-1.97974e-20 -1.86524e-09 0.0511909 0.0252326 -6.03861e-05 0.00660057
-2.79035e-20 0.000624998 0.0511909 0.0252326 6.65675e-05 0.00660051
3.32299e-21 -0.000625 0.0511909 0.0252354 -0.000187174 0.00659997
-4.21613e-20 0.00125 0.0511909 0.0252361 0.000193342 0.00660002
5.51574e-21 -0.00125 0.0511909 0.0252412 -0.000313591 0.00659942
2.71051e-20 0.0096875 0.0502952 -0.00596578 0.00144205 -0.000116856
0 -0.0096875 0.0502952 -0.00596308 -0.00153415 -0.000116551
2.71051e-20 -0.0059375 0.050875 -0.000735401 -0.00143935 -0.00048666
-2.71051e-20 0.0059375 0.050875 -0.000748371 0.00130047 -0.000486483
-2.17182e-20 -0.008125 0.0505762 -0.0034083 -0.00160445 -0.000295641
1.24816e-20 0.008125 0.0505762 -0.00341723 0.00149048 -0.000296217
-6.36185e-21 -0.001875 0.0511909 0.0252494 -0.000439703 0.00659941
-7.52559e-21 0.001875 0.0511909 0.0252422 0.000319778 0.00659969
0 -0.01125 0.05 -2.63802e-08 -7.97997e-09 2.34074e-10
0 0.01125 0.05 -2.57355e-08 7.38205e-09 2.19073e-10
-4.57865e-21 -0.0025 0.0511909 0.0252597 -0.000565503 0.00659988
-4.4097e-20 0.0025 0.0511909 0.0252503 0.00044588 0.00659965
1.42642e-20 -0.003125 0.0511909 0.0252716 -0.000690942 0.00660063
3.68453e-20 0.003125 0.0511909 0.02526 0.000571741 0.00659989
5.42101e-20 0.0065625 0.050875 -0.000733006 0.00144204 -0.000486307
2.71051e-20 -0.0065625 0.050875 -0.000720391 -0.00158003 -0.000486648
-3.60884e-20 -0.00875 0.0505762 -0.00339835 -0.00171928 -0.000295084
-2.81147e-20 0.00875 0.0505762 -0.003408 0.00160602 -0.000295672
9.0993e-21 -0.00375 0.0511909 0.0252854 -0.000815987 0.00660178
-4.71855e-21 0.00375 0.0511909 0.0252715 0.000697297 0.00660051
2.71051e-20 0.0103125 0.0502952 -0.00596353 0.00153475 -0.000116661
-2.71051e-20 -0.0103125 0.0502952 -0.00596071 -0.00162618 -0.0001164
4.42242e-21 -0.004375 0.0511909 0.025301 -0.000940708 0.00660339
-2.14519e-21 0.004375 0.0511909 0.0252848 0.000822456 0.00660161
-2.71051e-20 0.0071875 0.050875 -0.000718566 0.00158285 -0.000486218
-5.42101e-20 -0.0071875 0.050875 -0.000705131 -0.00171987 -0.000486429
4.1359e-25 -0.011875 0.05 -2.61052e-08 -8.30554e-09 2.4078e-10
-4.1359e-25 0.011875 0.05 -2.52081e-08 7.62837e-09 2.23584e-10
-2.80973e-21 -0.005 0.0511909 0.0253178 -0.00106497 0.00660521
1.74854e-20 0.005 0.0511909 0.0253002 0.000947162 0.00660316
1.02736e-20 -0.009375 0.0505762 -0.00338772 -0.00183331 -0.00029441
9.361e-21 0.009375 0.0505762 -0.00339822 0.00172087 -0.000295082
2.71051e-20 0.0109375 0.0502952 -0.00596121 0.0016268 -0.000116502
5.42101e-20 -0.0109375 0.0502952 -0.00595845 -0.00171752 -0.000116313
-2.71051e-20 0.0078125 0.050875 -0.000703511 0.00172264 -0.000486201
2.71051e-20 -0.0078125 0.050875 -0.000687921 -0.00185879 -0.000485862
3.0977e-20 0.005625 0.0511909 0.0253177 0.00107142 0.00660507
0 -0.005625 0.0511909 0.0253359 -0.00118865 0.00660725
2.71051e-20 -0.000312501 0.051522 0.0510118 -0.00010226 0.0136037
2.71051e-20 0.000312499 0.051522 0.0510104 5.38437e-06 0.0136036
0 0.0009375 0.051522 0.0510112 0.000111978 0.0136034
-2.71051e-20 -0.0009375 0.051522 0.0510145 -0.00020922 0.0136036
4.1359e-25 -0.0125 0.05 -2.64192e-08 -8.81627e-09 2.52457e-10
0 0.0125 0.05 -2.49019e-08 7.92591e-09 2.29329e-10
2.71051e-20 0.0015625 0.051522 0.051016 0.000219802 0.0136038
2.71051e-20 -0.0015625 0.051522 0.0510222 -0.000317163 0.0136045
1.57872e-20 -0.01 0.0505762 -0.00337686 -0.00194647 -0.000293762
1.04653e-20 0.01 0.0505762 -0.00338801 0.00183488 -0.000294493
0 0.0021875 0.051522 0.051023 0.000326857 0.0136049
-2.71051e-20 -0.0021875 0.051522 0.0510319 -0.000424146 0.0136062
2.71051e-20 0.0084375 0.050875 -0.000687801 0.00186138 -0.000485942
2.71051e-20 -0.0084375 0.050875 -0.000670691 -0.00199672 -0.000485333
2.3642e-20 0.00625 0.0511909 0.0253376 0.00119519 0.00660751
7.1122e-21 -0.00625 0.0511909 0.0253561 -0.00131175 0.00660971
2.71051e-20 0.0028125 0.051522 0.0510335 0.000434754 0.0136064
2.71051e-20 -0.0028125 0.051522 0.0510459 -0.000531819 0.0136085
-5.42101e-20 0.0115625 0.0502952 -0.00595884 0.00171819 -0.000116562
2.71051e-20 -0.0115625 0.0502952 -0.00595613 -0.00180815 -0.000116432
-5.42101e-20 0.0034375 0.051522 0.0510449 0.000541641 0.0136083
0 -0.0034375 0.051522 0.0510598 -0.000638342 0.013611
-2.31984e-20 0.006875 0.0511909 0.0253592 0.00131844 0.00661046
2.7203e-20 -0.006875 0.0511909 0.0253786 -0.00143432 0.00661277
-2.71051e-20 0.0090625 0.050875 -0.000669466 0.00199932 -0.000485176
5.42101e-20 -0.0090625 0.050875 -0.000651366 -0.00213365 -0.0004844
-1.12122e-20 -0.010625 0.0505762 -0.00336599 -0.00205868 -0.000293219
-1.082e-20 0.010625 0.0505762 -0.00337717 0.00194801 -0.000293853
2.71051e-20 0.0040625 0.051522 0.0510608 0.000649014 0.0136109
2.71051e-20 -0.0040625 0.051522 0.0510794 -0.000745333 0.0136144
0 -0.013125 0.05 -2.66016e-08 -9.28796e-09 2.62412e-10
0 0.013125 0.05 -2.46973e-08 8.24521e-09 2.35361e-10
0 0.0046875 0.051522 0.0510782 0.000755344 0.0136144
-5.42101e-20 -0.0046875 0.051522 0.0510992 -0.000851406 0.0136185
-3.19568e-20 -0.0075 0.0511909 0.0254033 -0.00155625 0.00661635
2.20659e-20 0.0075 0.0511909 0.0253817 0.00144104 0.00661354
5.42101e-20 0.0121875 0.0502952 -0.00595645 0.00180887 -0.000116631
2.71051e-20 -0.0121875 0.0502952 -0.00595376 -0.00189802 -0.000116591
5.42101e-20 0.0096875 0.050875 -0.000651711 0.00213628 -0.000484466
5.42101e-20 -0.0096875 0.050875 -0.000631746 -0.00226953 -0.000483227
5.42101e-20 0.0053125 0.051522 0.0511 0.000862217 0.0136184
2.71051e-20 -0.0053125 0.051522 0.0511228 -0.000957854 0.0136227
1.45493e-20 -0.01125 0.0505762 -0.00335483 -0.00216993 -0.000292664
4.294e-21 0.01125 0.0505762 -0.00336597 0.00206026 -0.000293224
-2.05287e-20 -0.008125 0.0511909 0.0254295 -0.00167747 0.00662019
-1.60564e-20 0.008125 0.0511909 0.0254055 0.00156287 0.0066168
9.73659e-21 -4.73438e-11 0.0518436 0.0823258 -4.68905e-05 0.0228706
-1.09702e-20 0.000625 0.0518436 0.0823251 6.20803e-05 0.0228704
-5.24226e-22 -0.000625 0.0518436 0.0823278 -0.000156 0.0228708
0 -0.01375 0.05 -2.59506e-08 -9.45868e-09 2.63548e-10
0 0.01375 0.05 -2.4842e-08 8.67759e-09 2.4438e-10
2.82651e-20 0.00125 0.0518436 0.0823278 0.000170993 0.0228706
1.64167e-20 -0.00125 0.0518436 0.0823329 -0.000265084 0.0228714
2.71051e-20 -0.0059375 0.051522 0.0511465 -0.00106315 0.0136274
-2.71051e-20 0.0059375 0.051522 0.0511226 0.000967997 0.0136228
-1.58432e-20 -0.001875 0.0518436 0.0823419 -0.000374167 0.0228729
-1.99469e-21 0.001875 0.0518436 0.082334 0.000280066 0.0228716
5.42101e-20 0.0128125 0.0502952 -0.00595392 0.00189879 -0.000116954
-2.71051e-20 -0.0128125 0.0502952 -0.00595118 -0.0019871 -0.000117017
-9.11946e-21 -0.0025 0.0518436 0.0823542 -0.000483251 0.022875
-7.55299e-21 0.0025 0.0518436 0.0823432 0.000389262 0.0228732
2.71051e-20 0.0103125 0.050875 -0.000631846 0.00227208 -0.000483413
5.42101e-20 -0.0103125 0.050875 -0.000611621 -0.00240425 -0.000482237
2.10439e-20 -0.00875 0.0511909 0.0254576 -0.00179787 0.00662435
8.35204e-21 0.00875 0.0511909 0.0254316 0.00168396 0.0066206
-5.54356e-21 -0.003125 0.0518436 0.0823685 -0.000592172 0.0228774
1.33275e-20 0.003125 0.0518436 0.0823544 0.000498413 0.022875
-2.71051e-20 -0.0065625 0.051522 0.0511754 -0.00116871 0.0136328
-2.71051e-20 0.0065625 0.051522 0.0511509 0.00107404 0.0136282
5.46766e-21 -0.011875 0.0505762 -0.00334321 -0.00228017 -0.000292047
1.14844e-21 0.011875 0.0505762 -0.0033545 0.00217158 -0.000292622
4.41011e-21 -0.00375 0.0518436 0.0823857 -0.000700741 0.0228803
2.66041e-20 0.00375 0.0518436 0.0823686 0.000607268 0.0228773
-2.71051e-20 -0.0071875 0.051522 0.051206 -0.00127327 0.0136394
-2.71051e-20 0.0071875 0.051522 0.0511793 0.001179 0.0136343
0 0.014375 0.05 -2.53867e-08 9.25746e-09 2.57329e-10
0 -0.014375 0.05 -2.51258e-08 -9.54043e-09 2.62117e-10
3.12364e-22 -0.004375 0.0518436 0.0824061 -0.00080911 0.022884
1.65591e-20 0.004375 0.0518436 0.0823863 0.000715885 0.0228804
-2.71051e-20 0.0109375 0.050875 -0.000611821 0.00240677 -0.0004822
2.71051e-20 -0.0109375 0.050875 -0.000591796 -0.00253772 -0.000481238
8.4693e-21 -0.009375 0.0511909 0.0254878 -0.00191745 0.00662907
2.72306e-20 0.009375 0.0511909 0.0254597 0.00180437 0.0066249
2.71051e-20 0.0134375 0.0502952 -0.00595129 0.00198794 -0.000117332
2.71051e-20 -0.0134375 0.0502952 -0.00594847 -0.00207541 -0.000117518
1.08878e-21 -0.005 0.0518436 0.0824292 -0.000917368 0.0228882
-2.45509e-20 0.005 0.0518436 0.082407 0.000824409 0.0228842
1.76187e-20 -0.0125 0.0505762 -0.00333098 -0.00238936 -0.000291378
1.17369e-20 0.0125 0.0505762 -0.00334256 0.00228187 -0.000291997
0 0.0078125 0.051522 0.0512113 0.00128418 0.0136403
0 -0.0078125 0.051522 0.0512415 -0.00137806 0.0136463
1.14535e-20 0.005625 0.0518436 0.08243 0.000932727 0.0228882
-1.86936e-20 -0.005625 0.0518436 0.0824542 -0.00102534 0.0228926
2.94829e-20 -0.01 0.0511909 0.0255192 -0.00203618 0.00663404
8.98928e-21 0.01 0.0511909 0.0254895 0.00192398 0.00662956
-2.71051e-20 0.0003125 0.0521684 0.113619 9.90016e-06 0.0321314
0 -0.0003125 0.0521684 0.113621 -0.000100588 0.0321318
0 0.0115625 0.050875 -0.000590561 0.00254034 -0.00048092
-2.71051e-20 -0.0115625 0.050875 -0.000570351 -0.00266995 -0.000479907
0 -0.0009375 0.0521684 0.113623 -0.000211929 0.0321321
0 0.0009375 0.0521684 0.113619 0.000121053 0.0321312
2.71051e-20 0.0015625 0.0521684 0.113624 0.00023113 0.0321321
0 -0.0015625 0.0521684 0.113631 -0.000322021 0.0321333
4.1359e-25 0.015 0.05 -2.59495e-08 9.85751e-09 2.70375e-10
0 -0.015 0.05 -2.45707e-08 -9.70046e-09 2.62588e-10
2.71051e-20 0.0084375 0.051522 0.0512434 0.00138815 0.013647
0 -0.0084375 0.051522 0.0512764 -0.00148164 0.0136536
5.42101e-20 0.0021875 0.0521684 0.113632 0.000342464 0.0321337
-2.71051e-20 -0.0021875 0.0521684 0.113641 -0.00043333 0.0321354
-2.49115e-20 0.00625 0.0518436 0.0824561 0.00104063 0.0228928
1.50643e-20 -0.00625 0.0518436 0.0824817 -0.00113288 0.0228974
8.13152e-20 0.0140625 0.0502952 -0.00594853 0.00207632 -0.000117899
0 -0.0140625 0.0502952 -0.00594568 -0.00216293 -0.000118209
0 0.0028125 0.0521684 0.113643 0.000452959 0.0321357
-2.71051e-20 -0.0028125 0.0521684 0.113656 -0.000543698 0.0321379
5.56693e-22 -0.013125 0.0505762 -0.00331799 -0.00249749 -0.000290672
-3.15871e-20 0.013125 0.0505762 -0.00333003 0.00239111 -0.000291343
-2.71051e-20 0.0034375 0.0521684 0.113655 0.000564283 0.0321376
0 -0.0034375 0.0521684 0.113671 -0.000654816 0.0321402
-2.97377e-20 -0.010625 0.0511909 0.0255514 -0.00215401 0.00663911
9.00417e-21 0.010625 0.0511909 0.025521 0.00204274 0.00663457
4.98904e-21 0.006875 0.0518436 0.0824855 0.00114819 0.0228983
-9.55792e-21 -0.006875 0.0518436 0.0825129 -0.00124009 0.0229031
-2.71051e-20 0.0090625 0.051522 0.0512816 0.00149226 0.0136544
0 -0.0090625 0.051522 0.0513169 -0.00158519 0.0136614
-5.42101e-20 0.0121875 0.050875 -0.000569486 0.00267264 -0.000479573
0 -0.0121875 0.050875 -0.000548816 -0.00280083 -0.000478395
-2.71051e-20 0.0040625 0.0521684 0.113673 0.000674117 0.0321404
0 -0.0040625 0.0521684 0.113691 -0.000764458 0.0321436
-8.13152e-20 0.0046875 0.0521684 0.113692 0.000785043 0.0321439
-2.71051e-20 -0.0046875 0.0521684 0.113713 -0.000875225 0.0321475
-1.67971e-20 -0.0075 0.0518436 0.0825475 -0.0013471 0.0229095
1.96512e-21 0.0075 0.0518436 0.0825175 0.00125551 0.0229042
0 0.015625 0.05 -2.60771e-08 1.02992e-08 2.78456e-10
0 -0.015625 0.05 -2.39757e-08 -9.82439e-09 2.61857e-10
2.71051e-20 -0.0146875 0.0502952 -0.0059429 -0.00224955 -0.000118945
-2.71051e-20 0.0146875 0.0502952 -0.00594576 0.00216382 -0.000118458
-2.28343e-20 -0.01375 0.0505762 -0.00330459 -0.00260458 -0.00028998
-1.90226e-20 0.01375 0.0505762 -0.003317 0.00249932 -0.000290664
-7.11231e-21 -0.01125 0.0511909 0.025585 -0.00227086 0.00664452
1.35291e-20 0.01125 0.0511909 0.0255537 0.00216061 0.00663979
0 0.0096875 0.051522 0.0513194 0.00159524 0.0136626
2.71051e-20 -0.0096875 0.051522 0.0513581 -0.00168751 0.0136703
-5.42101e-20 0.0053125 0.0521684 0.113716 0.000895009 0.0321479
-2.71051e-20 -0.0053125 0.0521684 0.11374 -0.000984969 0.0321519
2.71051e-20 0.0128125 0.050875 -0.000546496 0.00280355 -0.000477922
0 -0.0128125 0.050875 -0.000525086 -0.00293032 -0.000476519
-1.28017e-20 -0.008125 0.0518436 0.0825841 -0.00145374 0.0229161
-2.08499e-20 0.008125 0.0518436 0.0825513 0.00136247 0.0229103
-2.23645e-20 3.35078e-11 0.0524891 0.135501 -4.69582e-05 0.0385797
-1.46601e-20 0.000625 0.0524891 0.1355 7.09622e-05 0.0385796
3.34538e-20 -0.000625 0.0524891 0.135503 -0.000164956 0.03858
2.84922e-20 0.00125 0.0524891 0.135503 0.000188564 0.0385798
-7.06725e-21 -0.00125 0.0524891 0.135508 -0.000282614 0.0385805
-2.71051e-20 -0.0059375 0.0521684 0.113766 -0.00109536 0.032156
-2.71051e-20 0.0059375 0.0521684 0.11374 0.00100566 0.0321517
-1.16566e-20 -0.001875 0.0524891 0.135516 -0.00040026 0.0385817
1.21608e-21 0.001875 0.0524891 0.135508 0.000306235 0.0385807
-2.71051e-20 0.0103125 0.051522 0.0513628 0.0016983 0.0136712
-5.42101e-20 -0.0103125 0.051522 0.0514025 -0.00178987 0.013679
1.71922e-20 -0.0025 0.0524891 0.135528 -0.000518093 0.0385831
-1.47736e-20 0.0025 0.0524891 0.135517 0.000424141 0.0385819
1.35304e-20 -0.011875 0.0511909 0.0256205 -0.00238672 0.0066504
-8.8954e-21 0.011875 0.0511909 0.025588 0.00227754 0.00664533
0 0.01625 0.05 -2.55729e-08 1.04823e-08 2.79068e-10
0 -0.01625 0.05 -2.34667e-08 -9.96406e-09 2.61496e-10
5.42101e-20 -0.0153125 0.0502952 -0.00593996 -0.00233528 -0.000119972
-2.71051e-20 0.0153125 0.0502952 -0.00594296 0.0022504 -0.00011927
6.55618e-21 -0.00875 0.0518436 0.0826233 -0.00155982 0.0229232
1.44468e-20 0.00875 0.0518436 0.082588 0.00146891 0.0229169
4.76497e-21 0.014375 0.0505762 -0.00330363 0.00260643 -0.000289963
-2.05077e-20 -0.014375 0.0505762 -0.00329094 -0.00271052 -0.000289323
-2.71051e-20 -0.0065625 0.0521684 0.113798 -0.00120425 0.0321611
-2.71051e-20 0.0065625 0.0521684 0.11377 0.0011148 0.0321565
-1.33906e-20 -0.003125 0.0524891 0.135541 -0.000635888 0.0385848
9.35839e-21 0.003125 0.0524891 0.135528 0.000542079 0.0385832
2.71051e-20 0.0134375 0.050875 -0.000523211 0.00293314 -0.000476124
-2.71051e-20 -0.0134375 0.050875 -0.000500802 -0.00305853 -0.000474489
-2.42195e-20 -0.00375 0.0524891 0.135556 -0.000753257 0.0385866
-4.4736e-21 0.00375 0.0524891 0.135541 0.000659613 0.0385848
5.42101e-20 -0.0071875 0.0521684 0.113831 -0.00131409 0.0321669
-2.71051e-20 0.0071875 0.0521684 0.113801 0.00122488 0.032162
0 0.0109375 0.051522 0.0514052 0.00180017 0.0136803
-2.71051e-20 -0.0109375 0.051522 0.0514467 -0.00189097 0.0136885
-3.42634e-21 -0.004375 0.0524891 0.135575 -0.000870469 0.0385891
3.30574e-20 0.004375 0.0524891 0.135558 0.000776975 0.0385869
8.70008e-21 -0.009375 0.0518436 0.0826659 -0.00166536 0.022931
-2.09947e-20 0.009375 0.0518436 0.0826279 0.00157494 0.0229242
1.16419e-20 -0.0125 0.0511909 0.025658 -0.00250159 0.00665677
1.03398e-25 0.0125 0.0511909 0.0256242 0.00239348 0.0066513
2.62706e-20 -0.005 0.0524891 0.135597 -0.00098779 0.0385919
1.21984e-20 0.005 0.0524891 0.135577 0.000894461 0.0385894
-2.71051e-20 0.0078125 0.0521684 0.113837 0.00133395 0.032168
0 -0.0078125 0.0521684 0.11387 -0.00142293 0.0321732
-2.21973e-20 0.015 0.0505762 -0.00328997 0.00271232 -0.000289265
-3.51123e-20 -0.015 0.0505762 -0.00327676 -0.00281522 -0.00028865
0 -0.0159375 0.0502952 -0.00593683 -0.00242011 -0.00012104
0 0.0159375 0.0502952 -0.00594012 0.00233604 -0.000120176
4.1359e-25 0.016875 0.05 -2.46671e-08 1.04766e-08 2.74607e-10
-2.06795e-25 -0.016875 0.05 -2.35545e-08 -1.03475e-08 2.67453e-10
2.71051e-20 0.0140625 0.050875 -0.000498371 0.0030614 -0.00047411
-2.71051e-20 -0.0140625 0.050875 -0.000475567 -0.00318538 -0.000472391
4.47807e-21 0.005625 0.0524891 0.135599 0.00101186 0.038592
-1.90344e-20 -0.005625 0.0524891 0.135621 -0.00110499 0.0385948
-2.31321e-20 -0.01 0.0518436 0.0827109 -0.00177052 0.0229393
-8.60397e-21 0.01 0.0518436 0.0826707 0.00168064 0.0229322
-2.71051e-20 0.0115625 0.051522 0.0514524 0.00190187 0.0136895
2.71051e-20 -0.0115625 0.051522 0.0514956 -0.00199192 0.0136982
2.71051e-20 0.0003125 0.0528069 0.157318 1.8455e-05 0.0450091
2.71051e-20 -0.0003125 0.0528069 0.15732 -0.00011559 0.0450091
0 0.0009375 0.0528069 0.157318 0.000134408 0.0450093
-5.42101e-20 -0.0009375 0.0528069 0.157322 -0.000231666 0.0450096
0 -0.0015625 0.0528069 0.157328 -0.000364748 0.0450097
0 0.0015625 0.0528069 0.157322 0.00026759 0.0450092
-2.71051e-20 0.0084375 0.0521684 0.113872 0.00144354 0.0321736
0 -0.0084375 0.0521684 0.113907 -0.00153229 0.0321793
-3.66224e-21 -0.013125 0.0511909 0.0256977 -0.00261547 0.00666357
3.32726e-20 0.013125 0.0511909 0.0256621 0.00250841 0.00665768
0 0.0021875 0.0528069 0.157329 0.000383642 0.0450102
0 -0.0021875 0.0528069 0.157337 -0.000480806 0.0450108
1.30332e-20 0.00625 0.0524891 0.135622 0.00112879 0.0385949
-1.00759e-20 -0.00625 0.0524891 0.135647 -0.0012217 0.0385978
0 -0.0028125 0.0528069 0.157348 -0.000614366 0.0450111
-2.71051e-20 0.0028125 0.0528069 0.157338 0.000517345 0.0450105
0 -0.0034375 0.0528069 0.157359 -0.000730457 0.0450125
0 0.0034375 0.0528069 0.157347 0.000633535 0.0450117
1.93353e-21 -0.010625 0.0518436 0.0827575 -0.00187523 0.0229479
2.32091e-21 0.010625 0.0518436 0.0827155 0.00178592 0.0229404
1.20128e-20 0.015625 0.0505762 -0.00327589 0.00281695 -0.000288582
-2.54648e-21 -0.015625 0.0505762 -0.0032618 -0.00291868 -0.000287892
-1.03834e-21 0.006875 0.0524891 0.13565 0.00124547 0.0385983
-2.30125e-20 -0.006875 0.0524891 0.135676 -0.00133816 0.0386015
2.71051e-20 0.0121875 0.051522 0.0514997 0.00200235 0.0136998
2.71051e-20 -0.0121875 0.051522 0.0515452 -0.00209165 0.0137091
-2.71051e-20 0.0090625 0.0521684 0.113914 0.00155165 0.0321803
5.42101e-20 -0.0090625 0.0521684 0.113951 -0.0016401 0.0321863
0 -0.0165625 0.0502952 -0.0059336 -0.00250399 -0.000122285
-2.71051e-20 0.0165625 0.0502952 -0.0059372 0.00242081 -0.000121337
0 -0.0146875 0.050875 -0.000450352 -0.00331064 -0.000470251
0 0.0146875 0.050875 -0.000473877 0.00318821 -0.000472026
2.71051e-20 0.0040625 0.0528069 0.157361 0.00076628 0.0450121
2.71051e-20 -0.0040625 0.0528069 0.157375 -0.000863043 0.0450129
0 0.0175 0.05 -2.44983e-08 1.07645e-08 2.77866e-10
0 -0.0175 0.05 -2.44683e-08 -1.11047e-08 2.82539e-10
-3.05643e-22 -0.01375 0.0511909 0.0257388 -0.00272829 0.00667061
-1.42282e-20 0.01375 0.0511909 0.0257016 0.00262228 0.00666438
2.71051e-20 0.0046875 0.0528069 0.157377 0.000882185 0.0450139
2.71051e-20 -0.0046875 0.0528069 0.157393 -0.000978857 0.045015
-9.54473e-21 0.0075 0.0524891 0.13568 0.00136218 0.0386021
-3.32284e-21 -0.0075 0.0524891 0.135708 -0.00145465 0.0386055
1.24683e-20 -0.01125 0.0518436 0.0828066 -0.00197931 0.0229568
5.51264e-22 0.01125 0.0518436 0.0827622 0.00189059 0.0229489
-2.71051e-20 0.0096875 0.0521684 0.113955 0.00166054 0.0321874
0 -0.0096875 0.0521684 0.113996 -0.00174859 0.0321938
0 0.0053125 0.0528069 0.157396 0.00101529 0.0450146
0 -0.0053125 0.0528069 0.157414 -0.00111177 0.0450157
-2.71051e-20 0.0128125 0.051522 0.0515526 0.00210276 0.0137103
2.71051e-20 -0.0128125 0.051522 0.0516002 -0.00219133 0.0137202
-1.93881e-20 -0.008125 0.0524891 0.135743 -0.00157097 0.0386097
-9.63102e-21 0.008125 0.0524891 0.135712 0.00147872 0.038606
-3.22042e-21 0.01625 0.0505762 -0.00326128 0.00292036 -0.000287898
-4.31478e-22 -0.01625 0.0505762 -0.00324627 -0.00302093 -0.000287071
2.8866e-20 -5.43286e-11 0.0531234 0.167072 -4.93675e-05 0.0476642
8.077e-21 0.000625 0.0531234 0.167071 7.92358e-05 0.0476645
1.53985e-20 -0.000625 0.0531234 0.167073 -0.000177969 0.0476644
2.71051e-20 -0.0153125 0.050875 -0.000423052 -0.00343424 -0.000467733
0 0.0153125 0.050875 -0.000447887 0.00331339 -0.000469765
-6.23542e-21 0.00125 0.0531234 0.167073 0.000207507 0.0476645
-1.97469e-20 -0.00125 0.0531234 0.167077 -0.000306269 0.0476646
-5.42101e-20 -0.0059375 0.0528069 0.157435 -0.00122746 0.045018
0 0.0059375 0.0528069 0.157415 0.00113113 0.0450166
2.71051e-20 -0.0171875 0.0502952 -0.00593052 -0.00258684 -0.000123502
0 0.0171875 0.0502952 -0.0059342 0.00250464 -0.000122467
-1.91029e-20 -0.001875 0.0531234 0.167083 -0.000434337 0.0476646
1.3174e-20 0.001875 0.0531234 0.167077 0.000335624 0.0476646
-1.17025e-21 0.014375 0.0511909 0.0257427 0.00273506 0.00667146
2.07924e-20 -0.014375 0.0511909 0.025781 -0.00283996 0.00667791
2.71051e-20 0.0103125 0.0521684 0.114004 0.00176842 0.0321953
-2.71051e-20 -0.0103125 0.0521684 0.114046 -0.00185607 0.032202
1.86615e-20 -0.0025 0.0531234 0.167091 -0.000562851 0.0476646
-3.94912e-21 0.0025 0.0531234 0.167084 0.000464201 0.0476646
4.1359e-25 -0.018125 0.05 -2.56852e-08 -1.20264e-08 3.01e-10
0 0.018125 0.05 -2.53282e-08 1.1497e-08 2.92121e-10
-2.68156e-21 -0.011875 0.0518436 0.0828586 -0.0020828 0.0229665
-5.79259e-21 0.011875 0.0518436 0.082812 0.00199469 0.0229581
0 0.0065625 0.0528069 0.157438 0.00126318 0.0450173
2.71051e-20 -0.0065625 0.0528069 0.15746 -0.0013593 0.0450188
-2.64448e-20 -0.00875 0.0524891 0.135779 -0.00168673 0.038614
-3.57118e-20 0.00875 0.0524891 0.135746 0.00159472 0.0386101
1.40747e-20 -0.003125 0.0531234 0.167101 -0.000691165 0.0476647
-2.80163e-20 0.003125 0.0531234 0.167092 0.000592628 0.0476647
0 0.0134375 0.051522 0.0516049 0.00220188 0.0137217
-5.42101e-20 -0.0134375 0.051522 0.0516555 -0.00228979 0.0137323
-7.35228e-21 -0.00375 0.0531234 0.167112 -0.000819246 0.0476649
0 0.00375 0.0531234 0.167101 0.000720829 0.0476649
-2.71051e-20 0.0071875 0.0528069 0.157463 0.00137859 0.04502
5.42101e-20 -0.0071875 0.0528069 0.157487 -0.00147454 0.0450217
0 0.0109375 0.0521684 0.114049 0.00187673 0.0322027
0 -0.0109375 0.0521684 0.114094 -0.00196395 0.0322099
3.01822e-20 -0.004375 0.0531234 0.167126 -0.00094695 0.0476649
-6.63003e-21 0.004375 0.0531234 0.167114 0.000848653 0.047665
0 -0.0159375 0.050875 -0.000395032 -0.00355633 -0.000464888
-2.71051e-20 0.0159375 0.050875 -0.000421712 0.00343696 -0.000467375
6.76024e-21 0.016875 0.0505762 -0.00324623 0.00302255 -0.00028718
-3.30996e-20 -0.016875 0.0505762 -0.00323069 -0.00312185 -0.000286296
-5.84507e-22 -0.009375 0.0524891 0.135818 -0.0018021 0.0386188
3.21582e-20 0.009375 0.0524891 0.135784 0.0017104 0.0386147
1.10102e-20 -0.0125 0.0518436 0.0829136 -0.00218587 0.0229768
0 0.0125 0.0518436 0.0828648 0.00209835 0.0229678
5.85023e-22 0.015 0.0511909 0.0257853 0.0028467 0.00667889
-7.30432e-21 -0.015 0.0511909 0.025825 -0.00295042 0.00668558
0 0.0178125 0.0502952 -0.00593118 0.00258743 -0.000123805
-2.71051e-20 -0.0178125 0.0502952 -0.00592738 -0.00266861 -0.000125001
3.55042e-20 -0.005 0.0531234 0.167142 -0.00107503 0.047665
3.38396e-20 0.005 0.0531234 0.167128 0.000976871 0.047665
2.71051e-20 0.0078125 0.0528069 0.157492 0.00151083 0.0450211
0 -0.0078125 0.0528069 0.157518 -0.00160654 0.0450228
4.1359e-25 -0.01875 0.05 -2.64453e-08 -1.27584e-08 3.1409e-10
0 0.01875 0.05 -2.58542e-08 1.21071e-08 3.02558e-10
-2.71051e-20 0.0140625 0.051522 0.0516622 0.0023007 0.0137332
-2.71051e-20 -0.0140625 0.051522 0.0517146 -0.00238789 0.0137441
2.16554e-20 -0.005625 0.0531234 0.16716 -0.00120285 0.0476652
-2.56003e-20 0.005625 0.0531234 0.167144 0.00110485 0.0476652
3.62951e-20 -0.01 0.0524891 0.135861 -0.00191738 0.038624
-3.16727e-20 0.01 0.0524891 0.135824 0.00182603 0.0386197
0 0.0115625 0.0521684 0.114101 0.00198354 0.032211