# Solver information
# Time        	alpha.water_solver	alpha.water_initial	alpha.water_final	alpha.water_iters	alpha.water_converged	k_solver      	k_initial     	k_final       	k_iters       	k_converged   	p_rgh_solver  	p_rgh_initial 	p_rgh_final   	p_rgh_iters   	p_rgh_converged	omega_solver  	omega_initial 	omega_final   	omega_iters   	omega_converged
0.000600024   	smoothSolver	0.000000e+00	0.000000e+00	0	true	smoothSolver	1.000000e+00	2.002070e-04	1	true	GAMG	1.000000e+00	8.823240e-03	2	true	smoothSolver	2.034190e-05	3.107240e-09	1	true
0.00132009    	smoothSolver	1.442780e-03	1.075990e-09	2	true	smoothSolver	9.147920e-02	1.041970e-05	1	true	GAMG	4.410220e-03	2.197980e-05	3	true	smoothSolver	2.398500e-05	2.191110e-09	1	true
0.00218416    	smoothSolver	7.340980e-04	1.844910e-10	2	true	smoothSolver	5.352900e-02	6.167540e-06	1	true	GAMG	3.288140e-03	2.180610e-05	2	true	smoothSolver	2.870030e-05	2.786690e-09	1	true
0.00322105    	smoothSolver	6.462110e-04	2.134140e-10	2	true	smoothSolver	4.158830e-02	5.924150e-06	1	true	GAMG	2.472630e-03	9.409660e-06	2	true	smoothSolver	3.440850e-05	4.181810e-09	1	true
0.00446527    	smoothSolver	7.200580e-04	3.920110e-10	2	true	smoothSolver	3.661180e-02	6.851110e-06	1	true	GAMG	2.504700e-03	8.274350e-06	2	true	smoothSolver	4.120710e-05	6.648790e-09	1	true
0.00595826    	smoothSolver	8.469310e-04	8.473900e-10	2	true	smoothSolver	3.470090e-02	8.696230e-06	1	true	GAMG	2.782970e-03	8.971060e-06	2	true	smoothSolver	4.935420e-05	1.099270e-08	1	true
0.00775017    	smoothSolver	1.009090e-03	2.009940e-09	2	true	smoothSolver	3.465870e-02	1.169720e-05	1	true	GAMG	3.145400e-03	1.036830e-05	2	true	smoothSolver	5.906520e-05	1.882740e-08	1	true
0.00990014    	smoothSolver	1.202070e-03	4.735220e-09	2	true	smoothSolver	3.601070e-02	1.636570e-05	1	true	GAMG	3.513520e-03	1.206770e-05	2	true	smoothSolver	7.076940e-05	3.225680e-08	1	true
0.0124803     	smoothSolver	1.424970e-03	6.229670e-11	3	true	smoothSolver	3.861170e-02	2.363980e-05	1	true	GAMG	3.817460e-03	1.374040e-05	2	true	smoothSolver	8.502420e-05	5.094350e-08	1	true
0.0155763     	smoothSolver	1.674120e-03	1.629010e-10	3	true	smoothSolver	4.250610e-02	3.490140e-05	1	true	GAMG	3.996760e-03	1.503930e-05	2	true	smoothSolver	1.023520e-04	8.494460e-08	1	true
0.0192904     	smoothSolver	1.944960e-03	3.741880e-10	3	true	smoothSolver	4.791770e-02	5.338640e-05	1	true	GAMG	4.019180e-03	1.578920e-05	2	true	smoothSolver	1.235460e-04	1.532050e-07	1	true
0.0237454     	smoothSolver	2.231340e-03	7.807380e-10	3	true	smoothSolver	5.490350e-02	8.232780e-05	1	true	GAMG	3.877520e-03	1.623220e-05	2	true	smoothSolver	1.492150e-04	2.571450e-07	1	true
0.0290905     	smoothSolver	2.493590e-03	1.482980e-09	3	true	smoothSolver	6.362930e-02	1.274530e-04	1	true	GAMG	3.677230e-03	1.675770e-05	2	true	smoothSolver	1.798370e-04	4.061330e-07	1	true
0.0355046     	smoothSolver	2.721620e-03	3.457910e-09	3	true	smoothSolver	7.406200e-02	1.950460e-04	1	true	GAMG	3.580250e-03	1.797910e-05	2	true	smoothSolver	2.151860e-04	6.509250e-07	1	true
0.0432015     	smoothSolver	2.840580e-03	8.070060e-09	3	true	smoothSolver	8.560090e-02	2.975360e-04	1	true	GAMG	3.456000e-03	2.044130e-05	2	true	smoothSolver	2.523470e-04	1.059100e-06	1	true
0.052432      	smoothSolver	2.822850e-03	3.833370e-10	4	true	smoothSolver	9.752960e-02	4.626120e-04	1	true	GAMG	3.349590e-03	2.413960e-05	2	true	smoothSolver	2.853990e-04	1.661330e-06	1	true
0.0603481     	smoothSolver	1.969840e-03	4.387330e-10	4	true	smoothSolver	8.626710e-02	3.444950e-04	1	true	GAMG	2.757910e-03	2.147860e-05	2	true	smoothSolver	2.377050e-04	1.196890e-06	1	true
0.0692324     	smoothSolver	2.011120e-03	4.425220e-10	4	true	smoothSolver	1.046290e-01	5.413930e-04	1	true	GAMG	2.688250e-03	2.247470e-05	2	true	smoothSolver	2.732580e-04	1.699860e-06	1	true
0.079378      	smoothSolver	2.211690e-03	1.260340e-09	4	true	smoothSolver	1.329920e-01	9.088330e-04	1	true	GAMG	2.689100e-03	2.329730e-05	2	true	smoothSolver	3.268880e-04	2.717520e-06	1	true
0.0847499     	smoothSolver	1.199330e-03	1.830750e-09	3	true	smoothSolver	7.558530e-02	2.026710e-04	1	true	GAMG	1.801480e-03	1.420560e-05	2	true	smoothSolver	1.769060e-04	5.697940e-07	1	true
0.0910273     	smoothSolver	1.374870e-03	4.144320e-09	3	true	smoothSolver	8.418050e-02	2.986440e-04	1	true	GAMG	1.953100e-03	1.590810e-05	2	true	smoothSolver	2.122040e-04	8.773210e-07	1	true
0.0982891     	smoothSolver	1.636410e-03	9.910560e-09	3	true	smoothSolver	9.119320e-02	4.213180e-04	1	true	GAMG	2.234830e-03	1.678490e-05	2	true	smoothSolver	2.515020e-04	1.400540e-06	1	true
0.104478      	smoothSolver	1.435420e-03	4.492560e-09	3	true	smoothSolver	7.333570e-02	2.744920e-04	1	true	GAMG	2.055000e-03	1.489070e-05	2	true	smoothSolver	2.177040e-04	9.348030e-07	1	true
0.11172       	smoothSolver	1.679830e-03	2.779680e-10	4	true	smoothSolver	7.994560e-02	3.942520e-04	1	true	GAMG	2.251530e-03	1.728630e-05	2	true	smoothSolver	2.576550e-04	1.380830e-06	1	true
0.120105      	smoothSolver	1.925290e-03	5.560370e-10	4	true	smoothSolver	8.729000e-02	5.631970e-04	1	true	GAMG	2.492640e-03	1.944010e-05	2	true	smoothSolver	3.002610e-04	2.020510e-06	1	true
0.129692      	smoothSolver	2.140990e-03	1.641780e-09	4	true	smoothSolver	9.546090e-02	7.989020e-04	1	true	GAMG	2.677030e-03	2.133350e-05	2	true	smoothSolver	3.448490e-04	2.943150e-06	1	true
0.137447      	smoothSolver	1.663770e-03	5.307730e-10	4	true	smoothSolver	7.486410e-02	4.832520e-04	1	true	GAMG	2.267300e-03	1.832480e-05	2	true	smoothSolver	2.808180e-04	1.826350e-06	1	true
0.144556      	smoothSolver	1.474780e-03	3.163800e-10	4	true	smoothSolver	6.615170e-02	3.906440e-04	1	true	GAMG	2.050570e-03	1.713950e-05	2	true	smoothSolver	2.611840e-04	1.528130e-06	1	true
0.151749      	smoothSolver	1.446850e-03	3.649700e-10	4	true	smoothSolver	6.374020e-02	3.914740e-04	1	true	GAMG	2.006320e-03	1.722240e-05	2	true	smoothSolver	2.688710e-04	1.625890e-06	1	true
0.15854       	smoothSolver	1.331090e-03	2.787500e-10	4	true	smoothSolver	5.758040e-02	3.308730e-04	1	true	GAMG	1.905500e-03	1.674380e-05	2	true	smoothSolver	2.589250e-04	1.435330e-06	1	true
0.166529      	smoothSolver	1.543330e-03	9.155970e-10	4	true	smoothSolver	6.520000e-02	5.030910e-04	1	true	GAMG	2.130620e-03	1.881030e-05	2	true	smoothSolver	3.130940e-04	2.362580e-06	1	true
0.17482       	smoothSolver	1.592770e-03	1.588300e-09	4	true	smoothSolver	6.471790e-02	5.342540e-04	1	true	GAMG	2.169130e-03	1.910950e-05	2	true	smoothSolver	3.328880e-04	2.740170e-06	1	true
0.184281      	smoothSolver	1.818450e-03	4.995510e-09	4	true	smoothSolver	7.061040e-02	7.160910e-04	1	true	GAMG	2.405390e-03	2.077360e-05	2	true	smoothSolver	3.887700e-04	4.001960e-06	1	true
0.195176      	smoothSolver	2.099920e-03	5.366030e-10	5	true	smoothSolver	7.861770e-02	1.001950e-03	1	true	GAMG	2.600610e-03	2.272430e-05	2	true	smoothSolver	4.576360e-04	5.906920e-06	1	true
0.207721      	smoothSolver	2.411120e-03	2.055360e-09	5	true	smoothSolver	8.727180e-02	1.447570e-03	1	true	GAMG	2.878540e-03	2.490840e-05	2	true	smoothSolver	5.377630e-04	8.868490e-06	1	true
0.212142      	smoothSolver	8.443300e-04	4.463360e-09	3	true	smoothSolver	3.031640e-02	9.979110e-05	1	true	GAMG	1.413580e-03	1.117050e-05	2	true	smoothSolver	1.882760e-04	6.307690e-07	1	true
0.21715       	smoothSolver	9.507790e-04	8.767810e-09	3	true	smoothSolver	3.385310e-02	1.401050e-04	1	true	GAMG	1.547250e-03	1.252480e-05	2	true	smoothSolver	2.168210e-04	8.906180e-07	1	true
0.222585      	smoothSolver	1.028810e-03	3.325720e-10	4	true	smoothSolver	3.642950e-02	1.750270e-04	1	true	GAMG	1.622710e-03	1.356820e-05	2	true	smoothSolver	2.393220e-04	1.129450e-06	1	true
0.228822      	smoothSolver	1.179710e-03	8.191630e-10	4	true	smoothSolver	4.095900e-02	2.474650e-04	1	true	GAMG	1.847850e-03	1.524130e-05	2	true	smoothSolver	2.785980e-04	1.650030e-06	1	true
0.235609      	smoothSolver	1.285110e-03	1.454630e-09	4	true	smoothSolver	4.364330e-02	3.105690e-04	1	true	GAMG	1.953570e-03	1.612950e-05	2	true	smoothSolver	3.075560e-04	2.156550e-06	1	true
0.239814      	smoothSolver	7.963260e-04	3.393230e-09	3	true	smoothSolver	2.717420e-02	9.027110e-05	1	true	GAMG	1.441030e-03	1.111260e-05	2	true	smoothSolver	1.918330e-04	6.315670e-07	1	true
0.244627      	smoothSolver	9.099520e-04	7.068990e-09	3	true	smoothSolver	3.072220e-02	1.312280e-04	1	true	GAMG	1.589100e-03	1.265370e-05	2	true	smoothSolver	2.230810e-04	9.181050e-07	1	true
0.250157      	smoothSolver	1.046450e-03	3.989370e-10	4	true	smoothSolver	3.486830e-02	1.936150e-04	1	true	GAMG	1.787490e-03	1.437290e-05	2	true	smoothSolver	2.605540e-04	1.364910e-06	1	true
0.256499      	smoothSolver	1.205400e-03	1.033400e-09	4	true	smoothSolver	3.927940e-02	2.836740e-04	1	true	GAMG	1.985070e-03	1.626970e-05	2	true	smoothSolver	3.042070e-04	2.018360e-06	1	true
0.264113      	smoothSolver	1.452780e-03	3.797130e-09	4	true	smoothSolver	4.543260e-02	4.492190e-04	1	true	GAMG	2.229310e-03	1.872400e-05	2	true	smoothSolver	3.722350e-04	3.395430e-06	1	true
0.273255      	smoothSolver	1.749740e-03	6.020740e-10	5	true	smoothSolver	5.252790e-02	7.137490e-04	1	true	GAMG	2.589030e-03	2.158690e-05	2	true	smoothSolver	4.534710e-04	5.708210e-06	1	true
0.277302      	smoothSolver	7.774050e-04	5.155790e-09	3	true	smoothSolver	2.274460e-02	9.063590e-05	1	true	GAMG	1.531620e-03	1.130730e-05	2	true	smoothSolver	1.996100e-04	7.026980e-07	1	true
0.282034      	smoothSolver	9.096210e-04	2.701110e-10	4	true	smoothSolver	2.615530e-02	1.381920e-04	1	true	GAMG	1.663700e-03	1.308940e-05	2	true	smoothSolver	2.362400e-04	1.083840e-06	1	true
0.287618      	smoothSolver	1.074080e-03	7.321150e-10	4	true	smoothSolver	3.008030e-02	2.130150e-04	1	true	GAMG	1.870660e-03	1.499580e-05	2	true	smoothSolver	2.826710e-04	1.734850e-06	1	true
0.294227      	smoothSolver	1.274080e-03	2.115470e-09	4	true	smoothSolver	3.487020e-02	3.339150e-04	1	true	GAMG	2.093400e-03	1.697510e-05	2	true	smoothSolver	3.389660e-04	2.804120e-06	1	true
0.302122      	smoothSolver	1.526420e-03	6.582930e-09	4	true	smoothSolver	4.071740e-02	5.442740e-04	1	true	GAMG	2.356810e-03	1.952620e-05	2	true	smoothSolver	4.104510e-04	4.712680e-06	1	true
0.311594      	smoothSolver	1.839630e-03	9.666440e-10	5	true	smoothSolver	4.735560e-02	8.710320e-04	1	true	GAMG	2.655930e-03	2.208570e-05	2	true	smoothSolver	4.978020e-04	7.887440e-06	1	true
0.322177      	smoothSolver	2.052270e-03	2.315840e-09	5	true	smoothSolver	5.118980e-02	1.175580e-03	1	true	GAMG	2.850980e-03	2.304820e-05	2	true	smoothSolver	5.596320e-04	1.099900e-05	1	true
0.330298      	smoothSolver	1.570360e-03	4.798650e-10	5	true	smoothSolver	3.858870e-02	6.741200e-04	1	true	GAMG	2.421640e-03	1.843070e-05	2	true	smoothSolver	4.288290e-04	6.128650e-06	1	true
0.331031      	smoothSolver	1.419940e-04	1.170970e-10	2	true	smoothSolver	3.440780e-03	1.049100e-06	1	true	GAMG	3.922440e-04	2.701520e-06	2	true	smoothSolver	3.752390e-05	1.259140e-08	1	true
0.331889      	smoothSolver	1.659730e-04	2.273830e-10	2	true	smoothSolver	4.040740e-03	1.687570e-06	1	true	GAMG	3.939770e-04	2.903130e-06	2	true	smoothSolver	4.404800e-05	1.837720e-08	1	true
0.332919      	smoothSolver	1.989070e-04	5.432170e-10	2	true	smoothSolver	4.862230e-03	2.878330e-06	1	true	GAMG	4.408970e-04	3.127510e-06	2	true	smoothSolver	5.304010e-05	2.697890e-08	1	true
0.334155      	smoothSolver	2.386180e-04	1.251700e-09	2	true	smoothSolver	5.847340e-03	4.925510e-06	1	true	GAMG	5.137930e-04	3.695730e-06	2	true	smoothSolver	6.396590e-05	4.334950e-08	1	true
0.335638      	smoothSolver	2.864330e-04	2.881910e-09	2	true	smoothSolver	7.030420e-03	8.420650e-06	1	true	GAMG	6.057930e-04	4.408370e-06	2	true	smoothSolver	7.725650e-05	6.853970e-08	1	true
0.337418      	smoothSolver	3.440310e-04	6.584190e-09	2	true	smoothSolver	8.469500e-03	1.428440e-05	1	true	GAMG	7.147940e-04	5.228140e-06	2	true	smoothSolver	9.344700e-05	1.139070e-07	1	true
0.339554      	smoothSolver	4.137200e-04	1.471970e-10	3	true	smoothSolver	1.019080e-02	2.428140e-05	1	true	GAMG	8.464230e-04	6.226790e-06	2	true	smoothSolver	1.131690e-04	1.891870e-07	1	true
0.342117      	smoothSolver	4.983570e-04	4.110310e-10	3	true	smoothSolver	1.228580e-02	4.150200e-05	1	true	GAMG	1.004590e-03	7.409550e-06	2	true	smoothSolver	1.372150e-04	3.123630e-07	1	true
0.345194      	smoothSolver	6.008000e-04	1.129130e-09	3	true	smoothSolver	1.479070e-02	7.098830e-05	1	true	GAMG	1.173960e-03	8.725660e-06	2	true	smoothSolver	1.663810e-04	5.180540e-07	1	true
0.348885      	smoothSolver	7.243960e-04	3.099630e-09	3	true	smoothSolver	1.780070e-02	1.199330e-04	1	true	GAMG	1.369920e-03	1.022180e-05	2	true	smoothSolver	2.016500e-04	8.596170e-07	1	true
0.353315      	smoothSolver	8.746910e-04	8.584180e-09	3	true	smoothSolver	2.146020e-02	1.979280e-04	1	true	GAMG	1.601250e-03	1.188150e-05	2	true	smoothSolver	2.447720e-04	1.427210e-06	1	true
0.358295      	smoothSolver	9.894210e-04	4.424860e-10	4	true	smoothSolver	2.426540e-02	2.735980e-04	1	true	GAMG	1.793540e-03	1.323940e-05	2	true	smoothSolver	2.782860e-04	1.967860e-06	1	true
0.364208      	smoothSolver	1.185030e-03	1.622630e-09	4	true	smoothSolver	2.923300e-02	4.382120e-04	1	true	GAMG	2.035930e-03	1.510510e-05	2	true	smoothSolver	3.355040e-04	3.221480e-06	1	true
0.370802      	smoothSolver	1.329120e-03	3.912240e-09	4	true	smoothSolver	3.306970e-02	6.099420e-04	1	true	GAMG	2.210350e-03	1.629290e-05	2	true	smoothSolver	3.792840e-04	4.419430e-06	1	true
0.378269      	smoothSolver	1.505580e-03	9.167430e-09	4	true	smoothSolver	3.797270e-02	8.685640e-04	1	true	GAMG	2.356440e-03	1.778540e-05	2	true	smoothSolver	4.370840e-04	6.385170e-06	1	true
0.387106      	smoothSolver	1.785010e-03	1.446270e-09	5	true	smoothSolver	4.543290e-02	1.316280e-03	1	true	GAMG	2.613540e-03	2.009920e-05	2	true	smoothSolver	5.289020e-04	1.026090e-05	1	true
0.396063      	smoothSolver	1.809660e-03	2.105520e-09	5	true	smoothSolver	4.593110e-02	1.390670e-03	1	true	GAMG	2.649430e-03	2.055400e-05	2	true	smoothSolver	5.459200e-04	1.128950e-05	1	true
0.406007      	smoothSolver	1.999190e-03	5.563360e-09	5	true	smoothSolver	5.127900e-02	1.858700e-03	1	true	GAMG	2.799870e-03	2.185370e-05	2	true	smoothSolver	6.228000e-04	1.598780e-05	1	true
0.412116      	smoothSolver	1.225090e-03	6.520790e-09	4	true	smoothSolver	3.183790e-02	6.316650e-04	1	true	GAMG	2.035990e-03	1.465170e-05	2	true	smoothSolver	3.817340e-04	4.924670e-06	1	true
0.419229      	smoothSolver	1.422590e-03	5.880900e-10	5	true	smoothSolver	3.746070e-02	9.536440e-04	1	true	GAMG	2.245560e-03	1.660910e-05	2	true	smoothSolver	4.565330e-04	7.696590e-06	1	true
0.424307      	smoothSolver	1.023090e-03	2.080750e-09	4	true	smoothSolver	2.705430e-02	4.379280e-04	1	true	GAMG	1.787410e-03	1.267100e-05	2	true	smoothSolver	3.270330e-04	3.329070e-06	1	true
0.429495      	smoothSolver	1.050060e-03	2.119030e-09	4	true	smoothSolver	2.799350e-02	4.745550e-04	1	true	GAMG	1.819740e-03	1.332200e-05	2	true	smoothSolver	3.392070e-04	3.619070e-06	1	true
0.435517      	smoothSolver	1.224120e-03	4.860980e-09	4	true	smoothSolver	3.265270e-02	7.087520e-04	1	true	GAMG	2.030660e-03	1.518720e-05	2	true	smoothSolver	4.023140e-04	5.486610e-06	1	true
0.442056      	smoothSolver	1.336680e-03	8.597930e-09	4	true	smoothSolver	3.558200e-02	8.954320e-04	1	true	GAMG	2.141900e-03	1.615020e-05	2	true	smoothSolver	4.459150e-04	7.029510e-06	1	true
0.445848      	smoothSolver	7.775020e-04	2.518590e-10	4	true	smoothSolver	2.084020e-02	2.377530e-04	1	true	GAMG	1.433870e-03	1.024610e-05	2	true	smoothSolver	2.576890e-04	1.752810e-06	1	true
0.450108      	smoothSolver	8.742010e-04	5.331820e-10	4	true	smoothSolver	2.359670e-02	3.255290e-04	1	true	GAMG	1.561070e-03	1.149900e-05	2	true	smoothSolver	2.945140e-04	2.431570e-06	1	true
0.451404      	smoothSolver	2.666830e-04	3.423890e-09	2	true	smoothSolver	7.196700e-03	1.312680e-05	1	true	GAMG	6.018860e-04	3.948090e-06	2	true	smoothSolver	8.864870e-05	1.014880e-07	1	true
0.452953      	smoothSolver	3.186430e-04	7.665900e-09	2	true	smoothSolver	8.619490e-03	2.169480e-05	1	true	GAMG	6.870850e-04	4.778930e-06	2	true	smoothSolver	1.067860e-04	1.604450e-07	1	true
0.454811      	smoothSolver	3.822760e-04	1.861180e-10	3	true	smoothSolver	1.039370e-02	3.605980e-05	1	true	GAMG	8.102460e-04	5.625540e-06	2	true	smoothSolver	1.294000e-04	2.615340e-07	1	true
0.457031      	smoothSolver	4.572740e-04	5.266390e-10	3	true	smoothSolver	1.249300e-02	5.907420e-05	1	true	GAMG	9.560970e-04	6.636820e-06	2	true	smoothSolver	1.565850e-04	4.306890e-07	1	true
0.459696      	smoothSolver	5.505680e-04	1.514430e-09	3	true	smoothSolver	1.518250e-02	9.912370e-05	1	true	GAMG	1.112690e-03	7.802560e-06	2	true	smoothSolver	1.908750e-04	7.242450e-07	1	true
0.462893      	smoothSolver	6.638570e-04	4.152270e-09	3	true	smoothSolver	1.830600e-02	1.650110e-04	1	true	GAMG	1.291250e-03	9.116890e-06	2	true	smoothSolver	2.330490e-04	1.224010e-06	1	true
0.466728      	smoothSolver	7.996800e-04	2.335860e-10	4	true	smoothSolver	2.208660e-02	2.698520e-04	1	true	GAMG	1.486880e-03	1.057200e-05	2	true	smoothSolver	2.851300e-04	2.072720e-06	1	true
0.471331      	smoothSolver	9.635220e-04	9.557420e-10	4	true	smoothSolver	2.671920e-02	4.353230e-04	1	true	GAMG	1.724150e-03	1.232660e-05	2	true	smoothSolver	3.501030e-04	3.484170e-06	1	true
0.476853      	smoothSolver	1.162510e-03	3.502060e-09	4	true	smoothSolver	3.216060e-02	6.785180e-04	1	true	GAMG	1.946240e-03	1.408030e-05	2	true	smoothSolver	4.309500e-04	5.887930e-06	1	true
0.483197      	smoothSolver	1.343430e-03	8.271800e-09	4	true	smoothSolver	3.673330e-02	9.409580e-04	1	true	GAMG	2.151320e-03	1.546900e-05	2	true	smoothSolver	5.074520e-04	8.822360e-06	1	true
0.490578      	smoothSolver	1.567950e-03	1.191340e-09	5	true	smoothSolver	4.232040e-02	1.334380e-03	1	true	GAMG	2.389980e-03	1.710350e-05	2	true	smoothSolver	6.068610e-04	1.390230e-05	1	true
0.499167      	smoothSolver	1.825920e-03	4.177590e-09	5	true	smoothSolver	4.848430e-02	1.881280e-03	1	true	GAMG	2.654730e-03	1.901380e-05	2	true	smoothSolver	7.279340e-04	2.195620e-05	1	true
0.502705      	smoothSolver	7.509320e-04	5.353850e-10	4	true	smoothSolver	1.977040e-02	2.143180e-04	1	true	GAMG	1.443470e-03	9.353730e-06	2	true	smoothSolver	2.951380e-04	2.410330e-06	1	true
0.506668      	smoothSolver	8.436480e-04	1.052290e-09	4	true	smoothSolver	2.212990e-02	2.823920e-04	1	true	GAMG	1.576570e-03	1.043110e-05	2	true	smoothSolver	3.364600e-04	3.286980e-06	1	true
0.510192      	smoothSolver	7.528510e-04	4.664310e-10	4	true	smoothSolver	1.951140e-02	2.059490e-04	1	true	GAMG	1.449600e-03	9.578970e-06	2	true	smoothSolver	3.028070e-04	2.457700e-06	1	true
0.514137      	smoothSolver	8.457820e-04	1.030580e-09	4	true	smoothSolver	2.177710e-02	2.735000e-04	1	true	GAMG	1.572410e-03	1.073810e-05	2	true	smoothSolver	3.453880e-04	3.410080e-06	1	true
0.518696      	smoothSolver	9.801520e-04	2.280110e-09	4	true	smoothSolver	2.496460e-02	3.920540e-04	1	true	GAMG	1.746470e-03	1.210400e-05	2	true	smoothSolver	4.076710e-04	5.160060e-06	1	true
0.524168      	smoothSolver	1.179020e-03	7.273150e-09	4	true	smoothSolver	2.978000e-02	6.271990e-04	1	true	GAMG	1.989320e-03	1.408610e-05	2	true	smoothSolver	5.021140e-04	8.677620e-06	1	true
0.530731      	smoothSolver	1.415320e-03	1.142690e-09	5	true	smoothSolver	3.542950e-02	9.845820e-04	1	true	GAMG	2.219210e-03	1.582080e-05	2	true	smoothSolver	6.211550e-04	1.462080e-05	1	true
0.538599      	smoothSolver	1.698080e-03	5.329280e-09	5	true	smoothSolver	4.182760e-02	1.566210e-03	1	true	GAMG	2.474600e-03	1.782340e-05	2	true	smoothSolver	7.678140e-04	2.432900e-05	1	true
0.548031      	smoothSolver	2.030460e-03	1.692070e-09	6	true	smoothSolver	4.978900e-02	2.480740e-03	1	true	GAMG	2.752860e-03	1.976990e-05	2	true	smoothSolver	9.519600e-04	3.947860e-05	1	true
0.558556      	smoothSolver	2.257390e-03	5.427750e-09	6	true	smoothSolver	5.535160e-02	3.291450e-03	1	true	GAMG	2.889050e-03	2.063740e-05	2	true	smoothSolver	1.101260e-03	5.406290e-05	1	true
0.568066      	smoothSolver	2.040540e-03	3.805140e-09	6	true	smoothSolver	4.994420e-02	2.824230e-03	1	true	GAMG	2.701970e-03	1.886490e-05	2	true	smoothSolver	1.020640e-03	4.673990e-05	1	true
0.575046      	smoothSolver	1.510240e-03	7.591840e-09	5	true	smoothSolver	3.686040e-02	1.473900e-03	1	true	GAMG	2.229210e-03	1.470860e-05	2	true	smoothSolver	7.598950e-04	2.403730e-05	1	true
0.582546      	smoothSolver	1.639130e-03	1.237860e-09	6	true	smoothSolver	3.991270e-02	1.800900e-03	1	true	GAMG	2.318320e-03	1.560080e-05	2	true	smoothSolver	8.507470e-04	3.073560e-05	1	true
0.591207      	smoothSolver	1.924000e-03	4.551940e-09	6	true	smoothSolver	4.655540e-02	2.591470e-03	1	true	GAMG	2.528760e-03	1.724500e-05	2	true	smoothSolver	1.030930e-03	4.755570e-05	1	true
0.600961      	smoothSolver	2.218860e-03	1.168930e-09	7	true	smoothSolver	5.328230e-02	3.627880e-03	1	true	GAMG	2.711850e-03	1.861910e-05	2	true	smoothSolver	1.221230e-03	6.964470e-05	1	true
0.61207       	smoothSolver	2.578340e-03	3.674900e-09	7	true	smoothSolver	6.199480e-02	5.110390e-03	1	true	GAMG	2.892900e-03	2.036750e-05	2	true	smoothSolver	1.469460e-03	1.021410e-04	1	true
0.6249        	smoothSolver	3.020140e-03	1.832440e-09	8	true	smoothSolver	7.392800e-02	1.370720e-03	2	true	GAMG	3.094330e-03	2.256060e-05	2	true	smoothSolver	1.801320e-03	1.566510e-04	1	true
0.633002      	smoothSolver	1.939940e-03	5.653920e-09	6	true	smoothSolver	4.857080e-02	3.224210e-03	1	true	GAMG	2.464390e-03	1.637230e-05	2	true	smoothSolver	1.161160e-03	6.609750e-05	1	true
0.640519      	smoothSolver	1.831740e-03	4.066690e-09	6	true	smoothSolver	4.645390e-02	2.947630e-03	1	true	GAMG	2.393720e-03	1.576680e-05	2	true	smoothSolver	1.121810e-03	6.039640e-05	1	true
0.649017      	smoothSolver	2.118470e-03	1.586390e-09	7	true	smoothSolver	5.392270e-02	4.010110e-03	1	true	GAMG	2.572640e-03	1.709990e-05	2	true	smoothSolver	1.331870e-03	8.558790e-05	1	true
0.654303      	smoothSolver	1.366350e-03	4.867990e-09	5	true	smoothSolver	3.451780e-02	1.498310e-03	1	true	GAMG	2.011540e-03	1.214060e-05	2	true	smoothSolver	8.344600e-04	3.110040e-05	1	true
0.660339      	smoothSolver	1.604610e-03	1.658000e-09	6	true	smoothSolver	4.054290e-02	2.125720e-03	1	true	GAMG	2.226700e-03	1.358410e-05	2	true	smoothSolver	9.948180e-04	4.469810e-05	1	true
0.662234      	smoothSolver	5.180750e-04	3.419140e-09	3	true	smoothSolver	1.290100e-02	1.308510e-04	1	true	GAMG	1.081830e-03	5.952300e-06	2	true	smoothSolver	3.049610e-04	2.575820e-06	1	true
0.664493      	smoothSolver	6.246450e-04	9.401320e-09	3	true	smoothSolver	1.558780e-02	2.069610e-04	1	true	GAMG	1.254960e-03	6.791270e-06	2	true	smoothSolver	3.716010e-04	4.201470e-06	1	true
0.667176      	smoothSolver	7.515320e-04	1.020350e-09	4	true	smoothSolver	1.878420e-02	3.223170e-04	1	true	GAMG	1.433200e-03	7.698580e-06	2	true	smoothSolver	4.513040e-04	6.708680e-06	1	true
0.670211      	smoothSolver	8.620370e-04	2.476660e-09	4	true	smoothSolver	2.150670e-02	4.383240e-04	1	true	GAMG	1.567040e-03	8.758290e-06	2	true	smoothSolver	5.210500e-04	9.323240e-06	1	true
0.673816      	smoothSolver	1.038860e-03	8.497190e-09	4	true	smoothSolver	2.590910e-02	6.710240e-04	1	true	GAMG	1.760850e-03	9.837420e-06	2	true	smoothSolver	6.320790e-04	1.449440e-05	1	true
0.678142      	smoothSolver	1.260540e-03	2.832640e-09	5	true	smoothSolver	3.141390e-02	1.039490e-03	1	true	GAMG	2.011360e-03	1.135800e-05	2	true	smoothSolver	7.739050e-04	2.303440e-05	1	true
0.683197      	smoothSolver	1.485800e-03	9.632190e-09	5	true	smoothSolver	3.707530e-02	1.515240e-03	1	true	GAMG	2.159590e-03	1.196730e-05	2	true	smoothSolver	9.214570e-04	3.439100e-05	1	true
0.688952      	smoothSolver	1.696540e-03	2.986910e-09	6	true	smoothSolver	4.244640e-02	2.078350e-03	1	true	GAMG	2.327800e-03	1.303660e-05	2	true	smoothSolver	1.068520e-03	4.818240e-05	1	true
0.695731      	smoothSolver	1.996890e-03	1.911910e-09	7	true	smoothSolver	4.983800e-02	3.042640e-03	1	true	GAMG	2.546900e-03	1.461590e-05	2	true	smoothSolver	1.284610e-03	7.210600e-05	1	true
0.703362      	smoothSolver	2.235460e-03	5.077830e-09	7	true	smoothSolver	5.605990e-02	4.023400e-03	1	true	GAMG	2.694030e-03	1.536750e-05	2	true	smoothSolver	1.481700e-03	9.706580e-05	1	true
0.711203      	smoothSolver	2.271920e-03	7.145710e-09	7	true	smoothSolver	5.717130e-02	4.403090e-03	1	true	GAMG	2.688840e-03	1.513260e-05	2	true	smoothSolver	1.551350e-03	1.064140e-04	1	true
0.719662      	smoothSolver	2.428000e-03	3.485090e-09	8	true	smoothSolver	6.149500e-02	5.330170e-03	1	true	GAMG	2.758510e-03	1.582590e-05	2	true	smoothSolver	1.717650e-03	1.309840e-04	1	true
0.720626      	smoothSolver	2.780440e-04	1.597680e-10	3	true	smoothSolver	7.163640e-03	2.727530e-05	1	true	GAMG	6.491950e-04	3.912070e-06	2	true	smoothSolver	1.790960e-04	5.585770e-07	1	true
0.721749      	smoothSolver	3.242120e-04	3.857250e-10	3	true	smoothSolver	8.334420e-03	4.138240e-05	1	true	GAMG	7.190380e-04	3.790200e-06	2	true	smoothSolver	2.103920e-04	8.448480e-07	1	true
0.723022      	smoothSolver	3.697370e-04	8.329430e-10	3	true	smoothSolver	9.460990e-03	5.834130e-05	1	true	GAMG	7.843740e-04	4.038180e-06	2	true	smoothSolver	2.411850e-04	1.195170e-06	1	true
0.724488      	smoothSolver	4.284290e-04	1.952460e-09	3	true	smoothSolver	1.090700e-02	8.576130e-05	1	true	GAMG	8.781560e-04	4.518640e-06	2	true	smoothSolver	2.810520e-04	1.758460e-06	1	true
0.726248      	smoothSolver	5.175970e-04	5.579590e-09	3	true	smoothSolver	1.308350e-02	1.398900e-04	1	true	GAMG	1.012790e-03	5.213020e-06	2	true	smoothSolver	3.419750e-04	2.883370e-06	1	true
0.728359      	smoothSolver	6.254680e-04	6.735450e-10	4	true	smoothSolver	1.574930e-02	2.272340e-04	1	true	GAMG	1.170870e-03	6.056820e-06	2	true	smoothSolver	4.169990e-04	4.711160e-06	1	true
0.730893      	smoothSolver	7.579960e-04	2.251330e-09	4	true	smoothSolver	1.896570e-02	3.646140e-04	1	true	GAMG	1.340570e-03	7.004910e-06	2	true	smoothSolver	5.092620e-04	7.623410e-06	1	true
0.733933      	smoothSolver	9.193270e-04	7.190820e-09	4	true	smoothSolver	2.288420e-02	5.785600e-04	1	true	GAMG	1.528980e-03	7.846850e-06	2	true	smoothSolver	6.222430e-04	1.225270e-05	1	true
0.737583      	smoothSolver	1.117490e-03	2.375920e-09	5	true	smoothSolver	2.754720e-02	9.105620e-04	1	true	GAMG	1.716480e-03	8.739780e-06	2	true	smoothSolver	7.621240e-04	1.958670e-05	1	true
0.741964      	smoothSolver	1.359130e-03	8.640490e-09	5	true	smoothSolver	3.321500e-02	1.421900e-03	1	true	GAMG	1.906180e-03	1.012390e-05	2	true	smoothSolver	9.355260e-04	3.122390e-05	1	true
0.74722       	smoothSolver	1.645490e-03	3.990320e-09	6	true	smoothSolver	3.998630e-02	2.200190e-03	1	true	GAMG	2.105150e-03	1.140660e-05	2	true	smoothSolver	1.149310e-03	4.968140e-05	1	true
0.75353       	smoothSolver	1.981230e-03	2.602910e-09	7	true	smoothSolver	4.790900e-02	3.375970e-03	1	true	GAMG	2.272590e-03	1.284120e-05	2	true	smoothSolver	1.412190e-03	7.820110e-05	1	true
0.75864       	smoothSolver	1.599910e-03	3.004280e-09	6	true	smoothSolver	3.910500e-02	2.217390e-03	1	true	GAMG	1.986900e-03	1.116690e-05	2	true	smoothSolver	1.138970e-03	4.955110e-05	1	true
0.764572      	smoothSolver	1.849180e-03	9.496200e-09	6	true	smoothSolver	4.537450e-02	3.151660e-03	1	true	GAMG	2.087260e-03	1.198170e-05	2	true	smoothSolver	1.352040e-03	7.284880e-05	1	true
0.771515      	smoothSolver	2.159000e-03	4.953640e-09	7	true	smoothSolver	5.308870e-02	4.545690e-03	1	true	GAMG	2.199540e-03	1.303230e-05	2	true	smoothSolver	1.620750e-03	1.082500e-04	1	true
0.777169      	smoothSolver	1.755750e-03	7.374020e-09	6	true	smoothSolver	4.393260e-02	3.026530e-03	1	true	GAMG	1.904830e-03	1.091010e-05	2	true	smoothSolver	1.321830e-03	7.064490e-05	1	true
0.783756      	smoothSolver	2.050390e-03	4.221020e-09	7	true	smoothSolver	5.140710e-02	4.248220e-03	1	true	GAMG	2.006720e-03	1.183120e-05	2	true	smoothSolver	1.588000e-03	1.034670e-04	1	true
0.789686      	smoothSolver	1.859760e-03	2.175650e-09	7	true	smoothSolver	4.678740e-02	3.489040e-03	1	true	GAMG	1.852470e-03	1.083620e-05	2	true	smoothSolver	1.446570e-03	8.520940e-05	1	true
0.795098      	smoothSolver	1.712070e-03	7.663250e-09	6	true	smoothSolver	4.323230e-02	2.933650e-03	1	true	GAMG	1.751660e-03	1.015550e-05	2	true	smoothSolver	1.341910e-03	7.206150e-05	1	true
0.80093       	smoothSolver	1.867380e-03	2.297270e-09	7	true	smoothSolver	4.683410e-02	3.543750e-03	1	true	GAMG	1.846540e-03	1.068600e-05	2	true	smoothSolver	1.481070e-03	8.761360e-05	1	true
0.807461      	smoothSolver	2.117630e-03	6.589350e-09	7	true	smoothSolver	5.254430e-02	4.634280e-03	1	true	GAMG	1.962000e-03	1.170910e-05	2	true	smoothSolver	1.702790e-03	1.166750e-04	1	true
0.814816      	smoothSolver	2.407020e-03	3.468260e-09	8	true	smoothSolver	5.927130e-02	9.950800e-04	2	true	GAMG	2.086300e-03	1.251390e-05	2	true	smoothSolver	1.966830e-03	1.572260e-04	1	true
0.822566      	smoothSolver	2.548920e-03	5.059760e-09	8	true	smoothSolver	6.286240e-02	1.209360e-03	2	true	GAMG	2.132800e-03	1.349690e-05	2	true	smoothSolver	2.120860e-03	1.831140e-04	1	true
0.827469      	smoothSolver	1.631660e-03	5.807610e-09	6	true	smoothSolver	4.089470e-02	2.764230e-03	1	true	GAMG	1.717870e-03	1.018670e-05	2	true	smoothSolver	1.325310e-03	6.851010e-05	1	true
0.83075       	smoothSolver	1.096600e-03	3.172800e-09	5	true	smoothSolver	2.794190e-02	1.125650e-03	1	true	GAMG	1.417200e-03	8.642180e-06	2	true	smoothSolver	8.830050e-04	2.673320e-05	1	true
0.834557      	smoothSolver	1.289790e-03	9.226640e-09	5	true	smoothSolver	3.245200e-02	1.619910e-03	1	true	GAMG	1.556800e-03	9.813340e-06	2	true	smoothSolver	1.051040e-03	3.912260e-05	1	true
0.838974      	smoothSolver	1.523220e-03	2.785960e-09	6	true	smoothSolver	3.768540e-02	2.322100e-03	1	true	GAMG	1.691860e-03	1.034610e-05	2	true	smoothSolver	1.247960e-03	5.706460e-05	1	true
0.844215      	smoothSolver	1.842190e-03	1.637790e-09	7	true	smoothSolver	4.477050e-02	3.458410e-03	1	true	GAMG	1.836830e-03	1.165470e-05	2	true	smoothSolver	1.519650e-03	8.650740e-05	1	true
0.850502      	smoothSolver	2.249130e-03	6.534610e-09	7	true	smoothSolver	5.384730e-02	5.185040e-03	1	true	GAMG	1.991850e-03	1.282320e-05	2	true	smoothSolver	1.871700e-03	1.330770e-04	1	true