# Force       
# CofR        : (0.000000e+00 0.000000e+00 0.000000e+00)
#
# Time        	(total_x total_y total_z)	(pressure_x pressure_y pressure_z)	(viscous_x viscous_y viscous_z)
0.000600024   	(-1.558464e-05 -1.113050e-05 2.398505e+03)	(-1.558483e-05 -1.113036e-05 2.398505e+03)	(1.915763e-10 -1.484522e-10 1.052020e-07)
0.00132009    	(1.987113e-06 5.219011e-06 2.398505e+03)	(1.986909e-06 5.218888e-06 2.398505e+03)	(2.045612e-10 1.232532e-10 4.886681e-07)
0.00218416    	(-3.928748e-06 2.481780e-06 2.398506e+03)	(-3.928868e-06 2.481150e-06 2.398506e+03)	(1.199150e-10 6.302353e-10 9.267316e-07)
0.00322139    	(-3.221276e-06 2.643354e-06 2.398506e+03)	(-3.221393e-06 2.642072e-06 2.398506e+03)	(1.164533e-10 1.282490e-09 1.452278e-06)
0.00446581    	(-4.601218e-06 8.919156e-07 2.398506e+03)	(-4.601229e-06 8.899904e-07 2.398506e+03)	(1.097077e-11 1.925213e-09 2.076291e-06)
0.00592983    	(-8.830122e-06 -3.780939e-06 2.398506e+03)	(-8.829359e-06 -3.782881e-06 2.398506e+03)	(-7.635314e-10 1.941887e-09 2.805806e-06)
0.00767076    	(-7.545393e-06 -2.908872e-06 2.398506e+03)	(-7.543724e-06 -2.910790e-06 2.398506e+03)	(-1.668176e-09 1.918010e-09 3.663794e-06)
0.00973811    	(-7.334816e-06 -3.233252e-06 2.398505e+03)	(-7.331996e-06 -3.234973e-06 2.398505e+03)	(-2.819797e-09 1.721475e-09 4.661376e-06)
0.0122076     	(-6.394197e-06 -2.830246e-06 2.398505e+03)	(-6.389959e-06 -2.831554e-06 2.398505e+03)	(-4.238061e-09 1.308088e-09 5.815956e-06)
0.0151739     	(-5.493954e-06 -2.402536e-06 2.398506e+03)	(-5.488025e-06 -2.403218e-06 2.398506e+03)	(-5.928636e-09 6.814289e-10 7.134691e-06)
0.0187293     	(-4.483838e-06 -1.647805e-06 2.398506e+03)	(-4.475991e-06 -1.647751e-06 2.398506e+03)	(-7.847207e-09 -5.418997e-11 8.602331e-06)
0.0228009     	(-5.218128e-06 -2.853626e-06 2.398505e+03)	(-5.207794e-06 -2.852103e-06 2.398505e+03)	(-1.033434e-08 -1.522976e-09 1.007422e-05)
0.0274104     	(-2.051218e-06 -1.821486e-07 2.398505e+03)	(-2.039549e-06 -1.799942e-07 2.398505e+03)	(-1.166961e-08 -2.154486e-09 1.139607e-05)
0.0326114     	(5.211546e-06 7.003709e-06 2.398504e+03)	(5.222077e-06 7.004035e-06 2.398504e+03)	(-1.053120e-08 -3.260703e-10 1.253836e-05)
0.038439      	(1.666939e-05 1.887960e-05 2.398504e+03)	(1.667334e-05 1.887221e-05 2.398504e+03)	(-3.950415e-09 7.385559e-09 1.341472e-05)
0.044936      	(9.521549e-06 1.215289e-05 2.398503e+03)	(9.522268e-06 1.214054e-05 2.398503e+03)	(-7.189843e-10 1.234700e-08 1.408254e-05)
0.0519073     	(1.425008e-05 1.712827e-05 2.398502e+03)	(1.424434e-05 1.710767e-05 2.398502e+03)	(5.741754e-09 2.059947e-08 1.473137e-05)
0.0593143     	(8.764645e-06 1.083789e-05 2.398502e+03)	(8.757267e-06 1.081521e-05 2.398502e+03)	(7.377792e-09 2.267231e-08 1.530475e-05)
0.0674237     	(2.221643e-05 2.510832e-05 2.398501e+03)	(2.219842e-05 2.507367e-05 2.398501e+03)	(1.800325e-08 3.464931e-08 1.594606e-05)
0.0764778     	(2.018820e-05 2.593258e-05 2.398501e+03)	(2.015921e-05 2.588200e-05 2.398501e+03)	(2.899128e-08 5.058274e-08 1.700249e-05)
0.0866264     	(-6.139104e-06 5.491765e-07 2.398500e+03)	(-6.155419e-06 5.051253e-07 2.398500e+03)	(1.631414e-08 4.405124e-08 1.849922e-05)
0.0931974     	(-1.438359e-05 -5.850639e-06 2.398500e+03)	(-1.438821e-05 -5.888508e-06 2.398500e+03)	(4.621663e-09 3.786849e-08 1.951065e-05)
0.100948      	(-6.844664e-06 1.581617e-06 2.398500e+03)	(-6.842457e-06 1.545688e-06 2.398500e+03)	(-2.207146e-09 3.592900e-08 2.060649e-05)
0.110029      	(-6.621110e-06 3.697147e-06 2.398499e+03)	(-6.612437e-06 3.660504e-06 2.398499e+03)	(-8.672477e-09 3.664246e-08 2.173045e-05)
0.120499      	(-1.057960e-05 1.548149e-06 2.398498e+03)	(-1.056226e-05 1.510995e-06 2.398498e+03)	(-1.733960e-08 3.715460e-08 2.271938e-05)
0.132547      	(-8.698623e-06 7.990306e-06 2.398498e+03)	(-8.676811e-06 7.940817e-06 2.398498e+03)	(-2.181208e-08 4.948865e-08 2.328641e-05)
0.146316      	(-3.110254e-05 -8.824803e-06 2.398497e+03)	(-3.105272e-05 -8.871476e-06 2.398497e+03)	(-4.981443e-08 4.667323e-08 2.335175e-05)
0.161838      	(-4.190536e-05 -1.645077e-05 2.398496e+03)	(-4.181684e-05 -1.648891e-05 2.398496e+03)	(-8.852619e-08 3.813766e-08 2.231567e-05)
0.178943      	(-2.918850e-05 2.893097e-06 2.398496e+03)	(-2.908729e-05 2.823287e-06 2.398496e+03)	(-1.012147e-07 6.981026e-08 1.910141e-05)
0.196049      	(-3.355662e-05 5.983690e-06 2.398496e+03)	(-3.343692e-05 5.877663e-06 2.398496e+03)	(-1.197068e-07 1.060272e-07 1.509645e-05)
0.20562       	(-3.959920e-05 4.488418e-06 2.398497e+03)	(-3.946151e-05 4.365032e-06 2.398497e+03)	(-1.376853e-07 1.233856e-07 1.350326e-05)
0.215307      	(-4.781947e-05 1.672578e-06 2.398497e+03)	(-4.765452e-05 1.536337e-06 2.398497e+03)	(-1.649542e-07 1.362414e-07 1.219248e-05)
0.226359      	(-5.827361e-05 -2.376209e-07 2.398497e+03)	(-5.806740e-05 -3.867606e-07 2.398497e+03)	(-2.062111e-07 1.491398e-07 1.119272e-05)
0.236152      	(-6.876363e-05 -2.444986e-06 2.398497e+03)	(-6.851170e-05 -2.603873e-06 2.398497e+03)	(-2.519248e-07 1.588872e-07 1.079130e-05)
0.247064      	(-8.112457e-05 -4.708524e-06 2.398498e+03)	(-8.081140e-05 -4.877895e-06 2.398498e+03)	(-3.131699e-07 1.693713e-07 1.096975e-05)
0.258829      	(-9.969551e-05 -1.049262e-05 2.398498e+03)	(-9.930425e-05 -1.067527e-05 2.398498e+03)	(-3.912656e-07 1.826494e-07 1.183789e-05)
0.270783      	(-1.197636e-04 -1.676666e-05 2.398498e+03)	(-1.192819e-04 -1.696664e-05 2.398498e+03)	(-4.816961e-07 1.999827e-07 1.321635e-05)
0.280772      	(-1.255202e-04 -9.928541e-06 2.398498e+03)	(-1.249586e-04 -1.015056e-05 2.398498e+03)	(-5.616378e-07 2.220165e-07 1.454270e-05)
0.290362      	(-1.427074e-04 -1.461178e-05 2.398498e+03)	(-1.420637e-04 -1.486047e-05 2.398498e+03)	(-6.436805e-07 2.486871e-07 1.588631e-05)
0.299016      	(-1.570327e-04 -1.633131e-05 2.398498e+03)	(-1.563102e-04 -1.660905e-05 2.398498e+03)	(-7.225191e-07 2.777388e-07 1.708687e-05)
0.306892      	(-1.710738e-04 -1.850793e-05 2.398498e+03)	(-1.702748e-04 -1.881566e-05 2.398498e+03)	(-7.989435e-07 3.077306e-07 1.815255e-05)
0.314426      	(-1.842797e-04 -1.927295e-05 2.398498e+03)	(-1.834029e-04 -1.961287e-05 2.398498e+03)	(-8.767801e-07 3.399230e-07 1.916691e-05)
0.322129      	(-1.984689e-04 -2.002322e-05 2.398499e+03)	(-1.975068e-04 -2.039952e-05 2.398499e+03)	(-9.620845e-07 3.762985e-07 2.021211e-05)
0.329921      	(-2.140025e-04 -2.119902e-05 2.398499e+03)	(-2.129471e-04 -2.161508e-05 2.398499e+03)	(-1.055392e-06 4.160615e-07 2.128902e-05)
0.337049      	(-2.300964e-04 -2.309283e-05 2.398499e+03)	(-2.289489e-04 -2.354762e-05 2.398499e+03)	(-1.147463e-06 4.547965e-07 2.229187e-05)
0.343679      	(-2.450248e-04 -2.444816e-05 2.398499e+03)	(-2.437858e-04 -2.494114e-05 2.398499e+03)	(-1.239058e-06 4.929886e-07 2.325008e-05)
0.350661      	(-2.615821e-04 -2.635067e-05 2.398499e+03)	(-2.602400e-04 -2.688644e-05 2.398499e+03)	(-1.342057e-06 5.357791e-07 2.429615e-05)
0.357355      	(-2.788246e-04 -2.828731e-05 2.398499e+03)	(-2.773773e-04 -2.886682e-05 2.398499e+03)	(-1.447289e-06 5.795108e-07 2.531921e-05)
0.363656      	(-2.963395e-04 -3.080454e-05 2.398499e+03)	(-2.947871e-04 -3.142748e-05 2.398499e+03)	(-1.552419e-06 6.229342e-07 2.628468e-05)
0.369494      	(-3.142187e-04 -3.444151e-05 2.398499e+03)	(-3.125635e-04 -3.510664e-05 2.398499e+03)	(-1.655210e-06 6.651318e-07 2.717350e-05)
0.375123      	(-3.296138e-04 -3.556686e-05 2.398499e+03)	(-3.278546e-04 -3.627485e-05 2.398499e+03)	(-1.759194e-06 7.079946e-07 2.802226e-05)
0.380557      	(-3.473509e-04 -3.901634e-05 2.398499e+03)	(-3.454864e-04 -3.976754e-05 2.398499e+03)	(-1.864523e-06 7.511994e-07 2.882932e-05)
0.385897      	(-3.640354e-04 -4.152406e-05 2.398499e+03)	(-3.620627e-04 -4.231970e-05 2.398499e+03)	(-1.972694e-06 7.956338e-07 2.960882e-05)
0.39148       	(-3.825240e-04 -4.486314e-05 2.398499e+03)	(-3.804329e-04 -4.570730e-05 2.398499e+03)	(-2.091063e-06 8.441626e-07 3.040844e-05)
0.397063      	(-4.017612e-04 -4.805746e-05 2.398499e+03)	(-3.995460e-04 -4.895225e-05 2.398499e+03)	(-2.215194e-06 8.947948e-07 3.118825e-05)
0.402494      	(-4.213264e-04 -5.170898e-05 2.398499e+03)	(-4.189848e-04 -5.265499e-05 2.398499e+03)	(-2.341536e-06 9.460112e-07 3.192862e-05)
0.408079      	(-4.418545e-04 -5.596086e-05 2.398499e+03)	(-4.393773e-04 -5.696152e-05 2.398499e+03)	(-2.477174e-06 1.000653e-06 3.267313e-05)
0.413509      	(-4.632343e-04 -6.043498e-05 2.398500e+03)	(-4.606193e-04 -6.149074e-05 2.398499e+03)	(-2.615056e-06 1.055757e-06 3.337673e-05)
0.419042      	(-4.841363e-04 -6.456483e-05 2.398500e+03)	(-4.813748e-04 -6.567863e-05 2.398500e+03)	(-2.761497e-06 1.113797e-06 3.407537e-05)
0.424682      	(-5.070119e-04 -6.983829e-05 2.398500e+03)	(-5.040946e-04 -7.101328e-05 2.398500e+03)	(-2.917243e-06 1.174988e-06 3.477124e-05)
0.430214      	(-5.294226e-04 -7.469131e-05 2.398500e+03)	(-5.263463e-04 -7.592817e-05 2.398500e+03)	(-3.076341e-06 1.236865e-06 3.543530e-05)
0.435746      	(-5.531835e-04 -8.051716e-05 2.398500e+03)	(-5.499416e-04 -8.181789e-05 2.398500e+03)	(-3.241872e-06 1.300729e-06 3.608147e-05)
0.441624      	(-5.792650e-04 -8.797695e-05 2.398500e+03)	(-5.758400e-04 -8.934744e-05 2.398500e+03)	(-3.425021e-06 1.370496e-06 3.675248e-05)
0.446794      	(-6.044419e-04 -9.512505e-05 2.398500e+03)	(-6.008494e-04 -9.655863e-05 2.398500e+03)	(-3.592472e-06 1.433580e-06 3.732717e-05)
0.450188      	(-6.260945e-04 -1.018270e-04 2.398500e+03)	(-6.223884e-04 -1.033029e-04 2.398500e+03)	(-3.706190e-06 1.475884e-06 3.769132e-05)
0.452578      	(-6.403535e-04 -1.059466e-04 2.398500e+03)	(-6.365654e-04 -1.074528e-04 2.398500e+03)	(-3.788101e-06 1.506178e-06 3.793750e-05)
0.45416       	(-6.529244e-04 -1.091921e-04 2.398500e+03)	(-6.490809e-04 -1.107187e-04 2.398500e+03)	(-3.843481e-06 1.526617e-06 3.809212e-05)
0.455469      	(-6.604461e-04 -1.115962e-04 2.398500e+03)	(-6.565563e-04 -1.131398e-04 2.398500e+03)	(-3.889810e-06 1.543642e-06 3.821595e-05)
0.456851      	(-6.643219e-04 -1.120017e-04 2.398500e+03)	(-6.603830e-04 -1.135634e-04 2.398500e+03)	(-3.938864e-06 1.561765e-06 3.834848e-05)
0.458255      	(-6.710680e-04 -1.146786e-04 2.398500e+03)	(-6.670789e-04 -1.162589e-04 2.398500e+03)	(-3.989069e-06 1.580264e-06 3.848366e-05)
0.459583      	(-6.784298e-04 -1.175181e-04 2.398500e+03)	(-6.743928e-04 -1.191160e-04 2.398500e+03)	(-4.037018e-06 1.597836e-06 3.861047e-05)
0.460723      	(-6.857063e-04 -1.201578e-04 2.398500e+03)	(-6.816277e-04 -1.217708e-04 2.398500e+03)	(-4.078633e-06 1.613015e-06 3.871629e-05)
0.461722      	(-6.911611e-04 -1.213029e-04 2.398500e+03)	(-6.870457e-04 -1.229293e-04 2.398500e+03)	(-4.115399e-06 1.626428e-06 3.880642e-05)
0.462438      	(-6.992032e-04 -1.237274e-04 2.398500e+03)	(-6.950610e-04 -1.253636e-04 2.398500e+03)	(-4.142205e-06 1.636168e-06 3.886508e-05)
0.463195      	(-7.003222e-04 -1.235444e-04 2.398500e+03)	(-6.961517e-04 -1.251909e-04 2.398500e+03)	(-4.170503e-06 1.646473e-06 3.892869e-05)
0.463746      	(-7.080070e-04 -1.262904e-04 2.398500e+03)	(-7.038156e-04 -1.279444e-04 2.398500e+03)	(-4.191419e-06 1.654033e-06 3.896923e-05)
0.464373      	(-7.061644e-04 -1.249633e-04 2.398500e+03)	(-7.019493e-04 -1.266259e-04 2.398500e+03)	(-4.215099e-06 1.662635e-06 3.901875e-05)
0.465076      	(-7.069517e-04 -1.252892e-04 2.398500e+03)	(-7.027101e-04 -1.269614e-04 2.398500e+03)	(-4.241601e-06 1.672252e-06 3.907695e-05)
0.465855      	(-7.091360e-04 -1.260801e-04 2.398500e+03)	(-7.048651e-04 -1.277630e-04 2.398500e+03)	(-4.270962e-06 1.682908e-06 3.914371e-05)
0.466723      	(-7.121903e-04 -1.273185e-04 2.398500e+03)	(-7.078865e-04 -1.290133e-04 2.398500e+03)	(-4.303779e-06 1.694782e-06 3.922060e-05)
0.467103      	(-7.299248e-04 -1.336677e-04 2.398500e+03)	(-7.256060e-04 -1.353678e-04 2.398500e+03)	(-4.318720e-06 1.700098e-06 3.924250e-05)
0.467282      	(-7.546363e-04 -1.416897e-04 2.398501e+03)	(-7.503101e-04 -1.433924e-04 2.398501e+03)	(-4.326180e-06 1.702710e-06 3.924255e-05)
0.46747       	(-7.450642e-04 -1.366312e-04 2.398501e+03)	(-7.407302e-04 -1.383366e-04 2.398501e+03)	(-4.333927e-06 1.705455e-06 3.924430e-05)
0.467634      	(-7.473158e-04 -1.360302e-04 2.398501e+03)	(-7.429751e-04 -1.377381e-04 2.398501e+03)	(-4.340717e-06 1.707864e-06 3.924357e-05)
0.467819      	(-7.402437e-04 -1.337518e-04 2.398501e+03)	(-7.358955e-04 -1.354624e-04 2.398501e+03)	(-4.348276e-06 1.710560e-06 3.924560e-05)
0.468005      	(-7.381267e-04 -1.327050e-04 2.398501e+03)	(-7.337708e-04 -1.344183e-04 2.398500e+03)	(-4.355876e-06 1.713271e-06 3.924807e-05)
0.46819       	(-7.375107e-04 -1.324583e-04 2.398501e+03)	(-7.331474e-04 -1.341742e-04 2.398500e+03)	(-4.363359e-06 1.715949e-06 3.925052e-05)
0.468346      	(-7.404313e-04 -1.320532e-04 2.398501e+03)	(-7.360615e-04 -1.337715e-04 2.398501e+03)	(-4.369796e-06 1.718252e-06 3.925010e-05)
0.468481      	(-7.444433e-04 -1.330558e-04 2.398501e+03)	(-7.400679e-04 -1.347761e-04 2.398501e+03)	(-4.375400e-06 1.720253e-06 3.924747e-05)
0.46855       	(-7.737767e-04 -1.367892e-04 2.398501e+03)	(-7.693982e-04 -1.385106e-04 2.398501e+03)	(-4.378542e-06 1.721358e-06 3.923764e-05)
0.468579      	(-8.480694e-04 -1.451994e-04 2.398504e+03)	(-8.436892e-04 -1.469214e-04 2.398504e+03)	(-4.380188e-06 1.721929e-06 3.922364e-05)
0.468612      	(-8.187530e-04 -1.358266e-04 2.398503e+03)	(-8.143710e-04 -1.375491e-04 2.398503e+03)	(-4.381953e-06 1.722549e-06 3.921037e-05)
0.468649      	(-7.986712e-04 -1.323293e-04 2.398503e+03)	(-7.942873e-04 -1.340525e-04 2.398502e+03)	(-4.383853e-06 1.723225e-06 3.919789e-05)
0.468691      	(-7.837009e-04 -1.296057e-04 2.398502e+03)	(-7.793150e-04 -1.313296e-04 2.398502e+03)	(-4.385899e-06 1.723955e-06 3.918619e-05)
0.468737      	(-7.742970e-04 -1.313014e-04 2.398502e+03)	(-7.699089e-04 -1.330261e-04 2.398502e+03)	(-4.388121e-06 1.724747e-06 3.917534e-05)
0.46879       	(-7.666131e-04 -1.330258e-04 2.398502e+03)	(-7.622225e-04 -1.347514e-04 2.398501e+03)	(-4.390557e-06 1.725609e-06 3.916544e-05)
0.468852      	(-7.577521e-04 -1.333580e-04 2.398501e+03)	(-7.533588e-04 -1.350846e-04 2.398501e+03)	(-4.393305e-06 1.726580e-06 3.915677e-05)
0.468925      	(-7.500344e-04 -1.330215e-04 2.398501e+03)	(-7.456380e-04 -1.347492e-04 2.398501e+03)	(-4.396450e-06 1.727691e-06 3.914959e-05)
0.469009      	(-7.438424e-04 -1.327041e-04 2.398501e+03)	(-7.394424e-04 -1.344330e-04 2.398501e+03)	(-4.400020e-06 1.728956e-06 3.914398e-05)
0.469106      	(-7.400324e-04 -1.327523e-04 2.398501e+03)	(-7.356284e-04 -1.344827e-04 2.398501e+03)	(-4.404021e-06 1.730375e-06 3.913994e-05)
0.469201      	(-7.404430e-04 -1.336835e-04 2.398501e+03)	(-7.360350e-04 -1.354153e-04 2.398501e+03)	(-4.407974e-06 1.731774e-06 3.913598e-05)
0.469257      	(-7.604350e-04 -1.391618e-04 2.398501e+03)	(-7.560246e-04 -1.408944e-04 2.398501e+03)	(-4.410456e-06 1.732636e-06 3.912773e-05)
0.469289      	(-7.926708e-04 -1.470041e-04 2.398502e+03)	(-7.882588e-04 -1.487373e-04 2.398502e+03)	(-4.412051e-06 1.733177e-06 3.911701e-05)
0.469327      	(-7.777050e-04 -1.436762e-04 2.398502e+03)	(-7.732912e-04 -1.454100e-04 2.398502e+03)	(-4.413847e-06 1.733791e-06 3.910717e-05)
0.469372      	(-7.647208e-04 -1.404093e-04 2.398501e+03)	(-7.603048e-04 -1.421438e-04 2.398501e+03)	(-4.415915e-06 1.734505e-06 3.909842e-05)
0.469427      	(-7.550930e-04 -1.382425e-04 2.398501e+03)	(-7.506746e-04 -1.399779e-04 2.398501e+03)	(-4.418314e-06 1.735339e-06 3.909093e-05)
0.469492      	(-7.475685e-04 -1.366005e-04 2.398501e+03)	(-7.431474e-04 -1.383368e-04 2.398501e+03)	(-4.421111e-06 1.736319e-06 3.908488e-05)
0.469571      	(-7.418795e-04 -1.354707e-04 2.398501e+03)	(-7.374551e-04 -1.372082e-04 2.398501e+03)	(-4.424391e-06 1.737474e-06 3.908054e-05)
0.469665      	(-7.376869e-04 -1.347676e-04 2.398500e+03)	(-7.332587e-04 -1.365064e-04 2.398500e+03)	(-4.428251e-06 1.738839e-06 3.907817e-05)
0.469772      	(-7.357773e-04 -1.346998e-04 2.398500e+03)	(-7.313447e-04 -1.364401e-04 2.398500e+03)	(-4.432569e-06 1.740367e-06 3.907739e-05)
0.469843      	(-7.468947e-04 -1.386453e-04 2.398501e+03)	(-7.424592e-04 -1.403867e-04 2.398501e+03)	(-4.435541e-06 1.741404e-06 3.907262e-05)
0.469922      	(-7.430367e-04 -1.374613e-04 2.398501e+03)	(-7.385979e-04 -1.392038e-04 2.398501e+03)	(-4.438838e-06 1.742561e-06 3.906908e-05)
0.470011      	(-7.404283e-04 -1.366768e-04 2.398500e+03)	(-7.359858e-04 -1.384206e-04 2.398500e+03)	(-4.442468e-06 1.743839e-06 3.906674e-05)
0.470113      	(-7.377672e-04 -1.362120e-04 2.398500e+03)	(-7.333206e-04 -1.379573e-04 2.398500e+03)	(-4.446613e-06 1.745301e-06 3.906617e-05)
0.47023       	(-7.358496e-04 -1.357913e-04 2.398500e+03)	(-7.313983e-04 -1.375383e-04 2.398500e+03)	(-4.451321e-06 1.746965e-06 3.906748e-05)
0.470368      	(-7.342621e-04 -1.356168e-04 2.398500e+03)	(-7.298053e-04 -1.373656e-04 2.398500e+03)	(-4.456781e-06 1.748899e-06 3.907124e-05)
0.470531      	(-7.328416e-04 -1.351340e-04 2.398500e+03)	(-7.283784e-04 -1.368852e-04 2.398500e+03)	(-4.463197e-06 1.751178e-06 3.907806e-05)
0.470723      	(-7.321521e-04 -1.349774e-04 2.398500e+03)	(-7.276814e-04 -1.367312e-04 2.398500e+03)	(-4.470735e-06 1.753863e-06 3.908841e-05)
0.47095       	(-7.318820e-04 -1.347872e-04 2.398500e+03)	(-7.274024e-04 -1.365442e-04 2.398500e+03)	(-4.479578e-06 1.757022e-06 3.910281e-05)
0.471218      	(-7.318278e-04 -1.344823e-04 2.398500e+03)	(-7.273379e-04 -1.362430e-04 2.398500e+03)	(-4.489931e-06 1.760737e-06 3.912184e-05)
0.471531      	(-7.326859e-04 -1.346909e-04 2.398500e+03)	(-7.281839e-04 -1.364560e-04 2.398500e+03)	(-4.502065e-06 1.765098e-06 3.914623e-05)
0.471897      	(-7.343230e-04 -1.353804e-04 2.398500e+03)	(-7.298067e-04 -1.371506e-04 2.398500e+03)	(-4.516229e-06 1.770185e-06 3.917663e-05)
0.472324      	(-7.364459e-04 -1.364572e-04 2.398500e+03)	(-7.319131e-04 -1.382333e-04 2.398500e+03)	(-4.532720e-06 1.776092e-06 3.921382e-05)
0.472818      	(-7.388757e-04 -1.376643e-04 2.398500e+03)	(-7.343238e-04 -1.394472e-04 2.398500e+03)	(-4.551873e-06 1.782933e-06 3.925866e-05)
0.473389      	(-7.421497e-04 -1.391091e-04 2.398500e+03)	(-7.375756e-04 -1.409000e-04 2.398500e+03)	(-4.574021e-06 1.790833e-06 3.931189e-05)
0.474043      	(-7.460894e-04 -1.407918e-04 2.398500e+03)	(-7.414899e-04 -1.425916e-04 2.398500e+03)	(-4.599516e-06 1.799887e-06 3.937439e-05)
0.474791      	(-7.502211e-04 -1.423539e-04 2.398500e+03)	(-7.455923e-04 -1.441642e-04 2.398500e+03)	(-4.628783e-06 1.810265e-06 3.944724e-05)
0.475646      	(-7.551920e-04 -1.440980e-04 2.398500e+03)	(-7.505296e-04 -1.459201e-04 2.398500e+03)	(-4.662422e-06 1.822170e-06 3.953177e-05)
0.476621      	(-7.607891e-04 -1.461271e-04 2.398500e+03)	(-7.560882e-04 -1.479628e-04 2.398500e+03)	(-4.700961e-06 1.835785e-06 3.962928e-05)
0.477728      	(-7.665344e-04 -1.482454e-04 2.398500e+03)	(-7.617895e-04 -1.500967e-04 2.398500e+03)	(-4.744908e-06 1.851305e-06 3.974082e-05)
0.478983      	(-7.736214e-04 -1.508274e-04 2.398500e+03)	(-7.688262e-04 -1.526964e-04 2.398500e+03)	(-4.795150e-06 1.869005e-06 3.986780e-05)
0.480403      	(-7.815849e-04 -1.537685e-04 2.398500e+03)	(-7.767324e-04 -1.556576e-04 2.398500e+03)	(-4.852446e-06 1.889137e-06 4.001129e-05)
0.482006      	(-7.905829e-04 -1.572573e-04 2.398500e+03)	(-7.856651e-04 -1.591693e-04 2.398500e+03)	(-4.917780e-06 1.912002e-06 4.017268e-05)
0.483811      	(-8.008568e-04 -1.612454e-04 2.398500e+03)	(-7.958646e-04 -1.631833e-04 2.398500e+03)	(-4.992132e-06 1.937901e-06 4.035332e-05)
0.485843      	(-8.124191e-04 -1.657719e-04 2.398500e+03)	(-8.073423e-04 -1.677392e-04 2.398500e+03)	(-5.076869e-06 1.967284e-06 4.055460e-05)
0.488119      	(-8.247888e-04 -1.705230e-04 2.398500e+03)	(-8.196159e-04 -1.725234e-04 2.398500e+03)	(-5.172926e-06 2.000464e-06 4.077605e-05)
0.490334      	(-8.387027e-04 -1.766277e-04 2.398500e+03)	(-8.334349e-04 -1.786607e-04 2.398500e+03)	(-5.267791e-06 2.032977e-06 4.098629e-05)
0.49256       	(-8.513901e-04 -1.815466e-04 2.398500e+03)	(-8.460258e-04 -1.836125e-04 2.398500e+03)	(-5.364332e-06 2.065868e-06 4.119183e-05)
0.494899      	(-8.644561e-04 -1.866862e-04 2.398500e+03)	(-8.589890e-04 -1.887869e-04 2.398500e+03)	(-5.467099e-06 2.100675e-06 4.140235e-05)
0.497104      	(-8.789223e-04 -1.932067e-04 2.398500e+03)	(-8.733569e-04 -1.953404e-04 2.398500e+03)	(-5.565376e-06 2.133692e-06 4.159531e-05)
0.499191      	(-8.914079e-04 -1.976432e-04 2.398500e+03)	(-8.857483e-04 -1.998084e-04 2.398500e+03)	(-5.659566e-06 2.165256e-06 4.177325e-05)
0.501218      	(-9.034779e-04 -2.023141e-04 2.398500e+03)	(-8.977258e-04 -2.045103e-04 2.398500e+03)	(-5.752163e-06 2.196172e-06 4.194299e-05)
0.503238      	(-9.162470e-04 -2.075821e-04 2.398500e+03)	(-9.104014e-04 -2.098092e-04 2.398500e+03)	(-5.845527e-06 2.227148e-06 4.211022e-05)
0.505141      	(-9.290507e-04 -2.133958e-04 2.398500e+03)	(-9.231162e-04 -2.156522e-04 2.398500e+03)	(-5.934579e-06 2.256481e-06 4.226618e-05)
0.507059      	(-9.408567e-04 -2.186672e-04 2.398500e+03)	(-9.348314e-04 -2.209533e-04 2.398500e+03)	(-6.025282e-06 2.286141e-06 4.242341e-05)
0.509015      	(-9.529086e-04 -2.237676e-04 2.398500e+03)	(-9.467899e-04 -2.260843e-04 2.398500e+03)	(-6.118747e-06 2.316616e-06 4.258470e-05)
0.510889      	(-9.653566e-04 -2.289940e-04 2.398500e+03)	(-9.591473e-04 -2.313400e-04 2.398500e+03)	(-6.209363e-06 2.345982e-06 4.273931e-05)
0.512862      	(-9.771669e-04 -2.340767e-04 2.398500e+03)	(-9.708613e-04 -2.364538e-04 2.398500e+03)	(-6.305669e-06 2.377074e-06 4.290260e-05)
0.514764      	(-9.899620e-04 -2.399707e-04 2.398500e+03)	(-9.835624e-04 -2.423780e-04 2.398500e+03)	(-6.399579e-06 2.407240e-06 4.306021e-05)
0.516893      	(-1.002353e-03 -2.455369e-04 2.398500e+03)	(-9.958476e-04 -2.479780e-04 2.398500e+03)	(-6.505669e-06 2.441103e-06 4.323711e-05)
0.519171      	(-1.017151e-03 -2.529201e-04 2.398500e+03)	(-1.010531e-03 -2.553976e-04 2.398500e+03)	(-6.620580e-06 2.477495e-06 4.342680e-05)
0.521676      	(-1.032881e-03 -2.606401e-04 2.398500e+03)	(-1.026133e-03 -2.631577e-04 2.398500e+03)	(-6.748370e-06 2.517636e-06 4.363530e-05)
0.524457      	(-1.050215e-03 -2.690491e-04 2.398500e+03)	(-1.043323e-03 -2.716116e-04 2.398500e+03)	(-6.892111e-06 2.562423e-06 4.386614e-05)
0.527565      	(-1.069962e-03 -2.789495e-04 2.398500e+03)	(-1.062907e-03 -2.815622e-04 2.398500e+03)	(-7.055075e-06 2.612705e-06 4.412204e-05)
0.531039      	(-1.092109e-03 -2.901730e-04 2.398500e+03)	(-1.084869e-03 -2.928421e-04 2.398500e+03)	(-7.240142e-06 2.669140e-06 4.440307e-05)
0.534914      	(-1.116923e-03 -3.028352e-04 2.398500e+03)	(-1.109473e-03 -3.055674e-04 2.398500e+03)	(-7.450361e-06 2.732293e-06 4.470723e-05)
0.53903       	(-1.143659e-03 -3.170822e-04 2.398500e+03)	(-1.135982e-03 -3.198817e-04 2.398500e+03)	(-7.677732e-06 2.799493e-06 4.501634e-05)
0.543463      	(-1.173034e-03 -3.334074e-04 2.398501e+03)	(-1.165107e-03 -3.362792e-04 2.398501e+03)	(-7.927449e-06 2.871822e-06 4.532942e-05)
0.548028      	(-1.204168e-03 -3.512674e-04 2.398501e+03)	(-1.195979e-03 -3.542136e-04 2.398501e+03)	(-8.189796e-06 2.946227e-06 4.562756e-05)
0.55264       	(-1.235472e-03 -3.694621e-04 2.398501e+03)	(-1.227012e-03 -3.724834e-04 2.398501e+03)	(-8.459967e-06 3.021251e-06 4.590301e-05)
0.557252      	(-1.266995e-03 -3.884980e-04 2.398501e+03)	(-1.258260e-03 -3.915939e-04 2.398501e+03)	(-8.735179e-06 3.095916e-06 4.615589e-05)
0.561912      	(-1.299443e-03 -4.092484e-04 2.398501e+03)	(-1.290424e-03 -4.124190e-04 2.398501e+03)	(-9.018366e-06 3.170599e-06 4.639457e-05)
0.566166      	(-1.329863e-03 -4.290656e-04 2.398501e+03)	(-1.320582e-03 -4.323038e-04 2.398501e+03)	(-9.281077e-06 3.238130e-06 4.660404e-05)
0.570039      	(-1.357489e-03 -4.478254e-04 2.398501e+03)	(-1.347965e-03 -4.511243e-04 2.398501e+03)	(-9.523785e-06 3.298885e-06 4.679120e-05)
0.573622      	(-1.383343e-03 -4.659173e-04 2.398501e+03)	(-1.373592e-03 -4.692716e-04 2.398501e+03)	(-9.751213e-06 3.354291e-06 4.696322e-05)
0.577033      	(-1.407180e-03 -4.829187e-04 2.398501e+03)	(-1.397210e-03 -4.863249e-04 2.398501e+03)	(-9.970264e-06 3.406243e-06 4.712749e-05)
0.580417      	(-1.430341e-03 -4.998678e-04 2.398501e+03)	(-1.420152e-03 -5.033247e-04 2.398501e+03)	(-1.018989e-05 3.456962e-06 4.729244e-05)
0.583774      	(-1.453754e-03 -5.176260e-04 2.398501e+03)	(-1.443344e-03 -5.211323e-04 2.398501e+03)	(-1.040995e-05 3.506371e-06 4.745920e-05)
0.587103      	(-1.476707e-03 -5.357452e-04 2.398501e+03)	(-1.466077e-03 -5.392996e-04 2.398501e+03)	(-1.063031e-05 3.554382e-06 4.762847e-05)
0.590433      	(-1.499980e-03 -5.545310e-04 2.398501e+03)	(-1.489128e-03 -5.581322e-04 2.398501e+03)	(-1.085269e-05 3.601263e-06 4.780175e-05)
0.593763      	(-1.522569e-03 -5.730926e-04 2.398501e+03)	(-1.511492e-03 -5.767396e-04 2.398501e+03)	(-1.107695e-05 3.646979e-06 4.797891e-05)
0.597039      	(-1.544864e-03 -5.921520e-04 2.398501e+03)	(-1.533564e-03 -5.958427e-04 2.398501e+03)	(-1.129934e-05 3.690679e-06 4.815679e-05)
0.600263      	(-1.566397e-03 -6.108804e-04 2.398501e+03)	(-1.554878e-03 -6.146128e-04 2.398501e+03)	(-1.151977e-05 3.732423e-06 4.833489e-05)
0.603486      	(-1.587669e-03 -6.298578e-04 2.398501e+03)	(-1.575927e-03 -6.336306e-04 2.398501e+03)	(-1.174177e-05 3.772765e-06 4.851573e-05)
0.606684      	(-1.608887e-03 -6.494693e-04 2.398501e+03)	(-1.596923e-03 -6.532807e-04 2.398501e+03)	(-1.196338e-05 3.811331e-06 4.869783e-05)
0.609831      	(-1.629426e-03 -6.689268e-04 2.398501e+03)	(-1.617244e-03 -6.727746e-04 2.398501e+03)	(-1.218270e-05 3.847804e-06 4.887945e-05)
0.612832      	(-1.649551e-03 -6.884885e-04 2.398501e+03)	(-1.637158e-03 -6.923697e-04 2.398501e+03)	(-1.239305e-05 3.881150e-06 4.905487e-05)
0.615743      	(-1.668740e-03 -7.076589e-04 2.398501e+03)	(-1.656142e-03 -7.115709e-04 2.398501e+03)	(-1.259804e-05 3.912069e-06 4.922671e-05)
0.618589      	(-1.687513e-03 -7.270043e-04 2.398502e+03)	(-1.674713e-03 -7.309452e-04 2.398501e+03)	(-1.279931e-05 3.940856e-06 4.939629e-05)
0.621373      	(-1.705938e-03 -7.462297e-04 2.398502e+03)	(-1.692941e-03 -7.501972e-04 2.398502e+03)	(-1.299697e-05 3.967564e-06 4.956342e-05)
0.624117      	(-1.723402e-03 -7.651656e-04 2.398502e+03)	(-1.710210e-03 -7.691581e-04 2.398502e+03)	(-1.319238e-05 3.992450e-06 4.972917e-05)
0.626802      	(-1.740792e-03 -7.844011e-04 2.398502e+03)	(-1.727408e-03 -7.884165e-04 2.398502e+03)	(-1.338417e-05 4.015343e-06 4.989227e-05)
0.629506      	(-1.757047e-03 -8.029949e-04 2.398502e+03)	(-1.743469e-03 -8.070318e-04 2.398502e+03)	(-1.357777e-05 4.036922e-06 5.005709e-05)
0.632251      	(-1.774223e-03 -8.231294e-04 2.398502e+03)	(-1.760448e-03 -8.271866e-04 2.398502e+03)	(-1.377463e-05 4.057155e-06 5.022483e-05)
0.635037      	(-1.790974e-03 -8.434012e-04 2.398502e+03)	(-1.776999e-03 -8.474772e-04 2.398502e+03)	(-1.397475e-05 4.075950e-06 5.039579e-05)
0.637888      	(-1.807046e-03 -8.640179e-04 2.398502e+03)	(-1.792867e-03 -8.681112e-04 2.398502e+03)	(-1.417964e-05 4.093302e-06 5.057115e-05)
0.640611      	(-1.823454e-03 -8.851373e-04 2.398502e+03)	(-1.809078e-03 -8.892453e-04 2.398502e+03)	(-1.437547e-05 4.107989e-06 5.073945e-05)
0.643354      	(-1.837490e-03 -9.047363e-04 2.398502e+03)	(-1.822917e-03 -9.088571e-04 2.398502e+03)	(-1.457275e-05 4.120834e-06 5.090927e-05)
0.646119      	(-1.852397e-03 -9.255267e-04 2.398502e+03)	(-1.837625e-03 -9.296584e-04 2.398502e+03)	(-1.477144e-05 4.131748e-06 5.108088e-05)
0.648841      	(-1.866671e-03 -9.461966e-04 2.398502e+03)	(-1.851704e-03 -9.503370e-04 2.398502e+03)	(-1.496692e-05 4.140449e-06 5.125041e-05)
0.651842      	(-1.879947e-03 -9.673644e-04 2.398502e+03)	(-1.864765e-03 -9.715120e-04 2.398502e+03)	(-1.518186e-05 4.147556e-06 5.143720e-05)
0.654896      	(-1.894629e-03 -9.906570e-04 2.398502e+03)	(-1.879228e-03 -9.948090e-04 2.398502e+03)	(-1.540002e-05 4.152068e-06 5.162825e-05)
0.658034      	(-1.908247e-03 -1.014356e-03 2.398502e+03)	(-1.892624e-03 -1.018509e-03 2.398502e+03)	(-1.562328e-05 4.153682e-06 5.182566e-05)
0.66123       	(-1.921478e-03 -1.038979e-03 2.398502e+03)	(-1.905628e-03 -1.043131e-03 2.398502e+03)	(-1.584966e-05 4.152003e-06 5.202835e-05)
0.664796      	(-1.934004e-03 -1.065003e-03 2.398502e+03)	(-1.917904e-03 -1.069149e-03 2.398502e+03)	(-1.610056e-05 4.146009e-06 5.225577e-05)
0.668562      	(-1.946917e-03 -1.093512e-03 2.398502e+03)	(-1.930554e-03 -1.097647e-03 2.398502e+03)	(-1.636348e-05 4.134827e-06 5.249897e-05)
0.671876      	(-1.959582e-03 -1.121592e-03 2.398502e+03)	(-1.942989e-03 -1.125713e-03 2.398502e+03)	(-1.659322e-05 4.120804e-06 5.271818e-05)
0.675093      	(-1.968528e-03 -1.146694e-03 2.398502e+03)	(-1.951714e-03 -1.150798e-03 2.398502e+03)	(-1.681422e-05 4.103190e-06 5.293433e-05)
0.678443      	(-1.975058e-03 -1.171488e-03 2.398502e+03)	(-1.958017e-03 -1.175568e-03 2.398502e+03)	(-1.704167e-05 4.080465e-06 5.316230e-05)
0.6819        	(-1.981328e-03 -1.197853e-03 2.398502e+03)	(-1.964055e-03 -1.201905e-03 2.398502e+03)	(-1.727336e-05 4.052151e-06 5.340162e-05)
0.685396      	(-1.985863e-03 -1.224255e-03 2.398503e+03)	(-1.968359e-03 -1.228273e-03 2.398502e+03)	(-1.750405e-05 4.018405e-06 5.364838e-05)
0.689097      	(-1.988186e-03 -1.251508e-03 2.398503e+03)	(-1.970442e-03 -1.255485e-03 2.398503e+03)	(-1.774377e-05 3.976791e-06 5.391435e-05)
0.692712      	(-1.989283e-03 -1.278895e-03 2.398503e+03)	(-1.971310e-03 -1.282825e-03 2.398503e+03)	(-1.797320e-05 3.930243e-06 5.418041e-05)
0.696703      	(-1.985328e-03 -1.306007e-03 2.398503e+03)	(-1.967108e-03 -1.309878e-03 2.398503e+03)	(-1.821985e-05 3.871637e-06 5.447875e-05)
0.700694      	(-1.979233e-03 -1.333389e-03 2.398503e+03)	(-1.960774e-03 -1.337194e-03 2.398503e+03)	(-1.845925e-05 3.805488e-06 5.478410e-05)
0.704851      	(-1.968293e-03 -1.360335e-03 2.398503e+03)	(-1.949594e-03 -1.364063e-03 2.398503e+03)	(-1.869983e-05 3.728102e-06 5.510814e-05)
0.70895       	(-1.952408e-03 -1.385378e-03 2.398503e+03)	(-1.933480e-03 -1.389022e-03 2.398503e+03)	(-1.892730e-05 3.643203e-06 5.543478e-05)
0.713294      	(-1.930817e-03 -1.409619e-03 2.398503e+03)	(-1.911660e-03 -1.413162e-03 2.398503e+03)	(-1.915637e-05 3.543486e-06 5.578646e-05)