# Moment bins 
# bins        : 20
# start       : -2.376912e-01
# end         : 2.377387e-01
# delta       : 2.377150e-02
# direction   : (1.000000e+00 0.000000e+00 0.000000e+00)
# x co-ords  :	-2.139197e-01	-1.901482e-01	-1.663767e-01	-1.426052e-01	-1.188337e-01	-9.506221e-02	-7.129072e-02	-4.751922e-02	-2.374773e-02	2.376745e-05	2.379526e-02	4.756676e-02	7.133825e-02	9.510975e-02	1.188812e-01	1.426527e-01	1.664242e-01	1.901957e-01	2.139672e-01	2.377387e-01
# y co-ords  :	-0.000000e+00	-0.000000e+00	-0.000000e+00	-0.000000e+00	-0.000000e+00	-0.000000e+00	-0.000000e+00	-0.000000e+00	-0.000000e+00	0.000000e+00	0.000000e+00	0.000000e+00	0.000000e+00	0.000000e+00	0.000000e+00	0.000000e+00	0.000000e+00	0.000000e+00	0.000000e+00	0.000000e+00
# z co-ords  :	-0.000000e+00	-0.000000e+00	-0.000000e+00	-0.000000e+00	-0.000000e+00	-0.000000e+00	-0.000000e+00	-0.000000e+00	-0.000000e+00	0.000000e+00	0.000000e+00	0.000000e+00	0.000000e+00	0.000000e+00	0.000000e+00	0.000000e+00	0.000000e+00	0.000000e+00	0.000000e+00	0.000000e+00
#
# Time        	0:(total_x total_y total_z)	0:(pressure_x pressure_y pressure_z)	0:(viscous_x viscous_y viscous_z)	1:(total_x total_y total_z)	1:(pressure_x pressure_y pressure_z)	1:(viscous_x viscous_y viscous_z)	2:(total_x total_y total_z)	2:(pressure_x pressure_y pressure_z)	2:(viscous_x viscous_y viscous_z)	3:(total_x total_y total_z)	3:(pressure_x pressure_y pressure_z)	3:(viscous_x viscous_y viscous_z)	4:(total_x total_y total_z)	4:(pressure_x pressure_y pressure_z)	4:(viscous_x viscous_y viscous_z)	5:(total_x total_y total_z)	5:(pressure_x pressure_y pressure_z)	5:(viscous_x viscous_y viscous_z)	6:(total_x total_y total_z)	6:(pressure_x pressure_y pressure_z)	6:(viscous_x viscous_y viscous_z)	7:(total_x total_y total_z)	7:(pressure_x pressure_y pressure_z)	7:(viscous_x viscous_y viscous_z)	8:(total_x total_y total_z)	8:(pressure_x pressure_y pressure_z)	8:(viscous_x viscous_y viscous_z)	9:(total_x total_y total_z)	9:(pressure_x pressure_y pressure_z)	9:(viscous_x viscous_y viscous_z)	10:(total_x total_y total_z)	10:(pressure_x pressure_y pressure_z)	10:(viscous_x viscous_y viscous_z)	11:(total_x total_y total_z)	11:(pressure_x pressure_y pressure_z)	11:(viscous_x viscous_y viscous_z)	12:(total_x total_y total_z)	12:(pressure_x pressure_y pressure_z)	12:(viscous_x viscous_y viscous_z)	13:(total_x total_y total_z)	13:(pressure_x pressure_y pressure_z)	13:(viscous_x viscous_y viscous_z)	14:(total_x total_y total_z)	14:(pressure_x pressure_y pressure_z)	14:(viscous_x viscous_y viscous_z)	15:(total_x total_y total_z)	15:(pressure_x pressure_y pressure_z)	15:(viscous_x viscous_y viscous_z)	16:(total_x total_y total_z)	16:(pressure_x pressure_y pressure_z)	16:(viscous_x viscous_y viscous_z)	17:(total_x total_y total_z)	17:(pressure_x pressure_y pressure_z)	17:(viscous_x viscous_y viscous_z)	18:(total_x total_y total_z)	18:(pressure_x pressure_y pressure_z)	18:(viscous_x viscous_y viscous_z)	19:(total_x total_y total_z)	19:(pressure_x pressure_y pressure_z)	19:(viscous_x viscous_y viscous_z)
4001          	(-7.541305e-01 -9.013076e+00 7.284575e+00)	(-7.541173e-01 -9.013030e+00 7.284613e+00)	(-1.317344e-05 -4.565234e-05 -3.846823e-05)	(-1.608573e+00 -1.389626e+01 6.546654e+00)	(-1.608560e+00 -1.389623e+01 6.546691e+00)	(-1.287820e-05 -3.503079e-05 -3.681029e-05)	(-2.362448e+00 -1.816055e+01 5.715989e+00)	(-2.362435e+00 -1.816052e+01 5.716026e+00)	(-1.277784e-05 -2.962017e-05 -3.654324e-05)	(-3.017274e+00 -2.184285e+01 4.851006e+00)	(-3.017262e+00 -2.184282e+01 4.851041e+00)	(-1.255445e-05 -2.539582e-05 -3.498697e-05)	(-3.559748e+00 -2.496563e+01 4.078739e+00)	(-3.559736e+00 -2.496561e+01 4.078771e+00)	(-1.228579e-05 -2.193584e-05 -3.286637e-05)	(-4.009346e+00 -2.750489e+01 3.264086e+00)	(-4.009334e+00 -2.750487e+01 3.264117e+00)	(-1.201941e-05 -1.919235e-05 -3.068350e-05)	(-4.362761e+00 -2.948443e+01 2.430758e+00)	(-4.362750e+00 -2.948442e+01 2.430786e+00)	(-1.175862e-05 -1.684597e-05 -2.848049e-05)	(-4.616031e+00 -3.090259e+01 1.603837e+00)	(-4.616020e+00 -3.090257e+01 1.603864e+00)	(-1.150189e-05 -1.469831e-05 -2.622922e-05)	(-4.762255e+00 -3.175046e+01 7.971020e-01)	(-4.762244e+00 -3.175044e+01 7.971259e-01)	(-1.124640e-05 -1.266839e-05 -2.390155e-05)	(-4.812773e+00 -3.203329e+01 -1.715744e-02)	(-4.812762e+00 -3.203328e+01 -1.713595e-02)	(-1.098955e-05 -1.070094e-05 -2.148185e-05)	(-4.762147e+00 -3.175060e+01 -8.346963e-01)	(-4.762136e+00 -3.175059e+01 -8.346773e-01)	(-1.073097e-05 -8.759992e-06 -1.895454e-05)	(-4.615811e+00 -3.090090e+01 -1.639032e+00)	(-4.615800e+00 -3.090089e+01 -1.639016e+00)	(-1.046582e-05 -6.816830e-06 -1.631054e-05)	(-4.360775e+00 -2.948310e+01 -2.465253e+00)	(-4.360765e+00 -2.948309e+01 -2.465240e+00)	(-1.018737e-05 -4.833136e-06 -1.353201e-05)	(-4.011938e+00 -2.751034e+01 -3.296992e+00)	(-4.011928e+00 -2.751034e+01 -3.296981e+00)	(-9.895493e-06 -2.779264e-06 -1.059616e-05)	(-3.562765e+00 -2.496805e+01 -4.107419e+00)	(-3.562756e+00 -2.496805e+01 -4.107411e+00)	(-9.582215e-06 -6.101021e-07 -7.493423e-06)	(-3.023136e+00 -2.184310e+01 -4.861433e+00)	(-3.023126e+00 -2.184310e+01 -4.861429e+00)	(-9.236251e-06 1.745949e-06 -4.209874e-06)	(-2.370090e+00 -1.815800e+01 -5.691392e+00)	(-2.370082e+00 -1.815801e+01 -5.691392e+00)	(-8.839816e-06 4.407860e-06 -6.732910e-07)	(-1.625948e+00 -1.389239e+01 -6.461093e+00)	(-1.625940e+00 -1.389240e+01 -6.461096e+00)	(-8.382384e-06 7.440036e-06 3.276227e-06)	(-7.617279e-01 -9.009009e+00 -7.268567e+00)	(-7.617201e-01 -9.009020e+00 -7.268575e+00)	(-7.858707e-06 1.086637e-05 8.045853e-06)	(-4.448492e-03 2.071308e-03 -1.011910e-02)	(-4.441393e-03 2.056436e-03 -1.013031e-02)	(-7.098806e-06 1.487184e-05 1.121039e-05)
4002          	(-7.541305e-01 -9.013076e+00 7.284574e+00)	(-7.541173e-01 -9.013030e+00 7.284613e+00)	(-1.317705e-05 -4.566627e-05 -3.849210e-05)	(-1.608573e+00 -1.389626e+01 6.546656e+00)	(-1.608560e+00 -1.389622e+01 6.546693e+00)	(-1.287965e-05 -3.501923e-05 -3.682564e-05)	(-2.362448e+00 -1.816055e+01 5.715989e+00)	(-2.362436e+00 -1.816052e+01 5.716025e+00)	(-1.277477e-05 -2.962217e-05 -3.652943e-05)	(-3.017274e+00 -2.184285e+01 4.851006e+00)	(-3.017262e+00 -2.184282e+01 4.851041e+00)	(-1.255619e-05 -2.540359e-05 -3.499528e-05)	(-3.559748e+00 -2.496563e+01 4.078738e+00)	(-3.559736e+00 -2.496561e+01 4.078771e+00)	(-1.228583e-05 -2.194155e-05 -3.286794e-05)	(-4.009346e+00 -2.750489e+01 3.264086e+00)	(-4.009334e+00 -2.750487e+01 3.264117e+00)	(-1.201963e-05 -1.919654e-05 -3.068561e-05)	(-4.362761e+00 -2.948443e+01 2.430758e+00)	(-4.362750e+00 -2.948442e+01 2.430787e+00)	(-1.175906e-05 -1.685058e-05 -2.848342e-05)	(-4.616031e+00 -3.090259e+01 1.603838e+00)	(-4.616020e+00 -3.090257e+01 1.603864e+00)	(-1.150208e-05 -1.470248e-05 -2.623189e-05)	(-4.762255e+00 -3.175046e+01 7.971022e-01)	(-4.762244e+00 -3.175044e+01 7.971261e-01)	(-1.124665e-05 -1.267235e-05 -2.390433e-05)	(-4.812773e+00 -3.203329e+01 -1.715727e-02)	(-4.812762e+00 -3.203328e+01 -1.713579e-02)	(-1.098985e-05 -1.070502e-05 -2.148475e-05)	(-4.762147e+00 -3.175060e+01 -8.346961e-01)	(-4.762136e+00 -3.175059e+01 -8.346771e-01)	(-1.073120e-05 -8.764002e-06 -1.895729e-05)	(-4.615811e+00 -3.090090e+01 -1.639032e+00)	(-4.615800e+00 -3.090089e+01 -1.639016e+00)	(-1.046614e-05 -6.821191e-06 -1.631301e-05)	(-4.360775e+00 -2.948310e+01 -2.465253e+00)	(-4.360765e+00 -2.948309e+01 -2.465240e+00)	(-1.018774e-05 -4.837930e-06 -1.353422e-05)	(-4.011938e+00 -2.751034e+01 -3.296992e+00)	(-4.011928e+00 -2.751034e+01 -3.296981e+00)	(-9.895867e-06 -2.784278e-06 -1.059842e-05)	(-3.562765e+00 -2.496805e+01 -4.107419e+00)	(-3.562756e+00 -2.496805e+01 -4.107411e+00)	(-9.582583e-06 -6.150388e-07 -7.495913e-06)	(-3.023136e+00 -2.184310e+01 -4.861433e+00)	(-3.023126e+00 -2.184310e+01 -4.861429e+00)	(-9.236612e-06 1.741271e-06 -4.212668e-06)	(-2.370090e+00 -1.815800e+01 -5.691392e+00)	(-2.370082e+00 -1.815801e+01 -5.691391e+00)	(-8.840164e-06 4.403249e-06 -6.762901e-07)	(-1.625948e+00 -1.389239e+01 -6.461093e+00)	(-1.625940e+00 -1.389240e+01 -6.461096e+00)	(-8.382743e-06 7.434976e-06 3.273074e-06)	(-7.617279e-01 -9.009009e+00 -7.268567e+00)	(-7.617201e-01 -9.009020e+00 -7.268575e+00)	(-7.859084e-06 1.086095e-05 8.042326e-06)	(-4.448502e-03 2.071152e-03 -1.011868e-02)	(-4.441403e-03 2.056283e-03 -1.012989e-02)	(-7.099396e-06 1.486938e-05 1.121233e-05)
4003          	(-7.541305e-01 -9.013076e+00 7.284574e+00)	(-7.541174e-01 -9.013030e+00 7.284612e+00)	(-1.318007e-05 -4.567472e-05 -3.851607e-05)	(-1.608572e+00 -1.389626e+01 6.546658e+00)	(-1.608559e+00 -1.389622e+01 6.546695e+00)	(-1.287986e-05 -3.500923e-05 -3.683341e-05)	(-2.362449e+00 -1.816055e+01 5.715988e+00)	(-2.362436e+00 -1.816052e+01 5.716024e+00)	(-1.277214e-05 -2.962891e-05 -3.651645e-05)	(-3.017274e+00 -2.184285e+01 4.851006e+00)	(-3.017262e+00 -2.184282e+01 4.851041e+00)	(-1.255794e-05 -2.541243e-05 -3.500322e-05)	(-3.559748e+00 -2.496563e+01 4.078738e+00)	(-3.559736e+00 -2.496561e+01 4.078771e+00)	(-1.228586e-05 -2.194921e-05 -3.286883e-05)	(-4.009346e+00 -2.750489e+01 3.264086e+00)	(-4.009334e+00 -2.750487e+01 3.264117e+00)	(-1.201982e-05 -1.920310e-05 -3.068717e-05)	(-4.362761e+00 -2.948443e+01 2.430758e+00)	(-4.362750e+00 -2.948442e+01 2.430787e+00)	(-1.175949e-05 -1.685716e-05 -2.848574e-05)	(-4.616031e+00 -3.090259e+01 1.603838e+00)	(-4.616020e+00 -3.090257e+01 1.603864e+00)	(-1.150227e-05 -1.470885e-05 -2.623408e-05)	(-4.762255e+00 -3.175046e+01 7.971024e-01)	(-4.762244e+00 -3.175044e+01 7.971263e-01)	(-1.124688e-05 -1.267840e-05 -2.390657e-05)	(-4.812773e+00 -3.203329e+01 -1.715711e-02)	(-4.812762e+00 -3.203328e+01 -1.713562e-02)	(-1.099014e-05 -1.071120e-05 -2.148712e-05)	(-4.762147e+00 -3.175060e+01 -8.346959e-01)	(-4.762136e+00 -3.175059e+01 -8.346770e-01)	(-1.073143e-05 -8.770103e-06 -1.895951e-05)	(-4.615811e+00 -3.090090e+01 -1.639032e+00)	(-4.615800e+00 -3.090089e+01 -1.639016e+00)	(-1.046644e-05 -6.827611e-06 -1.631498e-05)	(-4.360775e+00 -2.948310e+01 -2.465253e+00)	(-4.360765e+00 -2.948309e+01 -2.465239e+00)	(-1.018810e-05 -4.844791e-06 -1.353590e-05)	(-4.011938e+00 -2.751034e+01 -3.296991e+00)	(-4.011928e+00 -2.751034e+01 -3.296981e+00)	(-9.896231e-06 -2.791380e-06 -1.060012e-05)	(-3.562765e+00 -2.496805e+01 -4.107419e+00)	(-3.562755e+00 -2.496805e+01 -4.107411e+00)	(-9.582934e-06 -6.220475e-07 -7.497859e-06)	(-3.023135e+00 -2.184310e+01 -4.861433e+00)	(-3.023126e+00 -2.184310e+01 -4.861429e+00)	(-9.236952e-06 1.734522e-06 -4.214952e-06)	(-2.370090e+00 -1.815800e+01 -5.691392e+00)	(-2.370082e+00 -1.815801e+01 -5.691391e+00)	(-8.840493e-06 4.396546e-06 -6.788009e-07)	(-1.625948e+00 -1.389239e+01 -6.461093e+00)	(-1.625940e+00 -1.389240e+01 -6.461096e+00)	(-8.383082e-06 7.427832e-06 3.270396e-06)	(-7.617279e-01 -9.009009e+00 -7.268567e+00)	(-7.617200e-01 -9.009020e+00 -7.268575e+00)	(-7.859434e-06 1.085352e-05 8.039250e-06)	(-4.448476e-03 2.071011e-03 -1.011836e-02)	(-4.441376e-03 2.056146e-03 -1.012957e-02)	(-7.099942e-06 1.486495e-05 1.121461e-05)
4004          	(-7.541305e-01 -9.013075e+00 7.284573e+00)	(-7.541174e-01 -9.013030e+00 7.284612e+00)	(-1.318239e-05 -4.567699e-05 -3.853920e-05)	(-1.608572e+00 -1.389626e+01 6.546659e+00)	(-1.608559e+00 -1.389622e+01 6.546696e+00)	(-1.287891e-05 -3.500156e-05 -3.683368e-05)	(-2.362449e+00 -1.816055e+01 5.715986e+00)	(-2.362436e+00 -1.816052e+01 5.716023e+00)	(-1.277019e-05 -2.963990e-05 -3.650571e-05)	(-3.017274e+00 -2.184285e+01 4.851006e+00)	(-3.017262e+00 -2.184282e+01 4.851041e+00)	(-1.255970e-05 -2.542184e-05 -3.501091e-05)	(-3.559748e+00 -2.496563e+01 4.078738e+00)	(-3.559736e+00 -2.496561e+01 4.078771e+00)	(-1.228596e-05 -2.195841e-05 -3.286955e-05)	(-4.009346e+00 -2.750489e+01 3.264086e+00)	(-4.009334e+00 -2.750487e+01 3.264117e+00)	(-1.202008e-05 -1.921167e-05 -3.068859e-05)	(-4.362761e+00 -2.948443e+01 2.430758e+00)	(-4.362749e+00 -2.948442e+01 2.430787e+00)	(-1.175999e-05 -1.686534e-05 -2.848783e-05)	(-4.616031e+00 -3.090259e+01 1.603838e+00)	(-4.616020e+00 -3.090257e+01 1.603864e+00)	(-1.150255e-05 -1.471706e-05 -2.623613e-05)	(-4.762255e+00 -3.175046e+01 7.971024e-01)	(-4.762244e+00 -3.175044e+01 7.971264e-01)	(-1.124715e-05 -1.268620e-05 -2.390859e-05)	(-4.812773e+00 -3.203329e+01 -1.715701e-02)	(-4.812762e+00 -3.203328e+01 -1.713552e-02)	(-1.099048e-05 -1.071912e-05 -2.148928e-05)	(-4.762147e+00 -3.175060e+01 -8.346958e-01)	(-4.762136e+00 -3.175059e+01 -8.346769e-01)	(-1.073171e-05 -8.777960e-06 -1.896154e-05)	(-4.615810e+00 -3.090090e+01 -1.639032e+00)	(-4.615800e+00 -3.090089e+01 -1.639015e+00)	(-1.046679e-05 -6.835746e-06 -1.631675e-05)	(-4.360775e+00 -2.948310e+01 -2.465253e+00)	(-4.360765e+00 -2.948309e+01 -2.465239e+00)	(-1.018851e-05 -4.853362e-06 -1.353739e-05)	(-4.011938e+00 -2.751034e+01 -3.296991e+00)	(-4.011928e+00 -2.751034e+01 -3.296981e+00)	(-9.896656e-06 -2.800220e-06 -1.060158e-05)	(-3.562765e+00 -2.496805e+01 -4.107419e+00)	(-3.562755e+00 -2.496805e+01 -4.107411e+00)	(-9.583344e-06 -6.307912e-07 -7.499553e-06)	(-3.023135e+00 -2.184310e+01 -4.861433e+00)	(-3.023126e+00 -2.184310e+01 -4.861429e+00)	(-9.237353e-06 1.726024e-06 -4.216996e-06)	(-2.370090e+00 -1.815800e+01 -5.691392e+00)	(-2.370081e+00 -1.815801e+01 -5.691391e+00)	(-8.840880e-06 4.388094e-06 -6.810907e-07)	(-1.625948e+00 -1.389239e+01 -6.461093e+00)	(-1.625940e+00 -1.389240e+01 -6.461096e+00)	(-8.383479e-06 7.418949e-06 3.267924e-06)	(-7.617278e-01 -9.009010e+00 -7.268567e+00)	(-7.617200e-01 -9.009020e+00 -7.268575e+00)	(-7.859832e-06 1.084442e-05 8.036357e-06)	(-4.448440e-03 2.070896e-03 -1.011816e-02)	(-4.441339e-03 2.056037e-03 -1.012938e-02)	(-7.100508e-06 1.485899e-05 1.121690e-05)
4005          	(-7.541305e-01 -9.013075e+00 7.284573e+00)	(-7.541173e-01 -9.013029e+00 7.284612e+00)	(-1.318393e-05 -4.567280e-05 -3.856056e-05)	(-1.608572e+00 -1.389626e+01 6.546661e+00)	(-1.608559e+00 -1.389622e+01 6.546698e+00)	(-1.287691e-05 -3.499697e-05 -3.682662e-05)	(-2.362449e+00 -1.816055e+01 5.715985e+00)	(-2.362436e+00 -1.816052e+01 5.716022e+00)	(-1.276914e-05 -2.965451e-05 -3.649826e-05)	(-3.017274e+00 -2.184285e+01 4.851006e+00)	(-3.017261e+00 -2.184282e+01 4.851041e+00)	(-1.256142e-05 -2.543126e-05 -3.501823e-05)	(-3.559748e+00 -2.496563e+01 4.078738e+00)	(-3.559736e+00 -2.496561e+01 4.078771e+00)	(-1.228621e-05 -2.196868e-05 -3.287043e-05)	(-4.009346e+00 -2.750489e+01 3.264086e+00)	(-4.009334e+00 -2.750487e+01 3.264117e+00)	(-1.202046e-05 -1.922178e-05 -3.069018e-05)	(-4.362761e+00 -2.948443e+01 2.430759e+00)	(-4.362749e+00 -2.948442e+01 2.430787e+00)	(-1.176060e-05 -1.687465e-05 -2.848998e-05)	(-4.616031e+00 -3.090259e+01 1.603838e+00)	(-4.616020e+00 -3.090257e+01 1.603864e+00)	(-1.150296e-05 -1.472664e-05 -2.623838e-05)	(-4.762255e+00 -3.175046e+01 7.971026e-01)	(-4.762244e+00 -3.175044e+01 7.971265e-01)	(-1.124753e-05 -1.269530e-05 -2.391077e-05)	(-4.812773e+00 -3.203329e+01 -1.715685e-02)	(-4.812762e+00 -3.203328e+01 -1.713536e-02)	(-1.099094e-05 -1.072832e-05 -2.149162e-05)	(-4.762147e+00 -3.175060e+01 -8.346957e-01)	(-4.762136e+00 -3.175059e+01 -8.346767e-01)	(-1.073211e-05 -8.787105e-06 -1.896377e-05)	(-4.615810e+00 -3.090090e+01 -1.639032e+00)	(-4.615800e+00 -3.090089e+01 -1.639015e+00)	(-1.046725e-05 -6.845126e-06 -1.631874e-05)	(-4.360775e+00 -2.948310e+01 -2.465253e+00)	(-4.360765e+00 -2.948309e+01 -2.465239e+00)	(-1.018903e-05 -4.863185e-06 -1.353907e-05)	(-4.011938e+00 -2.751034e+01 -3.296991e+00)	(-4.011928e+00 -2.751034e+01 -3.296981e+00)	(-9.897202e-06 -2.810333e-06 -1.060322e-05)	(-3.562765e+00 -2.496805e+01 -4.107418e+00)	(-3.562755e+00 -2.496805e+01 -4.107411e+00)	(-9.583881e-06 -6.408317e-07 -7.501402e-06)	(-3.023135e+00 -2.184310e+01 -4.861433e+00)	(-3.023126e+00 -2.184310e+01 -4.861429e+00)	(-9.237880e-06 1.716231e-06 -4.219191e-06)	(-2.370090e+00 -1.815800e+01 -5.691392e+00)	(-2.370081e+00 -1.815801e+01 -5.691391e+00)	(-8.841389e-06 4.378353e-06 -6.835165e-07)	(-1.625948e+00 -1.389239e+01 -6.461093e+00)	(-1.625940e+00 -1.389240e+01 -6.461096e+00)	(-8.383996e-06 7.408792e-06 3.265302e-06)	(-7.617277e-01 -9.009010e+00 -7.268567e+00)	(-7.617199e-01 -9.009020e+00 -7.268575e+00)	(-7.860344e-06 1.083412e-05 8.033294e-06)	(-4.448366e-03 2.070806e-03 -1.011798e-02)	(-4.441264e-03 2.055954e-03 -1.012920e-02)	(-7.101167e-06 1.485189e-05 1.121887e-05)
4006          	(-7.541305e-01 -9.013075e+00 7.284573e+00)	(-7.541173e-01 -9.013029e+00 7.284611e+00)	(-1.318467e-05 -4.566281e-05 -3.857889e-05)	(-1.608571e+00 -1.389626e+01 6.546662e+00)	(-1.608559e+00 -1.389622e+01 6.546699e+00)	(-1.287398e-05 -3.499626e-05 -3.681230e-05)	(-2.362449e+00 -1.816055e+01 5.715984e+00)	(-2.362437e+00 -1.816052e+01 5.716020e+00)	(-1.276910e-05 -2.967245e-05 -3.649444e-05)	(-3.017274e+00 -2.184285e+01 4.851006e+00)	(-3.017261e+00 -2.184282e+01 4.851041e+00)	(-1.256308e-05 -2.544070e-05 -3.502471e-05)	(-3.559748e+00 -2.496563e+01 4.078738e+00)	(-3.559736e+00 -2.496561e+01 4.078771e+00)	(-1.228664e-05 -2.197990e-05 -3.287133e-05)	(-4.009346e+00 -2.750489e+01 3.264086e+00)	(-4.009334e+00 -2.750487e+01 3.264117e+00)	(-1.202099e-05 -1.923332e-05 -3.069177e-05)	(-4.362761e+00 -2.948443e+01 2.430759e+00)	(-4.362749e+00 -2.948442e+01 2.430787e+00)	(-1.176134e-05 -1.688499e-05 -2.849198e-05)	(-4.616031e+00 -3.090259e+01 1.603838e+00)	(-4.616019e+00 -3.090257e+01 1.603865e+00)	(-1.150354e-05 -1.473743e-05 -2.624062e-05)	(-4.762255e+00 -3.175046e+01 7.971030e-01)	(-4.762244e+00 -3.175044e+01 7.971269e-01)	(-1.124803e-05 -1.270554e-05 -2.391289e-05)	(-4.812772e+00 -3.203329e+01 -1.715650e-02)	(-4.812761e+00 -3.203328e+01 -1.713500e-02)	(-1.099153e-05 -1.073863e-05 -2.149391e-05)	(-4.762147e+00 -3.175060e+01 -8.346953e-01)	(-4.762136e+00 -3.175059e+01 -8.346763e-01)	(-1.073266e-05 -8.797385e-06 -1.896599e-05)	(-4.615810e+00 -3.090090e+01 -1.639031e+00)	(-4.615800e+00 -3.090089e+01 -1.639015e+00)	(-1.046784e-05 -6.855599e-06 -1.632073e-05)	(-4.360775e+00 -2.948310e+01 -2.465252e+00)	(-4.360765e+00 -2.948309e+01 -2.465239e+00)	(-1.018969e-05 -4.874111e-06 -1.354074e-05)	(-4.011938e+00 -2.751034e+01 -3.296991e+00)	(-4.011928e+00 -2.751034e+01 -3.296980e+00)	(-9.897903e-06 -2.821572e-06 -1.060481e-05)	(-3.562765e+00 -2.496805e+01 -4.107418e+00)	(-3.562755e+00 -2.496805e+01 -4.107411e+00)	(-9.584567e-06 -6.519799e-07 -7.503196e-06)	(-3.023135e+00 -2.184310e+01 -4.861433e+00)	(-3.023126e+00 -2.184310e+01 -4.861429e+00)	(-9.238559e-06 1.705313e-06 -4.221315e-06)	(-2.370090e+00 -1.815800e+01 -5.691392e+00)	(-2.370081e+00 -1.815801e+01 -5.691391e+00)	(-8.842055e-06 4.367460e-06 -6.858569e-07)	(-1.625948e+00 -1.389239e+01 -6.461093e+00)	(-1.625939e+00 -1.389240e+01 -6.461096e+00)	(-8.384671e-06 7.397497e-06 3.262757e-06)	(-7.617276e-01 -9.009010e+00 -7.268567e+00)	(-7.617197e-01 -9.009021e+00 -7.268575e+00)	(-7.861005e-06 1.082274e-05 8.030289e-06)	(-4.448224e-03 2.070747e-03 -1.011775e-02)	(-4.441122e-03 2.055904e-03 -1.012897e-02)	(-7.101954e-06 1.484373e-05 1.122072e-05)
4007          	(-7.541304e-01 -9.013073e+00 7.284572e+00)	(-7.541172e-01 -9.013028e+00 7.284611e+00)	(-1.318457e-05 -4.564754e-05 -3.859316e-05)	(-1.608571e+00 -1.389626e+01 6.546662e+00)	(-1.608558e+00 -1.389622e+01 6.546699e+00)	(-1.287025e-05 -3.499943e-05 -3.679120e-05)	(-2.362449e+00 -1.816055e+01 5.715982e+00)	(-2.362436e+00 -1.816052e+01 5.716019e+00)	(-1.277009e-05 -2.969274e-05 -3.649443e-05)	(-3.017273e+00 -2.184284e+01 4.851006e+00)	(-3.017261e+00 -2.184282e+01 4.851041e+00)	(-1.256458e-05 -2.544934e-05 -3.502992e-05)	(-3.559747e+00 -2.496563e+01 4.078738e+00)	(-3.559735e+00 -2.496561e+01 4.078771e+00)	(-1.228722e-05 -2.199118e-05 -3.287213e-05)	(-4.009345e+00 -2.750488e+01 3.264087e+00)	(-4.009333e+00 -2.750486e+01 3.264117e+00)	(-1.202164e-05 -1.924530e-05 -3.069324e-05)	(-4.362760e+00 -2.948443e+01 2.430760e+00)	(-4.362748e+00 -2.948441e+01 2.430788e+00)	(-1.176214e-05 -1.689534e-05 -2.849371e-05)	(-4.616030e+00 -3.090258e+01 1.603839e+00)	(-4.616019e+00 -3.090257e+01 1.603866e+00)	(-1.150421e-05 -1.474831e-05 -2.624274e-05)	(-4.762254e+00 -3.175045e+01 7.971041e-01)	(-4.762243e+00 -3.175044e+01 7.971280e-01)	(-1.124857e-05 -1.271576e-05 -2.391486e-05)	(-4.812771e+00 -3.203328e+01 -1.715527e-02)	(-4.812760e+00 -3.203327e+01 -1.713377e-02)	(-1.099213e-05 -1.074879e-05 -2.149606e-05)	(-4.762146e+00 -3.175059e+01 -8.346940e-01)	(-4.762135e+00 -3.175059e+01 -8.346750e-01)	(-1.073322e-05 -8.807445e-06 -1.896811e-05)	(-4.615809e+00 -3.090089e+01 -1.639030e+00)	(-4.615799e+00 -3.090089e+01 -1.639014e+00)	(-1.046841e-05 -6.865727e-06 -1.632266e-05)	(-4.360774e+00 -2.948309e+01 -2.465251e+00)	(-4.360764e+00 -2.948309e+01 -2.465237e+00)	(-1.019032e-05 -4.884558e-06 -1.354239e-05)	(-4.011937e+00 -2.751033e+01 -3.296989e+00)	(-4.011927e+00 -2.751033e+01 -3.296979e+00)	(-9.898550e-06 -2.832255e-06 -1.060638e-05)	(-3.562764e+00 -2.496805e+01 -4.107417e+00)	(-3.562754e+00 -2.496805e+01 -4.107409e+00)	(-9.585183e-06 -6.624863e-07 -7.504981e-06)	(-3.023134e+00 -2.184310e+01 -4.861432e+00)	(-3.023125e+00 -2.184310e+01 -4.861427e+00)	(-9.239142e-06 1.695167e-06 -4.223482e-06)	(-2.370089e+00 -1.815800e+01 -5.691391e+00)	(-2.370080e+00 -1.815800e+01 -5.691390e+00)	(-8.842602e-06 4.357453e-06 -6.883109e-07)	(-1.625947e+00 -1.389239e+01 -6.461091e+00)	(-1.625939e+00 -1.389240e+01 -6.461095e+00)	(-8.385204e-06 7.387201e-06 3.260034e-06)	(-7.617268e-01 -9.009008e+00 -7.268566e+00)	(-7.617190e-01 -9.009019e+00 -7.268574e+00)	(-7.861488e-06 1.081258e-05 8.027009e-06)	(-4.447551e-03 2.071847e-03 -1.011725e-02)	(-4.440449e-03 2.057010e-03 -1.012848e-02)	(-7.102457e-06 1.483709e-05 1.122169e-05)
4008          	(-7.541303e-01 -9.013073e+00 7.284572e+00)	(-7.541171e-01 -9.013028e+00 7.284611e+00)	(-1.318359e-05 -4.562785e-05 -3.860239e-05)	(-1.608571e+00 -1.389626e+01 6.546663e+00)	(-1.608558e+00 -1.389622e+01 6.546700e+00)	(-1.286581e-05 -3.500602e-05 -3.676417e-05)	(-2.362449e+00 -1.816055e+01 5.715981e+00)	(-2.362437e+00 -1.816052e+01 5.716018e+00)	(-1.277194e-05 -2.971388e-05 -3.649797e-05)	(-3.017273e+00 -2.184284e+01 4.851007e+00)	(-3.017261e+00 -2.184282e+01 4.851042e+00)	(-1.256576e-05 -2.545667e-05 -3.503340e-05)	(-3.559747e+00 -2.496563e+01 4.078739e+00)	(-3.559735e+00 -2.496561e+01 4.078772e+00)	(-1.228786e-05 -2.200192e-05 -3.287265e-05)	(-4.009345e+00 -2.750488e+01 3.264087e+00)	(-4.009333e+00 -2.750486e+01 3.264118e+00)	(-1.202231e-05 -1.925704e-05 -3.069433e-05)	(-4.362760e+00 -2.948443e+01 2.430760e+00)	(-4.362748e+00 -2.948441e+01 2.430789e+00)	(-1.176292e-05 -1.690523e-05 -2.849491e-05)	(-4.616030e+00 -3.090258e+01 1.603840e+00)	(-4.616018e+00 -3.090257e+01 1.603866e+00)	(-1.150491e-05 -1.475885e-05 -2.624443e-05)	(-4.762254e+00 -3.175045e+01 7.971047e-01)	(-4.762243e+00 -3.175044e+01 7.971286e-01)	(-1.124914e-05 -1.272567e-05 -2.391638e-05)	(-4.812771e+00 -3.203328e+01 -1.715468e-02)	(-4.812760e+00 -3.203327e+01 -1.713319e-02)	(-1.099276e-05 -1.075862e-05 -2.149776e-05)	(-4.762146e+00 -3.175059e+01 -8.346934e-01)	(-4.762135e+00 -3.175059e+01 -8.346744e-01)	(-1.073382e-05 -8.817216e-06 -1.896978e-05)	(-4.615809e+00 -3.090089e+01 -1.639029e+00)	(-4.615799e+00 -3.090089e+01 -1.639013e+00)	(-1.046902e-05 -6.875548e-06 -1.632413e-05)	(-4.360774e+00 -2.948309e+01 -2.465250e+00)	(-4.360764e+00 -2.948309e+01 -2.465237e+00)	(-1.019100e-05 -4.894715e-06 -1.354355e-05)	(-4.011937e+00 -2.751033e+01 -3.296989e+00)	(-4.011927e+00 -2.751033e+01 -3.296978e+00)	(-9.899272e-06 -2.842685e-06 -1.060744e-05)	(-3.562764e+00 -2.496805e+01 -4.107416e+00)	(-3.562754e+00 -2.496805e+01 -4.107409e+00)	(-9.585894e-06 -6.727999e-07 -7.506208e-06)	(-3.023134e+00 -2.184310e+01 -4.861431e+00)	(-3.023125e+00 -2.184310e+01 -4.861427e+00)	(-9.239838e-06 1.685147e-06 -4.225043e-06)	(-2.370089e+00 -1.815800e+01 -5.691390e+00)	(-2.370080e+00 -1.815800e+01 -5.691390e+00)	(-8.843265e-06 4.347557e-06 -6.901318e-07)	(-1.625947e+00 -1.389239e+01 -6.461091e+00)	(-1.625938e+00 -1.389240e+01 -6.461094e+00)	(-8.385860e-06 7.377021e-06 3.257968e-06)	(-7.617267e-01 -9.009008e+00 -7.268565e+00)	(-7.617188e-01 -9.009019e+00 -7.268573e+00)	(-7.862102e-06 1.080254e-05 8.024430e-06)	(-4.447396e-03 2.071823e-03 -1.011682e-02)	(-4.440293e-03 2.056993e-03 -1.012804e-02)	(-7.103092e-06 1.483051e-05 1.122318e-05)
4009          	(-7.541302e-01 -9.013073e+00 7.284573e+00)	(-7.541171e-01 -9.013027e+00 7.284611e+00)	(-1.318176e-05 -4.560503e-05 -3.860572e-05)	(-1.608571e+00 -1.389626e+01 6.546664e+00)	(-1.608558e+00 -1.389622e+01 6.546701e+00)	(-1.286083e-05 -3.501528e-05 -3.673234e-05)	(-2.362450e+00 -1.816055e+01 5.715981e+00)	(-2.362437e+00 -1.816052e+01 5.716017e+00)	(-1.277451e-05 -2.973429e-05 -3.650464e-05)	(-3.017273e+00 -2.184284e+01 4.851007e+00)	(-3.017260e+00 -2.184282e+01 4.851042e+00)	(-1.256654e-05 -2.546191e-05 -3.503485e-05)	(-3.559747e+00 -2.496563e+01 4.078739e+00)	(-3.559735e+00 -2.496561e+01 4.078772e+00)	(-1.228849e-05 -2.201112e-05 -3.287269e-05)	(-4.009345e+00 -2.750488e+01 3.264088e+00)	(-4.009333e+00 -2.750486e+01 3.264119e+00)	(-1.202293e-05 -1.926753e-05 -3.069478e-05)	(-4.362760e+00 -2.948443e+01 2.430761e+00)	(-4.362748e+00 -2.948441e+01 2.430789e+00)	(-1.176361e-05 -1.691369e-05 -2.849531e-05)	(-4.616030e+00 -3.090258e+01 1.603841e+00)	(-4.616018e+00 -3.090257e+01 1.603867e+00)	(-1.150558e-05 -1.476803e-05 -2.624540e-05)	(-4.762254e+00 -3.175045e+01 7.971054e-01)	(-4.762242e+00 -3.175044e+01 7.971293e-01)	(-1.124964e-05 -1.273423e-05 -2.391717e-05)	(-4.812771e+00 -3.203328e+01 -1.715395e-02)	(-4.812760e+00 -3.203327e+01 -1.713245e-02)	(-1.099332e-05 -1.076709e-05 -2.149868e-05)	(-4.762146e+00 -3.175059e+01 -8.346927e-01)	(-4.762135e+00 -3.175059e+01 -8.346737e-01)	(-1.073438e-05 -8.825663e-06 -1.897069e-05)	(-4.615809e+00 -3.090089e+01 -1.639029e+00)	(-4.615799e+00 -3.090089e+01 -1.639012e+00)	(-1.046958e-05 -6.884029e-06 -1.632483e-05)	(-4.360774e+00 -2.948309e+01 -2.465250e+00)	(-4.360763e+00 -2.948309e+01 -2.465236e+00)	(-1.019163e-05 -4.903550e-06 -1.354393e-05)	(-4.011936e+00 -2.751033e+01 -3.296988e+00)	(-4.011927e+00 -2.751033e+01 -3.296977e+00)	(-9.899952e-06 -2.851801e-06 -1.060767e-05)	(-3.562764e+00 -2.496805e+01 -4.107416e+00)	(-3.562754e+00 -2.496805e+01 -4.107408e+00)	(-9.586567e-06 -6.818212e-07 -7.506583e-06)	(-3.023134e+00 -2.184310e+01 -4.861431e+00)	(-3.023125e+00 -2.184310e+01 -4.861426e+00)	(-9.240506e-06 1.676364e-06 -4.225742e-06)	(-2.370089e+00 -1.815800e+01 -5.691390e+00)	(-2.370080e+00 -1.815800e+01 -5.691389e+00)	(-8.843906e-06 4.338866e-06 -6.910629e-07)	(-1.625947e+00 -1.389239e+01 -6.461091e+00)	(-1.625938e+00 -1.389240e+01 -6.461094e+00)	(-8.386494e-06 7.368048e-06 3.256800e-06)	(-7.617265e-01 -9.009008e+00 -7.268565e+00)	(-7.617186e-01 -9.009019e+00 -7.268573e+00)	(-7.862695e-06 1.079372e-05 8.022758e-06)	(-4.447228e-03 2.071814e-03 -1.011625e-02)	(-4.440125e-03 2.056989e-03 -1.012747e-02)	(-7.103721e-06 1.482500e-05 1.122555e-05)
4010          	(-7.541302e-01 -9.013073e+00 7.284573e+00)	(-7.541170e-01 -9.013027e+00 7.284612e+00)	(-1.317909e-05 -4.558004e-05 -3.860264e-05)	(-1.608571e+00 -1.389626e+01 6.546664e+00)	(-1.608558e+00 -1.389622e+01 6.546701e+00)	(-1.285544e-05 -3.502580e-05 -3.669700e-05)	(-2.362450e+00 -1.816055e+01 5.715980e+00)	(-2.362437e+00 -1.816052e+01 5.716017e+00)	(-1.277750e-05 -2.975240e-05 -3.651348e-05)	(-3.017273e+00 -2.184284e+01 4.851008e+00)	(-3.017260e+00 -2.184282e+01 4.851043e+00)	(-1.256676e-05 -2.546427e-05 -3.503372e-05)	(-3.559747e+00 -2.496563e+01 4.078740e+00)	(-3.559735e+00 -2.496561e+01 4.078773e+00)	(-1.228895e-05 -2.201784e-05 -3.287177e-05)	(-4.009345e+00 -2.750488e+01 3.264089e+00)	(-4.009333e+00 -2.750486e+01 3.264119e+00)	(-1.202334e-05 -1.927571e-05 -3.069413e-05)	(-4.362760e+00 -2.948443e+01 2.430762e+00)	(-4.362748e+00 -2.948441e+01 2.430790e+00)	(-1.176404e-05 -1.691973e-05 -2.849444e-05)	(-4.616030e+00 -3.090258e+01 1.603841e+00)	(-4.616018e+00 -3.090257e+01 1.603868e+00)	(-1.150603e-05 -1.477480e-05 -2.624517e-05)	(-4.762254e+00 -3.175045e+01 7.971062e-01)	(-4.762242e+00 -3.175044e+01 7.971301e-01)	(-1.124992e-05 -1.274044e-05 -2.391675e-05)	(-4.812771e+00 -3.203328e+01 -1.715315e-02)	(-4.812760e+00 -3.203327e+01 -1.713165e-02)	(-1.099364e-05 -1.077315e-05 -2.149836e-05)	(-4.762145e+00 -3.175059e+01 -8.346919e-01)	(-4.762135e+00 -3.175059e+01 -8.346729e-01)	(-1.073472e-05 -8.831744e-06 -1.897038e-05)	(-4.615809e+00 -3.090089e+01 -1.639028e+00)	(-4.615798e+00 -3.090089e+01 -1.639011e+00)	(-1.046991e-05 -6.890135e-06 -1.632431e-05)	(-4.360774e+00 -2.948309e+01 -2.465249e+00)	(-4.360763e+00 -2.948309e+01 -2.465235e+00)	(-1.019205e-05 -4.910022e-06 -1.354307e-05)	(-4.011936e+00 -2.751033e+01 -3.296987e+00)	(-4.011926e+00 -2.751033e+01 -3.296977e+00)	(-9.900431e-06 -2.858591e-06 -1.060662e-05)	(-3.562763e+00 -2.496805e+01 -4.107415e+00)	(-3.562754e+00 -2.496805e+01 -4.107407e+00)	(-9.587046e-06 -6.885437e-07 -7.505627e-06)	(-3.023134e+00 -2.184310e+01 -4.861430e+00)	(-3.023124e+00 -2.184310e+01 -4.861426e+00)	(-9.240981e-06 1.669866e-06 -4.225082e-06)	(-2.370089e+00 -1.815800e+01 -5.691389e+00)	(-2.370080e+00 -1.815800e+01 -5.691389e+00)	(-8.844358e-06 4.332439e-06 -6.906296e-07)	(-1.625946e+00 -1.389239e+01 -6.461090e+00)	(-1.625938e+00 -1.389240e+01 -6.461093e+00)	(-8.386940e-06 7.361338e-06 3.256997e-06)	(-7.617263e-01 -9.009008e+00 -7.268564e+00)	(-7.617184e-01 -9.009019e+00 -7.268572e+00)	(-7.863100e-06 1.078718e-05 8.022459e-06)	(-4.447059e-03 2.071810e-03 -1.011562e-02)	(-4.439955e-03 2.056988e-03 -1.012685e-02)	(-7.104161e-06 1.482168e-05 1.122920e-05)