# k  POINT_DATA 53253
# x  y  z  k
0.0199996 0 6.27196e-08 2.11135e-08
-0.0199996 0 6.27196e-08 6.38085e-13
0.0199996 0 0.000164442 2.20033e-08
-0.0199996 0 0.00016442 6.0171e-13
0.0199996 6.77626e-21 0.000494346 2.09957e-08
-0.0199996 -3.38813e-21 0.000494294 1.40078e-12
0.0199996 -6.77626e-21 0.000661321 1.85629e-08
-0.0199996 6.77626e-21 0.000661243 2.18175e-12
-0.0199996 6.77626e-21 0.000837166 3.03645e-12
0.0199996 -3.38813e-21 0.000837249 1.70815e-08
-0.0199996 6.77626e-21 0.0011807 4.00239e-12
0.0199996 3.38813e-21 0.00118076 1.60353e-08
-0.0199996 0 0.00135636 4.07369e-12
0.0199996 -6.77626e-21 0.00135644 1.60438e-08
-0.0199996 -3.38813e-21 0.00154016 4.44819e-12
0.0199996 -3.38813e-21 0.00154025 1.63115e-08
0.0200767 0 6.659e-05 2.04461e-08
-0.0200767 0 6.65901e-05 6.6897e-13
-0.0200781 0 6.52655e-08 6.68835e-13
0.0200781 0 6.52657e-08 2.04492e-08
0.0200799 -6.77626e-21 0.000590246 1.87707e-08
-0.0200799 0 0.000590204 1.94982e-12
-0.0200759 0 0.000728756 2.6438e-12
0.0200759 6.77626e-21 0.000728801 1.71328e-08
-0.0199996 -3.38813e-21 0.00190617 5.58066e-12
0.0199996 -3.38813e-21 0.00190619 1.83482e-08
0.0199996 -6.77626e-21 0.002087 2.16045e-08
-0.0199996 6.77626e-21 0.002087 6.78035e-12
-0.0200757 -6.77626e-21 0.00127189 4.17118e-12
0.0200757 -6.77626e-21 0.00127193 1.54792e-08
-0.0200724 6.77626e-21 0.00141167 4.36754e-12
0.0200724 1.35525e-20 0.00141172 1.56291e-08
-0.0201349 4.06576e-20 6.62424e-08 1.19144e-12
0.0201349 0 6.62432e-08 4.9691e-08
-0.0201347 -1.35525e-20 0.00065509 2.48226e-12
0.0201347 0 0.000655092 3.08715e-08
-0.0200697 6.77626e-21 0.00197791 6.10771e-12
0.0200697 6.77626e-21 0.00197791 1.8779e-08
-0.0201289 -2.03288e-20 0.00132685 3.88609e-12
0.0201289 2.71051e-20 0.00132685 1.36383e-08
-0.0200872 0 0.00211021 6.87266e-12
0.0200872 6.77626e-21 0.00211021 2.06271e-08
-0.0201043 0 0.00206082 6.73516e-12
0.0201043 0 0.00206081 2.00095e-08
0.0201292 0 0.00199355 1.76534e-08
-0.0201291 -6.77626e-21 0.00199358 5.99645e-12
-0.0201574 0 0.00212882 8.94508e-12
0.0201575 -6.77626e-21 0.00212883 2.30211e-08
-0.020211 6.77626e-21 0.00203552 6.90769e-12
0.020211 -6.77626e-21 0.0020355 1.84651e-08
0.0203752 1.69407e-20 7.14249e-08 2.75651e-08
-0.0203752 -1.35525e-20 7.14223e-08 1.13936e-12
0.0203552 6.77626e-22 0.000964574 1.61129e-08
-0.0203552 0 0.000964653 4.27902e-12
-0.0203848 -1.807e-21 0.00031854 1.55687e-12
0.0203848 4.51751e-22 0.000318497 2.65235e-08
0.0203485 1.8823e-22 0.00158862 1.27885e-08
-0.0203485 -9.41148e-22 0.00158869 4.62077e-12
-0.0204541 -5.0822e-21 7.18949e-08 2.80154e-12
0.0204542 1.69407e-21 7.18988e-08 4.3345e-08
0.0203479 3.38813e-21 0.0020921 1.75178e-08
-0.0203479 -6.77626e-21 0.00209212 7.43002e-12
-0.0203454 0 0.00217864 9.12062e-12
0.0203454 -1.35525e-20 0.00217865 2.07094e-08
0.0204014 0 0.00198909 1.83804e-08
-0.0204014 -1.35525e-20 0.00198912 8.26753e-12
0.0204481 -5.42101e-20 0.00220585 3.12379e-08
-0.0204481 -2.71051e-20 0.00220584 1.54758e-11
-0.0206171 6.77626e-21 7.35947e-08 6.68952e-12
0.0206171 -6.77626e-21 7.35999e-08 1.03e-07
0.0206345 2.25875e-21 0.00124186 1.32481e-08
-0.0206345 -2.25875e-21 0.00124198 5.81614e-12
0.0206729 0 7.48669e-08 9.91369e-08
-0.0206729 6.77626e-21 7.48621e-08 6.67714e-12
0.0206741 6.77626e-21 7.00031e-05 9.89313e-08
-0.0206742 6.77626e-21 7.0039e-05 6.66803e-12
0.0206667 4.51751e-21 0.000657407 5.32899e-08
-0.0206667 -7.90564e-21 0.000657517 6.43356e-12
0.0206275 1.35525e-21 0.0016945 1.49701e-08
-0.0206275 -4.06576e-21 0.00169457 7.83618e-12
0.0205976 0 0.00224546 3.39691e-08
-0.0205976 -1.35525e-20 0.00224545 1.91565e-11
0.020822 6.77626e-21 8.13398e-08 1.25989e-07
-0.0208222 0 8.13398e-08 1.19389e-11
-0.0208462 1.35525e-20 0.000330944 1.19221e-11
0.0208462 0 0.000330924 1.07214e-07
0.0208502 -1.35525e-20 0.000953835 2.06358e-08
-0.0208502 -1.35525e-20 0.000953873 7.75612e-12
0.0208443 -1.35525e-20 0.00153528 1.46525e-08
-0.0208443 2.71051e-20 0.00153531 7.84834e-12
0.0208065 -1.41172e-21 0.00198301 3.17506e-08
-0.0208065 8.47033e-22 0.00198302 2.05578e-11
0.0209014 -6.77626e-21 0.00232595 5.09221e-08
-0.0209014 6.77626e-21 0.00232594 4.32011e-11
0.0210643 -1.35525e-20 9.1532e-05 1.56346e-07
-0.0210643 0 9.15048e-05 2.00372e-11
0.021067 1.35525e-20 7.81651e-08 1.55524e-07
-0.021067 0 7.81689e-08 2.00084e-11
-0.0209629 4.06576e-20 0.00234223 4.91092e-11
0.0209629 -6.77626e-21 0.00234225 5.53555e-08
-0.0210006 -6.77626e-21 0.00235224 5.13275e-11
0.0210006 0 0.00235226 5.71499e-08
-0.0211368 1.35525e-20 7.77042e-08 2.53962e-11
0.0211368 0 7.76997e-08 1.56518e-07
-0.021129 -9.03502e-21 0.00122302 6.58998e-12
0.021129 0 0.00122304 1.47064e-08
-0.0211316 -1.16165e-20 0.00168768 1.43535e-11
0.0211316 -5.80823e-21 0.00168768 1.81275e-08
-0.0210928 0 0.00225831 5.16175e-11
0.0210928 3.38813e-21 0.0022583 5.6633e-08
-0.0212074 -4.51751e-21 0.000639305 1.76563e-11
0.0212074 6.77626e-21 0.000639333 1.00359e-07
-0.0212432 1.35525e-20 6.9493e-08 3.07453e-11
0.0212432 0 6.94858e-08 1.89161e-07
-0.0212484 -1.35525e-20 0.000106497 3.11946e-11
0.0212484 -6.77626e-21 0.000106548 1.91196e-07
-0.0211906 3.38813e-21 0.00240258 6.81362e-11
0.0211906 0 0.00240261 6.65257e-08
0.0213439 5.64689e-21 0.0020251 5.17239e-08
-0.0213439 -9.03502e-21 0.00202507 5.00262e-11
-0.021371 0 0.00245037 8.66211e-11
0.021371 -6.77626e-21 0.00245038 7.78168e-08
-0.0213837 0 0.00242601 8.54985e-11
0.0213837 0 0.00242602 7.67455e-08
-0.0214676 -6.77626e-21 0.00151459 1.06302e-11
0.0214676 -9.03502e-21 0.00151465 1.3591e-08
-0.0215176 -6.77626e-21 0.000962569 1.17351e-11
0.0215177 6.77626e-21 0.000962662 3.91477e-08
-0.0215442 -8.13152e-21 0.000394958 4.09541e-11
0.0215442 -5.42101e-21 0.000395018 2.24946e-07
0.0214146 0 0.00239563 7.14213e-08
-0.0214146 -6.77626e-21 0.00239562 7.99476e-11
0.0214166 -6.77626e-21 0.00246246 7.77003e-08
-0.0214166 1.35525e-20 0.00246245 9.08396e-11
0.0216582 1.35525e-20 0.000128741 2.67666e-07
-0.0216582 0 0.000128718 5.74826e-11
0.0216619 -1.35525e-20 1.14562e-08 2.67064e-07
-0.021662 0 1.14549e-08 5.75794e-11
-0.0217415 -2.71051e-20 0.000612322 4.50369e-11
0.0217415 0 0.000612439 1.32711e-07
-0.021737 0 0.00121881 1.3255e-11
0.021737 0 0.00121894 1.78147e-08
0.021641 0 0.0025219 7.63281e-08
-0.021641 0 0.00252189 9.94643e-11
0.02179 1.35525e-20 2.38075e-09 2.56645e-07
-0.02179 1.35525e-20 2.38045e-09 7.76855e-11
-0.02171 -2.71051e-20 0.0018706 3.21893e-11
0.02171 -2.71051e-20 0.00187066 2.76773e-08
0.0216778 1.8823e-21 0.00229009 6.74713e-08
-0.0216778 1.8823e-21 0.00229005 8.25644e-11
-0.0219185 0 2.30219e-09 9.4824e-11
0.0219185 -1.35525e-20 2.30245e-09 2.38313e-07
-0.0219202 1.35525e-20 0.000137029 9.62662e-11
0.0219202 0 0.000137066 2.37826e-07
-0.0218192 0 0.00256913 1.05005e-10
0.0218192 0 0.00256913 7.28184e-08
-0.0219845 5.42101e-21 0.00039594 1.02542e-10
0.0219845 5.42101e-21 0.000396027 1.9293e-07
0.0219638 0 0.00229016 4.96633e-08
-0.0219638 1.12938e-21 0.00229013 6.96053e-11
-0.022074 0 0.000916488 3.06216e-11
0.022074 -2.25875e-21 0.000916652 5.0482e-08
0.0219561 -1.35525e-20 0.0025286 6.22442e-08
-0.0219561 1.35525e-20 0.00252859 9.27297e-11
-0.0220578 0 0.00154542 1.73572e-11
0.0220578 -4.51751e-21 0.00154554 1.49705e-08
0.0219647 6.77626e-21 0.00260764 6.2651e-08
-0.0219647 -1.35525e-20 0.00260764 9.5383e-11
-0.0220662 -9.03502e-21 0.00204922 3.48438e-11
0.0220662 -4.51751e-21 0.00204927 2.48766e-08
0.0222375 -1.35525e-20 0.000149298 2.29581e-07
-0.0222375 0 0.000149261 1.48897e-10
0.0222467 0 3.22502e-09 2.29827e-07
-0.0222467 1.35525e-20 3.22489e-09 1.49144e-10
0.0221408 1.89735e-20 0.00250166 6.4503e-08
-0.0221408 -1.35525e-20 0.00250165 1.10671e-10
-0.0221237 -1.35525e-20 0.00264976 1.22113e-10
0.0221238 0 0.00264976 6.88114e-08
-0.0223263 -1.93608e-20 0.000544368 1.16773e-10
0.0223263 7.7443e-21 0.000544521 1.67457e-07
-0.0223861 1.35525e-20 3.11769e-09 1.89682e-10
0.0223861 1.35525e-20 3.11777e-09 2.54246e-07
-0.0223888 0 0.00123026 3.29339e-11
0.0223888 2.71051e-20 0.00123046 2.64213e-08
-0.0223621 0 0.00189307 6.02853e-11
0.0223621 0 0.00189318 3.17578e-08
0.022297 0 0.00269561 1.1583e-07
-0.022297 1.35525e-20 0.00269561 2.63256e-10
0.0223597 2.11758e-22 0.00232885 6.01758e-08
-0.0223597 -2.82344e-22 0.00232881 1.20266e-10
-0.0225373 -1.35525e-20 3.03035e-09 2.12061e-10
0.0225373 0 3.03039e-09 3.04843e-07
-0.0225385 0 0.000146287 2.11837e-10
0.0225385 1.35525e-20 0.000146333 3.04571e-07
-0.0227012 -2.25875e-21 0.000916023 6.60354e-11
0.0227012 0 0.000916234 6.28652e-08
-0.0226844 -4.51751e-21 0.00155903 3.76734e-11
0.0226844 4.51751e-21 0.00155921 2.06107e-08
-0.0227492 -9.03502e-21 0.000352645 2.33234e-10
0.0227492 4.51751e-21 0.000352762 2.82195e-07
0.0226132 -1.2282e-20 0.00277935 1.1598e-07
-0.0226133 1.82112e-20 0.00277937 2.77819e-10
-0.0226206 1.52466e-20 0.00278132 2.79662e-10
0.0226206 -9.74088e-21 0.00278132 1.16425e-07
-0.0227194 -6.77626e-21 0.00213973 8.54285e-11
0.0227194 1.35525e-20 0.00213981 3.75596e-08
-0.0226786 -4.51751e-21 0.00257495 2.56388e-10
0.0226786 0 0.00257497 1.06453e-07
-0.0228459 1.35525e-20 3.06872e-09 2.85705e-10
0.0228459 0 3.06855e-09 3.0908e-07
-0.0230054 -2.71051e-20 2.97301e-09 3.67533e-10
0.0230055 2.71051e-20 2.97281e-09 2.66825e-07
-0.0230123 2.71051e-20 0.000601967 2.2493e-10
0.0230123 0 0.000602177 1.56021e-07
-0.023008 0 0.00123165 7.18651e-11
0.023008 0 0.0012319 3.32342e-08
-0.0229679 2.71051e-20 0.00191396 9.83942e-11
0.0229679 5.42101e-20 0.0019141 3.84876e-08
0.0229069 -2.71051e-20 0.00285715 1.76399e-07
-0.0229069 0 0.00285715 5.54043e-10
-0.0230246 -2.71051e-20 0.0024179 2.80452e-10
0.0230246 2.71051e-20 0.00241795 9.49454e-08
-0.0231706 2.71051e-20 2.61999e-09 4.06363e-10
0.0231707 -1.35525e-20 2.6198e-09 2.64193e-07
-0.0232775 -6.77626e-21 0.000961767 1.0526e-10
0.0232775 4.51751e-21 0.000962019 5.68207e-08
-0.0231303 1.35525e-20 0.00291661 6.14493e-10
0.0231303 4.06576e-20 0.00291662 1.7789e-07
-0.0233249 6.77626e-21 0.000300575 4.23646e-10
0.023325 2.25875e-21 0.000300687 2.4343e-07
-0.0233201 0 0.00155413 7.76784e-11
0.0233201 -2.25875e-21 0.00155433 2.68975e-08
-0.0233275 4.51751e-21 0.00215862 1.34749e-10
0.0233275 1.58113e-20 0.00215872 4.1925e-08
-0.0232742 1.12938e-21 0.00268392 5.47239e-10
0.0232742 1.807e-21 0.00268395 1.53349e-07
-0.023471 0 1.49916e-09 5.10837e-10
0.023471 0 1.49905e-09 2.66805e-07
0.0233563 -6.77626e-21 0.0029773 2.14457e-07
-0.0233564 -6.77626e-21 0.00297732 9.03648e-10
-0.0236362 -2.71051e-20 1.14287e-09 6.27978e-10
0.0236362 -2.71051e-20 1.14277e-09 2.67248e-07
-0.0236942 -6.77626e-21 0.000643529 3.59464e-10
0.0236943 0 0.000643725 1.43842e-07
-0.0235255 -5.42101e-20 0.00302244 1.13994e-09
0.0235255 1.35525e-20 0.00302244 2.50208e-07
-0.0236289 2.71051e-20 0.00246429 5.05289e-10
0.0236289 0 0.00246434 1.20641e-07
-0.0237458 -4.51751e-21 0.00121852 1.5531e-10
0.0237458 -4.51751e-21 0.00121876 3.98923e-08
0.023712 3.67854e-20 0.00179082 3.46737e-08
-0.023712 2.12968e-20 0.00179064 1.51046e-10
-0.0238007 1.35525e-20 1.02427e-09 6.74953e-10
0.0238007 1.35525e-20 1.02417e-09 2.73388e-07
-0.0236242 0 0.00304884 1.33884e-09
0.0236242 0 0.00304886 2.88107e-07
-0.0238637 8.13152e-21 0.000205193 6.93868e-10
0.0238637 1.0842e-20 0.000205258 2.75934e-07
0.0238647 9.03502e-21 0.00216536 5.76178e-08
-0.0238648 -4.51751e-21 0.00216526 2.34251e-10
-0.0239679 0 0.000897771 1.83773e-10
0.023968 0 0.00089799 5.08508e-08
-0.0239683 2.71051e-20 0.00153338 1.61518e-10
0.0239683 0 0.00153358 3.22353e-08
-0.0238625 -5.29396e-23 0.00276289 1.44179e-09
0.0238638 0 0.00276308 3.07212e-07
-0.0238739 -4.23516e-21 0.00276895 1.45764e-09
0.0238718 6.14099e-21 0.00276533 3.09474e-07
0.024114 0 6.40638e-10 2.51834e-07
-0.024114 0 6.40703e-10 8.33659e-10
-0.0241188 2.71051e-20 0.000144133 8.33855e-10
0.0241188 0 0.000144175 2.50756e-07
0.023916 0 0.00312792 3.30651e-07
-0.0239161 0 0.00312794 1.70733e-09
-0.0239647 0 0.00314097 1.71606e-09
0.0239647 0 0.00314096 3.25958e-07
-0.0242749 0 5.21808e-10 1.0755e-09
0.0242749 0 5.21745e-10 2.27773e-07
-0.0242836 -6.77626e-21 0.000580904 6.42957e-10
0.0242836 0 0.000581052 1.31171e-07
-0.0242888 0 0.00120234 2.90845e-10
0.0242889 9.03502e-21 0.00120253 4.40131e-08
-0.0242868 4.51751e-21 0.00186197 2.55114e-10
0.0242869 0 0.00186211 4.95731e-08
-0.0241659 0 0.003195 1.70806e-09
0.0241661 1.69407e-21 0.00319503 3.09272e-07
0.0241862 4.23516e-22 0.00320043 3.0794e-07
-0.0241863 -4.23516e-22 0.00320044 1.71184e-09
0.0241881 5.50571e-21 0.00319265 3.06942e-07
-0.0241882 0 0.0031926 1.70331e-09
-0.0244313 2.71051e-20 0.000134539 1.05593e-09
0.0244313 1.35525e-20 0.00013457 1.70765e-07
-0.0244331 0 4.67599e-10 1.0601e-09
0.0244331 0 4.67535e-10 1.7023e-07
-0.0243349 9.03502e-21 0.00249839 6.58111e-10
0.0243349 -9.03502e-21 0.00249847 1.31461e-07
0.0242974 4.51751e-21 0.0029262 2.72089e-07
-0.0242974 0 0.00292619 1.51639e-09
-0.0243695 6.77626e-21 0.00315162 1.65374e-09
0.0243695 0 0.00315166 2.82556e-07
-0.0246008 -2.71051e-20 0.000284661 1.15774e-09
0.0246009 -2.71051e-20 0.000284725 1.37809e-07
-0.0243971 -6.77626e-21 0.00325796 1.76781e-09
0.0243971 -6.77626e-21 0.00325796 2.90183e-07
-0.0246107 0 0.000878458 4.20342e-10
0.0246107 0 0.000878612 4.44263e-08
-0.0246166 0 0.00151509 3.55479e-10
0.0246166 -2.71051e-20 0.00151523 4.64934e-08
0.0244715 -6.77626e-21 0.00314417 2.53219e-07
-0.0244715 0 0.00314413 1.51705e-09
0.024504 -6.77626e-21 0.00290416 2.16812e-07
-0.024504 -3.38813e-21 0.00290416 1.27029e-09
0.024478 -6.77626e-21 0.00323287 2.67695e-07
-0.024478 6.77626e-21 0.00323286 1.649e-09
0.0244844 6.77626e-21 0.00328126 2.66688e-07
-0.0244844 0 0.00328126 1.65973e-09
-0.0246093 -2.71051e-20 0.00219408 2.75032e-10
0.0246093 2.71051e-20 0.00219416 6.5842e-08
-0.0247622 -1.35525e-20 2.5336e-10 1.29525e-09
0.0247622 0 2.5332e-10 2.05605e-07
-0.0247664 1.35525e-20 0.000132487 1.29541e-09
0.0247664 1.35525e-20 0.000132517 2.06773e-07
0.0246224 6.77626e-21 0.00297464 2.14007e-07
-0.0246224 -1.35525e-20 0.00297462 1.30313e-09
-0.0249174 0 1.99007e-10 1.78136e-09
0.0249175 1.35525e-20 1.98966e-10 2.92695e-07
0.0247048 1.35525e-20 0.00334016 2.58667e-07
-0.0247048 0 0.00334016 1.8045e-09
-0.0249272 2.25875e-21 0.00056588 1.13023e-09
0.0249272 2.25875e-21 0.000565967 1.71181e-07
-0.0249353 4.51751e-21 0.00118332 6.83197e-10
0.0249353 0 0.00118344 6.10792e-08
0.0247708 -1.35525e-20 0.00325092 2.58037e-07
-0.0247708 -1.35525e-20 0.00325093 1.83289e-09
-0.0249332 -4.51751e-21 0.0018542 5.05589e-10
0.0249332 0 0.00185429 7.53063e-08
-0.0249124 1.12938e-20 0.00254742 6.69837e-10
0.0249124 9.03502e-21 0.00254746 1.19565e-07
-0.02507 0 0.000129685 1.50486e-09
0.02507 -2.71051e-20 0.000129701 3.51919e-07
-0.0250722 0 1.71469e-10 1.51019e-09
0.0250723 0 1.71434e-10 3.54204e-07
0.0248681 0 0.00338376 4.10182e-07
-0.0248681 -5.42101e-20 0.00338375 3.39146e-09
-0.024966 -4.51751e-22 0.00300203 1.54212e-09
0.024966 -1.807e-21 0.00300205 2.13635e-07
-0.0252401 -2.71051e-20 0.000277338 1.63442e-09
0.0252401 2.71051e-20 0.000277376 4.19603e-07
-0.0252519 2.71051e-20 0.000862008 1.0374e-09
0.0252519 -2.71051e-20 0.000862093 6.84635e-08
-0.0252581 0 0.0015011 7.85105e-10
0.0252581 0 0.00150118 8.15588e-08
-0.025094 0 0.00344393 3.51553e-09
0.025094 2.03288e-20 0.00344395 4.11703e-07
-0.0252522 -2.71051e-20 0.00218233 5.66262e-10
0.0252522 0 0.00218237 1.02442e-07
-0.0253959 0 6.82351e-11 1.88277e-09
0.0253959 0 6.82188e-11 4.1948e-07
-0.0254017 -1.35525e-20 0.000130113 1.88666e-09
0.0254017 1.35525e-20 0.000130131 4.18804e-07
-0.0252838 0 0.00277254 5.68866e-10
0.0252839 0 0.00277257 1.01018e-07
-0.0252273 0 0.00330818 3.54118e-09
0.0252273 0 0.00330821 3.96789e-07
-0.0252595 6.77626e-21 0.00348812 4.14757e-09
0.0252596 6.77626e-21 0.00348815 4.52325e-07
-0.0255539 0 4.13675e-11 2.94792e-09
0.0255539 2.71051e-20 4.13565e-11 4.35323e-07
-0.0255655 -2.25875e-21 0.000552596 2.02861e-09
0.0255655 2.25875e-21 0.000552632 2.54301e-07
-0.0255758 0 0.00116683 1.4722e-09
0.0255758 0 0.00116688 9.18538e-08
-0.0255762 -1.12938e-21 0.00183976 1.06552e-09
0.0255763 0 0.0018398 1.25441e-07
-0.0255827 0 0.00249854 8.78107e-10
0.0255827 -2.25875e-21 0.00249856 1.37562e-07
-0.0257081 1.35525e-20 0.000131339 2.39942e-09
0.0257081 1.35525e-20 0.000131348 4.27888e-07
-0.0257119 -2.71051e-20 3.51853e-11 2.41522e-09
0.0257119 0 3.51759e-11 4.29389e-07
-0.0254803 -1.35525e-20 0.00354694 6.25659e-09
0.0254804 1.35525e-20 0.00354697 5.98777e-07
-0.0255732 -1.12938e-21 0.00306848 3.03113e-09
0.0255733 1.12938e-21 0.0030685 3.15424e-07
-0.0258709 2.71051e-20 0.000270934 2.63216e-09
0.0258709 0 0.000270944 4.24732e-07
-0.0258866 -2.71051e-20 0.000846945 2.18256e-09
0.0258867 2.71051e-20 0.00084698 8.36605e-08
-0.0258956 -5.42101e-20 0.00148553 1.59168e-09
0.0258957 2.71051e-20 0.00148556 1.28411e-07
-0.025711 0 0.0036084 8.27062e-09
0.025711 -1.35525e-20 0.0036084 7.15785e-07
-0.0258953 -2.71051e-20 0.00216695 1.26491e-09
0.0258954 0 0.00216699 1.83539e-07
-0.0260182 1.35525e-20 1.4385e-11 2.79118e-09
0.0260182 -1.35525e-20 1.43834e-11 4.6311e-07
-0.0257708 1.01644e-20 0.00362432 8.5479e-09
0.025771 -1.01644e-20 0.00362438 7.28948e-07
0.0260277 0 0.000129333 4.631e-07
-0.0260277 1.35525e-20 0.000129319 2.79199e-09
-0.0258188 4.51751e-21 0.00342146 7.35118e-09
0.0258189 -4.51751e-21 0.00342152 6.29249e-07
-0.0259037 0 0.00281559 1.13582e-09
0.0259038 -2.71051e-20 0.0028156 1.66135e-07
-0.0261762 2.71051e-20 8.34289e-12 4.06179e-09
0.0261762 0 8.34292e-12 5.06656e-07
-0.0261907 9.03502e-21 0.000536235 3.30287e-09
0.0261907 6.77626e-21 0.000536244 2.98457e-07
-0.0262092 -6.77626e-21 0.00114363 2.92477e-09
0.0262093 -1.12938e-21 0.00114365 1.31556e-07
-0.0260128 0 0.00368882 8.37622e-09
0.026013 -1.35525e-20 0.00368885 6.68974e-07
-0.026215 -1.12938e-21 0.00181908 2.14931e-09
0.026215 -3.38813e-21 0.0018191 2.0003e-07
-0.0263228 -1.35525e-20 0.000121177 2.81955e-09
0.0263228 1.35525e-20 0.000121199 5.14402e-07
-0.0263263 1.35525e-20 7.18223e-12 2.81991e-09
0.0263263 -2.71051e-20 7.1822e-12 5.16488e-07
-0.0262139 1.12938e-21 0.00250529 1.65841e-09
0.026214 -4.51751e-21 0.0025053 2.17357e-07
-0.0261378 -2.71051e-20 0.00372349 8.46497e-09
0.0261379 -1.35525e-20 0.00372351 6.27019e-07
-0.0261644 4.06576e-20 0.00360602 8.12297e-09
0.0261645 -1.35525e-20 0.00360608 6.03735e-07
-0.0262302 -2.63521e-21 0.0032085 4.58554e-09
0.0262302 2.63521e-21 0.00320851 3.94315e-07
-0.0264875 0 0.000258943 2.98115e-09
0.0264876 0 0.000258951 5.50135e-07
-0.0265116 0 0.000819231 4.42962e-09
0.0265116 -2.71051e-20 0.000819229 1.04294e-07
-0.0265313 0 0.00145474 3.09922e-09
0.0265313 2.71051e-20 0.00145476 2.01881e-07
-0.026307 0 0.00376734 8.17243e-09
0.026307 -6.77626e-21 0.00376734 5.77884e-07
-0.0265288 0 0.00214917 2.58342e-09
0.0265289 0 0.00214918 2.79664e-07
0.0266623 1.35525e-20 2.30473e-12 5.69112e-07
-0.0266624 -1.35525e-20 2.30271e-12 5.34883e-09
0.0266707 0 0.000106431 5.69066e-07
-0.0266707 -1.35525e-20 0.000106394 5.43432e-09
-0.0265278 0 0.00283317 1.69223e-09
0.0265278 0 0.00283318 2.45751e-07
-0.0264226 0 0.00379806 8.17332e-09
0.0264228 6.77626e-21 0.00379808 5.61161e-07
-0.0265365 -2.82344e-21 0.00359658 7.48118e-09
0.0265365 2.25875e-21 0.00359658 5.09083e-07
-0.0267959 -1.35525e-20 1.18602e-12 8.52334e-09
0.0267959 0 1.1879e-12 6.15643e-07
-0.0268045 -5.64689e-21 0.0005015 1.08107e-08
0.0268045 -3.38813e-21 0.000501498 3.64175e-07
-0.0268426 -3.38813e-21 0.00108827 8.76493e-09
0.0268426 -1.12938e-21 0.00108827 2.17869e-07
-0.0269065 0 8.39063e-05 1.05872e-08
0.0269065 1.35525e-20 8.3937e-05 5.77347e-07
-0.0269105 -2.71051e-20 1.09878e-12 1.04766e-08
0.0269105 0 1.1004e-12 5.77032e-07
-0.0268569 1.12938e-21 0.00177521 4.44084e-09
0.0268569 0 0.00177521 3.60027e-07
-0.0268455 -1.12938e-21 0.00249636 3.39463e-09
0.0268456 0 0.00249637 3.84041e-07
-0.0268309 -1.807e-21 0.00322447 5.83963e-09
0.0268309 4.51751e-22 0.00322448 4.43089e-07
0.0267577 8.47033e-22 0.00386138 7.09909e-07
-0.0267577 0 0.00386154 1.21773e-08
-0.0267686 0 0.00388947 1.24826e-08
0.0267686 0 0.00388946 7.237e-07
-0.0267817 0 0.00389295 1.27133e-08
0.0267818 0 0.00389296 7.335e-07
-0.0267895 -1.69407e-21 0.00389519 1.2854e-08
0.0267897 0 0.00389521 7.39083e-07
-0.0267977 0 0.00388306 1.2916e-08
0.0267979 0 0.00388302 7.4092e-07
-0.0268077 8.47033e-22 0.00390073 1.30237e-08
0.0268079 -1.01644e-20 0.00390078 7.44773e-07
-0.0270953 -2.71051e-20 0.00023099 1.30972e-08
0.0270953 -2.71051e-20 0.000230989 5.98331e-07
-0.0271307 -2.71051e-20 0.000745242 2.13091e-08
0.0271307 5.42101e-20 0.000745245 1.59348e-07
-0.0271876 0 0.00136721 6.84015e-09
0.0271876 2.71051e-20 0.00136721 3.86067e-07
-0.02717 0 0.00211415 5.34979e-09
0.02717 2.71051e-20 0.00211415 5.64954e-07
-0.0270374 -9.68038e-21 0.00364688 1.39317e-08
0.0270374 -1.93608e-21 0.00364689 7.65877e-07
-0.0271535 2.71051e-20 0.00283769 3.96179e-09
0.0271535 0 0.0028377 4.47958e-07
0.0273865 -9.03502e-21 0.0004332 4.04774e-07
-0.0273866 1.50584e-21 0.000433203 9.65418e-08
-0.0272025 -1.35525e-20 0.00404241 1.89631e-08
0.0272025 0 0.00404243 9.88532e-07
0.0275127 0 2.93966e-06 5.28046e-07
-0.0275208 4.23516e-22 1.06317e-13 1.36708e-07
-0.0275278 0 1.05538e-13 1.37969e-07
0.027528 -4.23516e-22 1.05132e-13 5.23844e-07
-0.0275176 -1.31761e-21 0.000876077 7.34544e-08
0.0275176 -2.44698e-21 0.00087607 3.87218e-07
-0.0275406 0 1.86131e-05 1.40431e-07
0.027541 4.23516e-22 1.89803e-05 5.17242e-07
-0.0272667 1.35525e-20 0.00395781 1.89423e-08
0.0272668 -2.71051e-20 0.00395784 9.75508e-07
0.0275119 -7.05861e-23 0.00171167 6.22855e-07
-0.027524 5.64689e-22 0.00170302 1.08448e-08
-0.0274757 2.25875e-21 0.00247994 6.92671e-09
0.0274757 -2.25875e-21 0.00247995 6.46107e-07
-0.0274313 0 0.00322709 7.76082e-09
0.0274313 2.25875e-21 0.0032271 5.80248e-07
-0.0273527 1.35525e-20 0.00409792 2.56799e-08
0.0273528 1.35525e-20 0.00409794 1.25985e-06
-0.0274774 6.77626e-22 0.00369772 1.42466e-08
0.0274774 1.12938e-21 0.00369774 7.62446e-07
-0.0278217 0 0.00130219 1.70101e-08
0.0278218 5.42101e-20 0.00130219 6.73263e-07
-0.0277987 2.71051e-20 0.00208828 1.05462e-08
0.0277987 -2.71051e-20 0.00208828 8.69068e-07
-0.0278795 2.25875e-21 0.000330555 1.82822e-07
0.0278795 -3.01167e-21 0.000330552 3.62509e-07
-0.0275673 -1.69407e-20 0.00417883 3.10749e-08
0.0275674 1.69407e-20 0.00417885 1.41889e-06
-0.0277779 0 0.0028342 7.83933e-09
0.027778 -2.71051e-20 0.00283422 7.03665e-07
-0.0276683 -3.38813e-21 0.00421687 3.23753e-08
0.0276684 1.01644e-20 0.00421691 1.44035e-06
-0.0277108 4.51751e-21 0.00403356 2.79417e-08
0.0277109 0 0.00403359 1.25296e-06
-0.0278036 0 0.00346787 5.38659e-09
0.0278037 -2.71051e-20 0.00346788 4.28412e-07
0.0280306 1.35525e-20 3.72316e-14 4.23939e-07
-0.0280306 -1.35525e-20 3.73072e-14 1.65718e-07
-0.0281597 -1.35525e-21 0.000826379 8.2142e-08
0.0281598 1.35525e-21 0.000826365 5.85603e-07
-0.0281239 9.03502e-22 0.00170643 1.765e-08
0.0281239 -4.51751e-22 0.00170641 8.77626e-07
-0.0281926 2.71051e-20 2.34313e-14 1.32305e-07
0.0281927 -2.71051e-20 2.34156e-14 6.19836e-07
-0.0281037 1.12938e-21 0.00246047 1.39245e-08
0.0281037 -1.12938e-21 0.00246047 1.02448e-06
-0.0278976 0 0.00430333 3.219e-08
0.0278978 1.35525e-20 0.00430337 1.34783e-06
-0.0280998 -4.51751e-21 0.00316536 1.01196e-08
0.0280999 -1.12938e-21 0.00316537 7.66807e-07
-0.0280091 2.71051e-20 0.00434531 3.30866e-08
0.0280092 -2.71051e-20 0.00434535 1.28357e-06
-0.0280389 -1.35525e-20 0.00423697 3.16743e-08
0.028039 0 0.00423702 1.23273e-06
-0.0281246 -4.70574e-22 0.0038468 1.86872e-08
0.0281246 5.64689e-22 0.00384682 8.56191e-07
-0.0283974 1.35525e-20 1.6465e-14 1.57117e-07
0.0283975 -2.03288e-20 1.64528e-14 4.75497e-07
-0.0284432 0 0.0012926 2.49169e-08
0.0284432 2.71051e-20 0.0012926 7.33375e-07
-0.0284192 5.42101e-20 0.0020741 1.96006e-08
0.0284192 -2.71051e-20 0.00207411 1.22097e-06
-0.0284972 1.41172e-22 0.000323921 1.77741e-07
0.0284983 7.05861e-23 0.000322966 4.52378e-07
-0.0281711 -1.35525e-20 0.00440642 3.23614e-08
0.0281712 6.77626e-21 0.00440645 1.23868e-06
0.0285522 0 6.7283e-15 4.82049e-07
-0.0285522 2.71051e-20 6.71899e-15 1.67028e-07
-0.0284166 2.71051e-20 0.00281021 1.75342e-08
0.0284166 0 0.00281021 1.28989e-06
-0.0284105 2.71051e-20 0.00349464 1.04364e-08
0.0284105 2.71051e-20 0.00349465 7.10268e-07
-0.0282899 -6.77626e-21 0.00445124 3.25567e-08
0.02829 -6.77626e-21 0.00445126 1.21164e-06
-0.0284185 2.25875e-21 0.00424829 2.95854e-08
0.0284186 -2.82344e-21 0.00424831 1.07392e-06
-0.0287651 2.71051e-20 2.8362e-16 1.67442e-07
0.0287651 0 2.95993e-16 7.69042e-07
0.0287466 -5.0822e-22 0.00168414 1.38646e-06
-0.0287466 5.64689e-22 0.00168414 2.76809e-08
-0.0288079 -3.00927e-37 0.000872612 9.3065e-08
0.0288079 -8.13152e-21 0.000872602 9.33463e-07
-0.0287473 -1.8823e-22 0.0024227 2.57849e-08
0.0287474 0 0.0024227 1.55784e-06
-0.0287216 1.12938e-21 0.00316753 2.23853e-08
0.0287216 3.38813e-21 0.00316754 1.25375e-06
0.0285807 0 0.0045608 1.41307e-06
-0.0285808 1.69407e-21 0.00456081 4.56737e-08
-0.0287115 -9.03502e-22 0.0038813 2.60114e-08
0.0287115 4.06576e-21 0.00388131 1.01358e-06
0.0286395 0 0.00458294 1.43719e-06
-0.0286395 0 0.00458293 4.74495e-08
0.0286465 -3.38813e-21 0.00457502 1.43691e-06
-0.0286466 3.38813e-21 0.00457502 4.7628e-08
-0.0290133 -1.35525e-20 1.86904e-16 3.04461e-07
0.0290135 0 1.94633e-16 5.18201e-07
-0.0286559 -3.38813e-21 0.00458911 4.91791e-08
0.0286559 0 0.00458914 1.46593e-06
-0.0286628 -3.38813e-21 0.00455184 4.7088e-08
0.0286628 3.38813e-21 0.00455182 1.41415e-06
-0.0290304 -3.38813e-21 8.06872e-05 3.13796e-07
0.0290304 -1.69407e-21 8.001e-05 5.1488e-07
-0.0290331 5.64689e-22 0.000330818 2.957e-07
0.0290331 -2.82344e-21 0.000330829 6.16253e-07
0.0290394 0 1.6645e-16 5.23685e-07
-0.0290395 -1.01644e-20 1.59046e-16 3.08402e-07
-0.0286826 0 0.00457911 4.96334e-08
0.0286827 0 0.00457912 1.45058e-06
-0.0286988 -1.69407e-21 0.00460526 5.11343e-08
0.0286989 0 0.00460531 1.46533e-06
-0.0290348 0 0.00281401 3.63363e-08
0.0290349 2.71051e-20 0.00281402 1.89657e-06
-0.029155 0 0.00144553 4.21277e-08
0.029155 0 0.00144554 2.34474e-06
-0.0291572 5.42101e-20 0.00194761 4.18451e-08
0.0291573 0 0.00194759 2.53698e-06
-0.0289114 -9.68038e-21 0.00431134 5.14811e-08
0.0289115 -7.7443e-21 0.00431137 1.47168e-06
-0.0290289 2.71051e-20 0.00350519 2.51429e-08
0.0290289 -2.71051e-20 0.0035052 1.13698e-06
-0.0293191 1.35525e-20 1.46698e-16 2.86464e-07
0.0293192 0 1.49488e-16 8.974e-07
0.0293261 -8.04681e-21 0.00083995 1.18495e-06
-0.0293263 5.92923e-21 0.000839937 1.48256e-07
-0.029346 8.04681e-21 0.000822088 1.53869e-07
0.0293461 -4.23516e-22 0.000821754 1.18648e-06
-0.0293459 0 0.000843819 1.49736e-07
0.029346 3.04932e-20 0.000843906 1.20477e-06
-0.0293596 -4.65868e-21 0.000839783 1.50448e-07
0.02936 4.65868e-21 0.000839793 1.21928e-06
-0.029022 1.35525e-20 0.00472698 6.80247e-08
0.029022 1.35525e-20 0.00472701 1.6675e-06
-0.0293681 -1.35525e-20 0.00167839 4.42423e-08
0.0293682 0 0.00167839 2.50516e-06
-0.0293492 1.12938e-22 0.00243747 4.95723e-08
0.0293492 4.51751e-22 0.00243747 2.54568e-06
-0.0291129 2.71051e-20 0.00461943 6.81412e-08
0.029113 -2.71051e-20 0.00461946 1.69185e-06
-0.0293461 -1.12938e-21 0.00316205 4.80326e-08
0.0293461 0 0.00316205 2.16152e-06
0.0295421 -1.01644e-20 1.67699e-17 7.36114e-07
-0.0295423 3.38813e-21 1.51535e-17 4.29044e-07
-0.0293068 -6.77626e-21 0.00388259 3.97623e-08
0.0293068 4.51751e-21 0.00388261 1.43637e-06
-0.0295827 0 0.00139945 5.2249e-08
0.0295827 0 0.00139947 2.77296e-06
-0.029224 -1.35525e-20 0.00480306 8.67112e-08
0.0292241 -1.35525e-20 0.00480312 2.09314e-06
-0.0296229 3.38813e-21 0.000312396 4.11086e-07
0.0296231 2.25875e-21 0.000312322 8.82112e-07
-0.0295757 5.42101e-20 0.00193306 5.18405e-08
0.0295757 -2.71051e-20 0.00193306 3.15565e-06
-0.0296592 -6.77626e-21 -6.00181e-17 4.14867e-07
0.0296598 6.77626e-21 -5.89086e-17 8.48972e-07
-0.0293408 3.61401e-21 0.00435957 5.6166e-08
0.0293409 4.06576e-21 0.00435961 1.54478e-06
-0.0296739 -2.71051e-20 0.00278626 7.40625e-08
0.0296739 0 0.00278626 3.4145e-06
-0.0294232 6.77626e-21 0.0048781 1.15226e-07
0.0294234 2.03288e-20 0.00487815 2.71313e-06
-0.029651 0 0.00350308 5.42426e-08
0.029651 2.71051e-20 0.00350309 2.15342e-06
-0.0298815 0 -1.91561e-16 2.57493e-07
0.0298818 1.35525e-20 -1.91567e-16 1.28931e-06
-0.0295072 -1.35525e-20 0.00479828 1.18449e-07
0.0295074 -6.77626e-21 0.00479831 2.79798e-06
-0.0295244 -1.35525e-20 0.0049162 1.2218e-07
0.0295246 6.77626e-21 0.00491626 2.81913e-06
-0.0295732 4.51751e-21 0.00467621 1.05652e-07
0.0295734 4.51751e-21 0.00467625 2.50431e-06
-0.0296719 2.71051e-20 0.00412281 2.83882e-08
0.0296719 0 0.00412282 1.05252e-06
-0.0299617 4.51751e-21 0.000815835 1.57614e-07
0.0299618 -5.27043e-21 0.000815876 2.02886e-06
-0.0299758 0 0.000107543 2.46577e-07
0.0299759 -2.71051e-20 0.000107299 1.2607e-06
-0.0299859 -1.35525e-20 2.26927e-16 2.46505e-07
0.029986 -2.71051e-20 2.28937e-16 1.25949e-06
-0.0300036 5.64689e-22 0.00165375 7.39071e-08
0.0300036 -1.8823e-22 0.00165376 3.41187e-06
0.0300698 2.71051e-20 -5.95075e-16 1.40367e-06
-0.0300699 2.71051e-20 -5.95895e-16 2.57877e-07
-0.0299914 -1.12938e-21 0.00233928 8.99641e-08
0.0299915 0 0.00233928 3.72417e-06
-0.0297028 -2.71051e-20 0.00498341 1.18428e-07
0.029703 0 0.00498346 2.60281e-06
-0.0299738 -6.77626e-22 0.00312121 9.93888e-08
0.0299738 1.35525e-21 0.00312121 3.33896e-06
0.030181 -1.35525e-20 0.000217163 1.46856e-06
-0.0301813 -1.35525e-20 0.000217574 2.22512e-07
-0.0299672 -3.38813e-21 0.00382607 6.5369e-08
0.0299673 0 0.00382608 1.95856e-06
0.0302278 0 -3.28141e-16 1.45055e-06
-0.0302282 -1.35525e-20 -3.2848e-16 2.1739e-07
-0.0298589 -2.03288e-20 0.00504218 1.17073e-07
0.0298591 6.77626e-21 0.00504224 2.57732e-06
-0.0299001 0 0.00489103 1.10728e-07
0.0299002 1.35525e-20 0.00489108 2.43536e-06
-0.0299789 1.50584e-21 0.00451145 7.43757e-08
0.029979 1.8823e-21 0.00451148 1.78591e-06
-0.0302909 0 0.00277109 1.43605e-07
0.0302909 0 0.0027711 4.4014e-06
-0.0304299 0 0.000466563 1.98878e-07
0.0304299 -2.71051e-20 0.000466598 1.98692e-06
-0.0304045 -2.71051e-20 0.00137206 1.09238e-07
0.0304046 5.42101e-20 0.00137208 4.51228e-06
-0.0304135 0 0.00193181 1.1368e-07
0.0304135 -2.71051e-20 0.00193181 4.99959e-06