# kMean  POINT_DATA 27416
# x  y  z  kMean
0 0.0115468 6.39774e-08 3.91237e-07
0 -0.0115468 6.39774e-08 2.04101e-10
0 -0.0115468 0.000159933 2.01732e-10
6.77626e-21 0.0115468 0.000159966 3.92904e-07
1.35525e-20 -0.0115468 0.000505149 2.32757e-10
0 0.0115468 0.000505252 4.2088e-07
0 -0.0115468 0.000661354 2.60336e-10
0 0.0115468 0.00066149 4.36708e-07
-6.77626e-21 -0.0115468 0.000824682 2.83489e-10
0 0.0115468 0.000824823 4.58841e-07
6.77626e-21 -0.0115467 0.00119323 3.14696e-10
-6.77626e-21 0.0115467 0.00119337 4.77099e-07
0 0.0116176 9.48413e-05 3.93949e-07
1.35525e-20 -0.0116176 9.48283e-05 2.05699e-10
0 0.0116191 6.70002e-08 3.93933e-07
0 -0.0116191 6.70007e-08 2.05637e-10
0 -0.0115467 0.00135636 3.14911e-10
0 0.0115467 0.0013565 4.61516e-07
0 -0.0116144 0.000567788 2.47761e-10
0 0.0116144 0.000567904 4.31993e-07
0 -0.0116106 0.000748384 2.77941e-10
0 0.0116106 0.000748514 4.54578e-07
0 -0.0115467 0.00152899 3.02699e-10
6.77626e-21 0.0115467 0.00152911 4.45126e-07
0 -0.0116105 0.00124699 3.20158e-10
1.35525e-20 0.0116105 0.00124712 4.79279e-07
0 -0.0116054 0.00142615 3.12487e-10
-1.35525e-20 0.0116054 0.00142627 4.59382e-07
6.77626e-21 -0.0115467 0.00190899 3.11497e-10
0 0.0115467 0.00190902 4.34617e-07
1.35525e-20 0.0117276 6.6334e-08 4.53562e-07
-1.35525e-20 -0.0117276 6.63364e-08 3.77768e-10
6.77626e-21 -0.0117103 0.000650494 3.13302e-10
2.03288e-20 0.0117103 0.000650588 4.28765e-07
-1.35525e-20 0.0115467 0.002087 4.80125e-07
1.35525e-20 -0.0115467 0.002087 3.53044e-10
0 -0.011609 0.00193563 3.25031e-10
0 0.011609 0.00193565 4.45993e-07
0 -0.0117025 0.00130867 2.69523e-10
6.77626e-21 0.0117025 0.00130876 4.05017e-07
0 -0.0116004 0.00211165 3.52439e-10
0 0.0116004 0.00211165 4.64038e-07
0 -0.0116425 0.00204727 3.5116e-10
0 0.0116425 0.00204727 4.64389e-07
-1.35525e-20 -0.0116584 0.00213828 3.91286e-10
1.35525e-20 0.0116584 0.00213829 5.30476e-07
0 -0.0117067 0.00192898 2.99317e-10
-1.35525e-20 0.0117067 0.00192897 4.10819e-07
4.51751e-21 -0.0118537 0.000959071 3.26963e-10
4.51751e-21 0.0118537 0.000959138 4.62837e-07
-4.51751e-21 0.0119178 0.000318651 4.54764e-07
0 -0.0119179 0.000318619 3.77906e-10
1.35525e-20 0.011932 7.04551e-08 4.74029e-07
-1.35525e-20 -0.011932 7.04586e-08 4.38877e-10
2.71051e-21 -0.0118325 0.00163064 3.20543e-10
0 0.0118325 0.00163068 4.4939e-07
0 -0.0118724 0.00142181 2.77053e-10
0 0.0118724 0.00142183 3.99879e-07
2.71051e-20 -0.0117615 0.0021856 3.97295e-10
-1.35525e-20 0.0117615 0.0021856 5.3348e-07
5.42101e-20 -0.0118132 0.00220928 4.98467e-10
-5.42101e-20 0.0118132 0.00220929 6.90755e-07
1.8823e-21 -0.0118989 0.00195768 3.5447e-10
-3.76459e-22 0.0118989 0.00195768 4.70729e-07
-6.77626e-21 -0.0119718 0.00153839 2.28214e-10
6.77626e-21 0.0119718 0.0015384 3.62684e-07
0 0.0120982 7.96187e-08 6.48676e-07
0 -0.0120983 7.96213e-08 8.75839e-10
4.06576e-21 -0.0120694 0.000852607 3.12061e-10
-2.71051e-21 0.0120694 0.000852623 3.82582e-07
0 0.0122081 0.000167123 7.34748e-07
0 -0.0122082 0.000167144 9.97635e-10
0 0.012221 7.14632e-08 7.3463e-07
0 -0.012221 7.14627e-08 9.97057e-10
2.71051e-21 0.0121684 0.00122551 2.87377e-07
-1.20467e-21 -0.0121684 0.0012255 1.90339e-10
-2.71051e-20 0.012025 0.00230651 5.72445e-07
0 -0.012025 0.0023065 4.40998e-10
3.22679e-21 0.0122349 0.000642359 5.28136e-07
-7.09894e-21 -0.0122349 0.000642355 6.39111e-10
-3.38813e-21 -0.0120593 0.00232222 4.49875e-10
-1.01644e-20 0.0120594 0.00232227 5.93095e-07
0 0.0122855 6.71739e-08 8.73547e-07
2.71051e-20 -0.0122856 6.71709e-08 1.29509e-09
1.97641e-21 0.0122109 0.00173628 3.86264e-07
2.5411e-21 -0.0122109 0.00173628 2.54059e-10
-8.13152e-21 -0.0121468 0.00214599 4.72027e-10
-5.42101e-21 0.0121468 0.002146 6.1892e-07
0 -0.0122263 0.00229068 4.86533e-10
-6.77626e-21 0.0122263 0.00229071 6.78157e-07
0 0.0124605 5.58013e-08 1.172e-06
0 -0.0124606 5.57971e-08 1.69408e-09
0 0.0125121 0.000225139 1.24804e-06
2.71051e-21 -0.0125121 0.000225154 1.8768e-09
0 -0.0122889 0.00242763 5.46066e-10
0 0.0122889 0.00242764 8.27757e-07
0 0.0125901 0.000921782 2.46383e-07
0 -0.0125901 0.000921774 2.66799e-10
1.35525e-20 -0.012401 0.00241699 5.05272e-10
-1.35525e-20 0.012401 0.00241701 7.99961e-07
6.77626e-21 -0.0123956 0.00247647 4.99126e-10
-6.77626e-21 0.0123956 0.00247648 8.09864e-07
6.77626e-21 -0.0124524 0.00218685 4.32318e-10
-3.38813e-21 0.0124525 0.00218686 6.75845e-07
-2.71051e-20 -0.0125381 0.00209401 3.57075e-10
0 0.0125382 0.00209403 5.48428e-07
1.0842e-20 0.0126447 0.00162116 2.98096e-07
8.13152e-21 -0.0126447 0.00162116 1.43458e-10
-1.35525e-20 -0.012772 0.000141268 2.38796e-09
0 0.0127721 0.000141226 1.68985e-06
1.35525e-20 -0.0127747 1.51153e-08 2.38462e-09
1.35525e-20 0.0127748 1.5111e-08 1.68725e-06
-2.71051e-21 -0.012613 0.00241878 5.51769e-10
-1.35525e-20 0.0126131 0.00241885 9.6201e-07
-1.35525e-20 -0.0125861 0.00256369 5.36103e-10
-2.71051e-20 0.0125863 0.00256377 9.97935e-07
0 -0.0129279 4.53095e-09 2.61074e-09
0 0.0129279 4.5309e-09 1.95537e-06
9.03502e-21 0.0129181 0.000605376 1.15439e-06
-1.12938e-20 -0.0129181 0.000605387 1.45878e-09
-2.25875e-21 0.0129069 0.00122274 3.077e-07
0 -0.0129069 0.00122276 2.12851e-10
0 -0.0127462 0.00263697 7.88014e-10
-2.71051e-20 0.0127464 0.00263706 1.70136e-06
9.03502e-21 -0.0128745 0.00194112 2.18796e-10
-4.51751e-21 0.0128745 0.00194112 5.19407e-07
0 0.0130689 3.79654e-09 2.20324e-06
0 -0.0130689 3.79638e-09 2.70116e-09
2.71051e-20 0.0130684 0.000129725 2.19924e-06
-1.35525e-20 -0.0130685 0.000129754 2.69997e-09
0 -0.0129105 0.00229687 4.9877e-10
-2.25875e-21 0.0129105 0.00229689 1.08888e-06
-1.89735e-20 0.0131166 0.0016405 4.28929e-07
-2.71051e-21 -0.0131166 0.00164051 1.61806e-10
0 0.013248 0.000302964 2.53188e-06
0 -0.013248 0.000302968 2.89794e-09
1.35525e-20 -0.0129823 0.00274601 9.66019e-10
2.71051e-20 0.0129824 0.00274607 2.22519e-06
0 -0.0132464 0.00091148 3.98618e-10
0 0.0132464 0.000911472 4.42911e-07
-4.51751e-21 -0.0131303 0.00262464 9.90351e-10
9.03502e-21 0.0131304 0.00262467 2.33185e-06
0 0.0132415 0.00211425 6.2126e-07
0 -0.0132415 0.00211425 1.55994e-10
6.77626e-21 -0.0131184 0.00280831 1.06616e-09
1.35525e-20 0.0131185 0.00280836 2.59929e-06
-1.35525e-20 -0.013437 2.08369e-09 2.94534e-09
-1.35525e-20 0.013437 2.0834e-09 2.77946e-06
1.35525e-20 -0.0134397 0.000120669 2.94627e-09
-1.35525e-20 0.0134397 0.000120639 2.78051e-06
-1.35525e-20 0.0135679 1.40563e-09 2.89949e-06
0 -0.0135679 1.40572e-09 2.97218e-09
0 0.0135763 0.00059667 1.76871e-06
0 -0.0135763 0.000596683 1.72002e-09
1.12938e-20 0.0135724 0.00122413 6.05099e-07
4.51751e-21 -0.0135724 0.00122414 2.78691e-10
0 -0.0133498 0.00291515 1.22931e-09
2.71051e-20 0.0133498 0.00291517 3.53549e-06
-6.77626e-21 -0.0134778 0.00238384 6.27161e-10
-2.25875e-21 0.0134778 0.00238384 1.86693e-06
-2.25875e-21 0.0135676 0.00185527 7.8171e-07
0 -0.0135676 0.00185528 1.56784e-10
1.35525e-20 0.0136939 1.2223e-09 3.05563e-06
0 -0.013694 1.22233e-09 3.01401e-09
0 0.0136952 0.000110039 3.0534e-06
-1.35525e-20 -0.0136952 0.000110069 3.0141e-09
1.01644e-20 -0.013543 0.0030057 1.65177e-09
3.72694e-20 0.0135431 0.00300574 5.04802e-06
-2.71051e-20 -0.0139035 0.000294191 3.06629e-09
0 0.0139035 0.000294183 3.32036e-06
1.69407e-20 0.0135877 0.0030267 5.17817e-06
-3.38813e-20 -0.0135877 0.00302672 1.67148e-09
2.71051e-20 -0.0139155 0.000900759 4.55547e-10
0 0.0139156 0.000900746 7.40842e-07
-9.03502e-21 -0.0136797 0.00276423 1.47812e-09
2.25875e-21 0.0136798 0.00276423 4.47766e-06
2.71051e-20 -0.0139125 0.00154328 1.54664e-10
0 0.0139125 0.00154327 8.79056e-07
-2.71051e-20 0.0138987 0.00219587 1.28288e-06
0 -0.0138987 0.00219588 2.14832e-10
0 -0.0141099 3.98855e-10 3.05729e-09
-1.35525e-20 0.01411 3.98723e-10 3.43595e-06
0 -0.0141138 9.87931e-05 3.05766e-09
1.35525e-20 0.0141138 9.87563e-05 3.43643e-06
-4.06576e-20 -0.0138002 0.00312615 1.45102e-09
-1.35525e-20 0.0138003 0.00312616 5.03366e-06
0 -0.0142228 2.30732e-10 3.00427e-09
0 0.0142228 2.30673e-10 3.42564e-06
-4.51751e-21 -0.0142415 0.000581 1.80432e-09
-2.25875e-21 0.0142415 0.000580992 2.21737e-06
0 0.0142522 0.0012064 1.27921e-06
-3.38813e-21 -0.0142522 0.00120642 3.86423e-10
-1.35525e-20 0.0143301 2.07135e-10 3.48855e-06
0 -0.0143301 2.07176e-10 2.99632e-09
0 0.0143313 8.88715e-05 3.48844e-06
0 -0.0143313 8.89038e-05 2.99702e-09
1.35525e-20 -0.0139709 0.00320515 1.43264e-09
-6.77626e-21 0.013971 0.00320516 5.47846e-06
-1.12938e-21 0.0142439 0.0018749 1.76725e-06
2.25875e-21 -0.0142439 0.00187491 2.11779e-10
-8.13152e-21 -0.0140732 0.00302489 1.40574e-09
0 0.0140732 0.00302489 5.28008e-06
1.807e-21 0.0141848 0.00260879 3.4312e-06
1.807e-21 -0.0141848 0.00260878 7.75726e-10
-1.35525e-20 -0.0140966 0.0032633 1.32809e-09
6.77626e-21 0.0140966 0.0032633 5.69013e-06
1.35525e-20 -0.0142071 0.00316518 1.26314e-09
0 0.0142071 0.00316519 5.65438e-06
2.71051e-20 -0.0145609 0.000281726 2.99137e-09
-2.71051e-20 0.0145609 0.000281727 3.60968e-06
0 -0.0145815 0.000874369 6.23428e-10
-2.71051e-20 0.0145815 0.000874352 1.13874e-06
0 -0.0142355 0.00332754 1.08421e-09
-1.35525e-20 0.0142355 0.00332755 5.7698e-06
0 -0.0145904 0.00151949 2.91241e-10
0 0.0145904 0.00151948 2.33913e-06
-2.71051e-20 -0.0145713 0.00221296 1.85648e-10
2.71051e-20 0.0145713 0.00221296 2.57915e-06
0 0.014357 0.00338361 6.58571e-06
0 -0.014357 0.0033836 1.00991e-09
0 -0.0144398 0.00302855 8.4087e-10
4.51751e-21 0.0144398 0.00302856 4.88967e-06
1.35525e-20 -0.0143822 0.00330544 1.02162e-09
-1.35525e-20 0.0143822 0.00330545 6.42541e-06
-1.35525e-20 -0.0147852 4.2202e-11 2.80144e-09
0 0.0147853 4.21645e-11 3.56766e-06
0 -0.0147878 7.95642e-05 2.80141e-09
-1.35525e-20 0.0147879 7.95165e-05 3.56783e-06
-1.35525e-20 -0.0148815 2.04947e-11 3.08028e-09
1.35525e-20 0.0148815 2.04768e-11 3.49057e-06
2.71051e-20 -0.0146213 0.00280152 2.44619e-10
2.71051e-20 0.0146213 0.00280153 2.79887e-06
2.25875e-21 -0.0149013 0.000554706 2.10962e-09
-2.25875e-21 0.0149014 0.000554705 2.54273e-06
0 -0.0145853 0.0032615 8.55959e-10
0 0.0145853 0.00326151 6.62536e-06
2.25875e-21 -0.014922 0.00116917 9.79436e-10
1.12938e-21 0.014922 0.00116916 2.88872e-06
0 0.0149733 1.85798e-11 3.50205e-06
-1.35525e-20 -0.0149733 1.85939e-11 2.64683e-09
0 0.0149737 7.37377e-05 3.50253e-06
0 -0.0149738 7.37997e-05 2.64769e-09
1.35525e-20 -0.0146077 0.00349931 9.23739e-10
2.71051e-20 0.0146077 0.00349933 8.39073e-06
1.12938e-21 -0.0149197 0.00184904 4.90243e-10
-1.12938e-21 0.0149197 0.00184904 4.36793e-06
0 -0.014666 0.00343236 9.24964e-10
0 0.0146661 0.00343238 8.4538e-06
-1.12938e-21 -0.0149194 0.00252067 3.38919e-10
1.12938e-21 0.0149194 0.00252068 4.22873e-06
1.35525e-20 -0.0147321 0.00355664 8.96171e-10
2.71051e-20 0.0147321 0.00355666 9.38886e-06
-1.12938e-21 -0.0148879 0.0030961 6.35376e-10
-2.25875e-21 0.0148879 0.00309611 6.75759e-06
0 -0.0152102 0.000264582 2.46487e-09
2.71051e-20 0.0152103 0.00026457 3.46403e-06
0 -0.0152372 0.00083281 1.98676e-09
-2.71051e-20 0.0152372 0.000832812 1.86908e-06
0 0.0148481 0.0036099 1.17025e-05
-6.77626e-21 -0.0148481 0.00360989 9.90672e-10
0 0.0148927 0.003477 1.0988e-05
1.35525e-20 -0.0148927 0.00347697 9.76147e-10
2.71051e-20 -0.0152552 0.00147324 8.80104e-10
0 0.0152552 0.00147323 6.12858e-06
2.71051e-20 -0.0152471 0.00216851 5.98211e-10
0 0.0152472 0.00216851 6.40592e-06
0 -0.0154526 2.80546e-12 2.39805e-09
0 0.0154528 2.79932e-12 3.31367e-06
-6.77626e-21 -0.0154539 6.43657e-05 2.3983e-09
0 0.0154541 6.42863e-05 3.31372e-06
1.35525e-20 -0.0150216 0.00368974 9.45544e-10
-2.71051e-20 0.0150217 0.00368977 1.29368e-05
-2.71051e-20 -0.0150964 0.0034047 1.02931e-09
0 0.0150964 0.00340472 1.21119e-05
2.71051e-20 -0.0152384 0.00284799 3.42827e-10
0 0.0152384 0.002848 5.3227e-06
0 -0.0155344 1.12584e-12 3.08947e-09
0 0.0155345 1.12356e-12 3.298e-06
-1.35525e-20 -0.015136 0.00358103 9.12742e-10
2.71051e-20 0.015136 0.00358108 1.26649e-05
0 -0.0155483 0.00051281 3.31678e-09
2.25875e-21 0.0155483 0.000512813 3.01836e-06
0 -0.0156089 5.68787e-05 2.46925e-09
6.77626e-21 0.0156089 5.68083e-05 3.30549e-06
0 -0.0156116 1.05395e-12 2.46804e-09
6.77626e-21 0.0156116 1.052e-12 3.30617e-06
-1.35525e-20 -0.0151553 0.00375099 7.75115e-10
1.35525e-20 0.0151553 0.00375102 1.25604e-05
1.12938e-21 -0.0156 0.00110029 4.60898e-09
4.51751e-22 0.0156 0.0011003 7.53757e-06
0 0.0155873 0.00178843 1.0948e-05
5.64689e-22 -0.0155873 0.00178844 1.50038e-09
0 0.0152736 0.00381163 1.29849e-05
-1.35525e-20 -0.0152736 0.00381161 6.53562e-10
1.35525e-20 0.015311 0.00369351 1.2752e-05
-1.35525e-20 -0.0153111 0.00369346 6.83353e-10
3.38813e-21 -0.0155683 0.00250748 1.03647e-09
3.38813e-21 0.0155683 0.00250748 9.25509e-06
-2.71051e-20 -0.015842 0.000233949 2.40733e-09
-5.42101e-20 0.0158421 0.000233943 3.16086e-06
1.807e-21 -0.0155232 0.00325343 7.34691e-10
-4.51751e-22 0.0155232 0.00325344 9.85273e-06
0 -0.0158871 0.00076245 5.69642e-09
-2.71051e-20 0.0158872 0.000762453 3.47422e-06
-1.35525e-20 -0.0154852 0.00363863 5.85253e-10
-1.35525e-20 0.0154852 0.00363865 1.27586e-05
-1.35525e-20 -0.0154926 0.00391517 4.59953e-10
6.77626e-21 0.0154927 0.00391521 1.33305e-05
2.71051e-20 -0.0159268 0.00138123 2.55144e-09
0 0.0159268 0.00138123 1.65214e-05
0 -0.0155592 0.00385208 4.448e-10
0 0.0155593 0.00385214 1.32324e-05
2.71051e-20 -0.0158993 0.00212235 1.97295e-09
0 0.0158993 0.00212235 1.48355e-05
-1.35525e-20 -0.0155753 0.00395587 3.89244e-10
0 0.0155754 0.0039559 1.32221e-05
2.71051e-20 -0.0158855 0.0028466 1.25546e-09
0 0.0158855 0.00284661 1.06807e-05
6.77626e-21 -0.0156481 0.00400349 3.22021e-10
6.77626e-21 0.0156482 0.00400349 1.31024e-05
3.38813e-21 -0.0161504 0.000464681 4.89576e-08
-3.95282e-21 0.0161505 0.000464663 7.6337e-06
0 -0.0156709 0.0039483 3.36411e-10
-1.35525e-20 0.0156709 0.00394832 1.30701e-05
-4.51751e-21 -0.0157655 0.00368362 4.10806e-10
2.25875e-21 0.0157655 0.00368363 1.14239e-05
4.23516e-21 0.0162446 7.65639e-14 7.029e-06
0 -0.0162451 7.5465e-14 8.23995e-08
2.11758e-21 -0.0162671 1.41522e-05 8.42903e-08
0 -0.0162672 1.7377e-06 8.49397e-08
7.19978e-21 0.0162672 1.45818e-05 7.1307e-06
0 0.0162715 1.44085e-06 7.15605e-06
-2.71051e-20 -0.0159384 0.00346447 4.25305e-10
0 0.0159384 0.00346448 8.06184e-06
2.82344e-22 -0.0162375 0.00174475 4.84586e-09
3.95282e-22 0.0162375 0.00174473 2.20425e-05
9.03502e-21 -0.0163344 0.000944395 4.08451e-08
-9.03502e-21 0.0163345 0.00094441 1.79232e-05
-2.71051e-20 -0.015896 0.00392571 1.86997e-10
0 0.015896 0.00392573 1.35172e-05
-1.6134e-21 -0.0162554 0.00244438 3.93985e-09
6.45358e-22 0.0162554 0.0024444 1.84562e-05
-1.35525e-20 -0.0159401 0.00419455 1.63557e-10
0 0.0159403 0.00419464 1.51999e-05
1.12938e-21 -0.0162141 0.00317059 2.40201e-09
5.64689e-22 0.0162141 0.0031706 1.22125e-05
0 -0.0159991 0.00414931 1.63536e-10
0 0.0159991 0.00414944 1.53891e-05
0 -0.016026 0.00425065 1.8498e-10
0 0.0160261 0.00425068 1.61652e-05
-1.8823e-22 -0.0166367 0.000352808 3.15336e-07
-1.8823e-22 0.0166369 0.00035298 1.20774e-05
0 0.0160816 0.0042869 1.56809e-05
1.35525e-20 -0.0160816 0.0042869 1.46927e-10
0 0.016105 0.00423208 1.57526e-05
1.35525e-20 -0.016105 0.00423203 1.48908e-10
0 0.016226 0.00384224 1.3185e-05
0 -0.0162264 0.00384238 6.99205e-10
-6.35275e-22 0.0162339 0.00382556 1.31886e-05
-1.37643e-21 -0.0162339 0.00382647 7.49354e-10
1.05879e-22 0.0162401 0.00384589 1.32367e-05
0 -0.0162351 0.00384457 7.06962e-10
0 -0.0167083 1.01691e-14 2.9108e-07
-6.77626e-21 0.0167085 1.01518e-14 1.17478e-05
0 -0.0166691 0.00146461 7.74753e-09
0 0.0166691 0.0014646 3.69139e-05
-5.42101e-20 -0.0165265 0.0028208 5.79668e-09
0 0.0165265 0.00282081 1.92237e-05
-1.35525e-20 0.0161983 0.00436312 1.64259e-05
-6.77626e-21 -0.0161984 0.00436319 2.08827e-10
-5.42101e-20 -0.0166645 0.00194623 6.85149e-09
-2.71051e-20 0.0166645 0.00194624 3.33867e-05
0 0.0165187 0.00350446 1.15098e-05
0 -0.0165187 0.00350446 2.45033e-09
1.35525e-20 -0.0169424 1.10016e-15 1.95025e-07
-1.35525e-20 0.0169426 1.10457e-15 2.64653e-05
-2.03288e-20 -0.0163499 0.00446211 2.11279e-10
0 0.0163499 0.0044621 1.81826e-05
-3.10579e-21 0.0169272 0.000866318 3.60351e-05
1.97641e-21 -0.0169272 0.000866361 8.93143e-08
-1.35525e-20 -0.0168735 0.00168495 9.36137e-09
1.35525e-20 0.0168736 0.00168495 4.16709e-05
0 0.0164548 0.00427999 1.89039e-05
-3.38813e-21 -0.0164549 0.00428001 2.13229e-10
9.88205e-22 0.0168849 0.00243443 3.12914e-05
9.88205e-22 -0.0168849 0.00243443 1.40872e-08
-6.77626e-21 -0.0164962 0.00455762 5.64977e-10
6.77626e-21 0.0164963 0.00455763 1.76234e-05
5.64689e-22 0.0168359 0.00316003 1.933e-05
5.64689e-22 -0.0168359 0.00316003 1.10705e-08
1.35525e-20 -0.0171338 1.74505e-16 2.27728e-07
0 0.0171342 1.75422e-16 3.48205e-05
0 -0.0170775 0.00142438 1.27458e-08
-2.71051e-20 0.0170775 0.00142436 5.19992e-05
4.06576e-21 -0.0171371 0.000271939 2.17366e-07
-8.13152e-21 0.0171374 0.000272002 3.71118e-05
2.71051e-20 -0.0170666 0.00192551 1.07854e-08
0 0.0170666 0.00192552 4.64088e-05
0 0.0167863 0.00388665 1.45628e-05
0 -0.0167864 0.00388664 4.48339e-09
0 -0.0166206 0.00463879 7.70177e-10
0 0.0166207 0.00463877 1.75779e-05
-2.71051e-20 0.0166524 0.00459992 1.77227e-05
0 -0.0166524 0.00459992 7.85724e-10
0 0.0166794 0.00467712 1.8264e-05
1.35525e-20 -0.0166795 0.00467715 1.17791e-09
2.35287e-22 -0.016844 0.00433503 1.78292e-09
4.70574e-23 0.0168452 0.00433528 1.6136e-05
-2.71051e-20 0.0171764 0.00277493 3.10704e-05
-2.71051e-20 -0.0171764 0.00277493 2.24378e-08
0 0.0174301 3.02821e-16 6.31191e-05
0 -0.0174308 3.00144e-16 1.6362e-07
0 0.0168042 0.00464355 1.91904e-05
-1.35525e-20 -0.0168042 0.00464358 1.55257e-09
-6.77626e-21 0.0167886 0.00474831 1.93841e-05
-1.35525e-20 -0.0167887 0.0047484 1.83341e-09
-6.77626e-21 0.017449 0.000139075 6.58266e-05
0 -0.0174496 0.000138384 1.5741e-07
2.71051e-20 0.0171294 0.00350658 1.61925e-05
0 -0.0171294 0.00350657 1.39554e-08
6.77626e-21 0.0175668 -2.95376e-17 7.86131e-05
0 -0.0175669 -2.94893e-17 1.09677e-07
5.64689e-22 -0.0175583 0.000896638 6.98784e-08
8.47033e-22 0.0175583 0.000896566 6.92803e-05
7.05861e-22 0.0175189 0.00167533 5.46429e-05
-2.82344e-22 -0.0175189 0.00167527 2.5221e-08
6.77626e-21 -0.0176062 4.62632e-05 1.05292e-07
0 0.0176064 4.65549e-05 8.30357e-05
6.77626e-21 -0.0176089 -8.34897e-18 1.05354e-07
-6.77626e-21 0.0176091 -8.34566e-18 8.31011e-05
-5.42101e-20 0.0171399 0.00413685 1.19274e-05
-2.71051e-20 -0.01714 0.00413686 3.9113e-09
0 -0.0176343 -4.66431e-18 1.0346e-07
6.77626e-21 0.0176347 -4.59267e-18 8.46525e-05
2.71051e-20 0.0170445 0.00462908 1.92156e-05
0 -0.0170445 0.00462914 1.97636e-09
5.64689e-22 0.0175376 0.00228764 4.24456e-05
1.12938e-21 -0.0175376 0.00228764 3.56281e-08
1.35525e-20 0.0170023 0.00488776 1.96935e-05
-2.71051e-20 -0.0170024 0.00488783 3.13872e-09
0 -0.0176972 4.73615e-05 1.01003e-07
0 0.017698 4.76654e-05 9.17899e-05
0 -0.0177005 -1.62468e-17 1.0103e-07
6.77626e-21 0.0177013 -1.6206e-17 9.17735e-05
-1.69407e-21 -0.0174646 0.00310783 4.02975e-08
9.03502e-22 0.0174646 0.00310785 2.69869e-05
0 0.0171112 0.00481659 1.95836e-05
0 -0.0171113 0.00481667 3.33896e-09
0 0.0171346 0.00497401 1.89991e-05
1.35525e-20 -0.0171347 0.00497413 3.95843e-09
-5.64689e-21 0.0174342 0.00383429 1.46375e-05
0 -0.0174342 0.00383429 2.44134e-08
-2.71051e-20 0.0172171 0.00502787 1.82652e-05
0 -0.0172173 0.00502799 4.51984e-09
1.35525e-20 0.0172554 0.00493142 1.84607e-05
0 -0.0172556 0.00493154 4.40222e-09
-3.76459e-22 0.0174076 0.00453333 1.55012e-05
-3.76459e-22 -0.0174076 0.00453336 7.94541e-09
0 0.0177905 0.00276845 3.62618e-05
2.71051e-20 -0.0177905 0.00276845 6.65971e-08
-2.71051e-20 0.0177573 0.00348298 1.94888e-05
2.71051e-20 -0.0177574 0.00348299 5.93744e-08
-6.77626e-21 0.017378 0.00513278 1.75243e-05
2.03288e-20 -0.0173781 0.0051329 6.05468e-09
0 0.0174497 0.00517959 1.76947e-05
0 -0.0174498 0.00517964 6.62654e-09
0 0.0177264 0.00417356 1.13543e-05
2.71051e-20 -0.0177264 0.00417357 2.35199e-08
6.77626e-21 0.0175029 0.00510088 1.80776e-05
0 -0.0175029 0.005101 6.57444e-09
1.0842e-19 -0.0181611 0.00171797 4.44089e-08
-5.42101e-20 0.0181612 0.00171798 6.49158e-05
6.77626e-21 -0.0175201 0.00522549 8.40994e-09
1.35525e-20 0.0175201 0.00522553 1.65438e-05
5.42101e-20 -0.0182822 0.000515621 5.39009e-08
0 0.0182823 0.000515628 0.000167302
1.05879e-22 0.0181327 0.00240414 4.22029e-05
4.97632e-21 -0.0181332 0.00240535 1.12351e-07
-2.11758e-22 -0.0181317 0.0024243 1.12847e-07
8.47033e-22 0.0181316 0.0024249 4.17921e-05
-3.01167e-21 0.0176138 0.0049468 1.83523e-05
1.05409e-20 -0.0176139 0.00494682 6.70442e-09
2.82344e-21 -0.0180947 0.00311468 1.30928e-07
0 0.0180947 0.00311468 2.76724e-05
1.12938e-21 0.0180563 0.00382343 1.56576e-05
1.12938e-21 -0.0180563 0.00382343 9.97172e-08
0 -0.0177083 0.00534826 1.18248e-08
0 0.0177083 0.00534827 1.41555e-05
-1.35525e-20 -0.0177632 0.00528867 1.21604e-08
0 0.0177632 0.00528872 1.43e-05
-4.51751e-21 0.0179883 0.0045481 1.18318e-05
-4.51751e-21 -0.0179884 0.00454809 4.13766e-08
2.71051e-20 0.0178024 0.00540967 1.44574e-05
0 -0.0178025 0.0054097 1.74573e-08
-2.71051e-20 -0.0184402 0.00274762 1.94923e-07
0 0.0184402 0.00274761 3.44111e-05
2.25875e-21 0.0180053 0.00502464 1.24021e-05
-1.35525e-21 -0.0180053 0.00502466 1.91162e-08
2.71051e-20 0.0183918 0.00345434 2.05587e-05
0 -0.0183918 0.00345433 1.99609e-07
6.77626e-21 0.0179451 0.00550277 1.43873e-05
-6.77626e-21 -0.0179453 0.00550285 2.70324e-08
-2.71051e-20 0.0183611 0.00415361 1.14006e-05
2.71051e-20 -0.0183611 0.00415361 1.16994e-07
0 0.0188421 7.04156e-05 0.000201805
0 -0.0188422 7.03628e-05 7.28515e-08
0 0.0188477 1.10464e-18 0.00020184
0 -0.0188477 1.06274e-18 7.28773e-08
2.25875e-21 -0.0188602 0.00112833 9.77069e-08
2.25875e-21 0.0188602 0.00112834 0.000138777
-6.77626e-21 -0.0180592 0.00557717 3.08877e-08
1.35525e-20 0.0180593 0.00557723 1.33718e-05
0 0.0181347 0.00538311 1.36009e-05
4.51751e-21 -0.0181348 0.00538307 2.67069e-08
1.35525e-20 -0.018942 6.21249e-19 7.93816e-08
-1.35525e-20 0.018942 6.17799e-19 0.000209834
4.51751e-21 -0.0188166 0.00228404 2.89657e-07
-5.64689e-21 0.0188167 0.00228404 4.62964e-05
0 0.0183535 0.00480356 6.64647e-06
0 -0.0183536 0.00480356 3.64191e-08
-1.27055e-21 -0.0187311 0.00307208 3.57059e-07
5.64689e-22 0.0187311 0.00307209 2.83884e-05
0 -0.0190249 8.5231e-05 8.45885e-08
1.35525e-20 0.019025 8.52886e-05 0.000217407
-1.35525e-20 -0.0190315 5.66644e-19 8.46765e-08
1.35525e-20 0.0190316 5.63374e-19 0.000217517
-2.71051e-20 -0.0182205 0.00568238 3.45316e-08
-1.35525e-20 0.0182205 0.00568238 1.14552e-05
-4.5881e-22 0.0187398 0.00374577 1.62228e-05
4.94103e-22 -0.0187398 0.00374577 3.3771e-07
0 0.0186713 0.00447942 8.80536e-06
-3.38813e-21 -0.0186713 0.00447942 1.89235e-07
-1.35525e-20 0.0183608 0.00577389 9.81137e-06
1.35525e-20 -0.0183608 0.00577392 4.40943e-08
1.35525e-20 0.018471 0.00561106 9.75566e-06
5.42101e-21 -0.018471 0.00561103 4.05457e-08
-8.13152e-21 -0.0186129 0.00519728 6.84319e-08
3.61401e-21 0.0186129 0.00519728 7.87781e-06
2.71051e-20 -0.0191646 0.00284904 6.8555e-07
-2.71051e-20 0.0191646 0.00284904 3.23755e-05
-6.77626e-21 -0.0184854 0.00585515 4.81114e-08
1.35525e-20 0.0184855 0.00585524 8.9346e-06
-2.71051e-20 0.0191555 0.0033016 2.07713e-05
0 -0.0191555 0.00330159 6.98495e-07
0 -0.0190101 0.00412451 4.18908e-07
-2.71051e-20 0.0190101 0.00412452 1.1702e-05
0 -0.0185922 0.00576694 4.6984e-08
0 0.0185922 0.00576709 8.71736e-06
1.35525e-20 -0.0186006 0.00593031 4.63074e-08
1.35525e-20 0.0186007 0.00593035 8.05986e-06
0 -0.0195235 0.000571337 1.0399e-07
-5.42101e-20 0.0195235 0.000571339 0.000251791
-5.42101e-20 -0.0194631 0.0017685 1.88131e-07
-5.42101e-20 0.0194631 0.0017685 6.41348e-05
-2.82344e-22 -0.0194127 0.0024132 5.62576e-07
0 0.0194127 0.00241321 4.00648e-05
0 -0.0189749 0.00481043 1.96668e-07
0 0.0189749 0.00481044 5.66908e-06
0 -0.0193686 0.00306998 8.01537e-07
0 0.0193686 0.00306998 2.45432e-05
1.50584e-21 -0.0188275 0.00563325 5.04745e-08
1.50584e-21 0.0188275 0.00563327 6.80835e-06
2.03288e-20 0.0187165 0.00600599 7.65416e-06
-6.77626e-21 -0.0187166 0.00600601 5.87033e-08
1.35525e-20 0.018758 0.00590207 7.78851e-06
-1.35525e-20 -0.0187581 0.00590201 5.46144e-08
-7.05861e-22 0.0193727 0.00376105 1.50551e-05
-1.41172e-21 -0.0193727 0.00376105 9.31949e-07
-2.71051e-20 -0.0190128 0.00540896 5.5704e-08
-2.71051e-20 0.0190128 0.00540898 3.78507e-06
-2.71051e-20 -0.0195979 0.00284199 9.08608e-07
0 0.0195979 0.00284199 2.40817e-05
-1.12938e-21 -0.0193152 0.00445137 6.46229e-07
-1.12938e-21 0.0193152 0.00445138 8.72874e-06
-2.71051e-20 -0.0189326 0.00587663 5.62867e-08
0 0.0189326 0.00587667 7.23224e-06
1.35525e-20 -0.0188663 0.00610385 7.24525e-08
-2.71051e-20 0.0188665 0.006104 7.36897e-06
0 -0.0195614 0.00328798 1.01142e-06
0 0.0195614 0.00328799 2.02525e-05
1.35525e-20 -0.0189889 0.00604035 7.50584e-08
-2.71051e-20 0.0189891 0.00604056 7.36951e-06
1.12938e-21 -0.0192967 0.00511377 3.11448e-07
0 0.0192967 0.00511379 4.63365e-06
0 -0.0190006 0.00619146 7.92731e-08
1.35525e-20 0.0190007 0.00619154 7.07296e-06
0 0.0200621 6.76767e-05 0.000259836
0 -0.0200621 6.76468e-05 1.46422e-07
-1.35525e-20 0.020064 4.17066e-20 0.000259787
1.35525e-20 -0.020064 4.17825e-20 1.46294e-07
2.71051e-20 0.0196641 0.0040803 1.16702e-05
0 -0.0196641 0.0040803 1.1947e-06
0 -0.0190835 0.00626078 8.4346e-08
-1.35525e-20 0.0190836 0.0062608 6.89168e-06
1.35525e-20 -0.0191312 0.00616555 8.40088e-08
1.35525e-20 0.0191312 0.00616565 6.98686e-06
-5.64689e-21 0.0201001 0.00115692 0.000161849
-2.25875e-21 -0.0201001 0.00115692 2.75963e-07
0 0.020134 -1.86019e-22 0.000260998
0 -0.020134 -2.64557e-22 1.49332e-07
3.01167e-21 -0.0192828 0.00579514 1.10051e-07
1.8823e-21 0.0192828 0.00579515 5.51575e-06
0 -0.0196202 0.00477317 7.79939e-07
-2.71051e-20 0.0196202 0.00477318 5.93446e-06
0 -0.0201991 6.4721e-05 1.48233e-07
0 0.0201991 6.47462e-05 0.000262945
0 -0.020202 -1.30739e-21 1.48178e-07
0 0.020202 -1.26102e-21 0.000262961
-1.12938e-21 0.0200841 0.00236289 3.98093e-05
-2.25875e-21 -0.0200841 0.00236289 1.25447e-06
2.82344e-22 0.0200029 0.003057 2.21738e-05
0 -0.0200029 0.00305699 1.77955e-06
-1.35525e-20 0.0192378 0.00638357 6.61764e-06
-1.35525e-20 -0.0192378 0.00638366 1.03246e-07
0 -0.0195958 0.00544032 2.52149e-07
5.42101e-20 0.0195959 0.00544034 3.24212e-06
0 -0.0193039 0.00643681 1.12174e-07
0 0.0193041 0.00643685 6.71197e-06
0 0.0200275 0.00361572 1.59611e-05
-5.64689e-22 -0.0200275 0.00361572 2.15975e-06
6.77626e-21 -0.0193634 0.00636556 1.13755e-07
0 0.0193636 0.00636543 6.88119e-06
0 -0.0193735 0.00649738 1.18321e-07
0 0.0193738 0.00649756 6.32463e-06
-1.12938e-22 -0.01996 0.00438812 1.98789e-06
3.38813e-22 0.01996 0.00438813 9.94101e-06
-4.51751e-21 -0.0194904 0.00622237 1.17168e-07
0 0.0194905 0.00622241 7.01817e-06
2.25875e-21 -0.019924 0.00509886 1.17152e-06
0 0.019924 0.00509886 5.2777e-06
0 -0.0195415 0.00664813 1.35405e-07
-1.35525e-20 0.0195417 0.00664818 5.53424e-06
-2.71051e-20 0.0202851 0.004065 1.26377e-05
2.71051e-20 -0.0202851 0.004065 3.32089e-06
4.51751e-21 -0.0198605 0.00581199 4.18485e-07
2.25875e-21 0.0198605 0.00581203 4.65323e-06
1.35525e-20 -0.0196164 0.00659812 1.37629e-07
-1.35525e-20 0.0196165 0.00659819 5.62735e-06
5.42101e-20 0.0207232 0.000580771 0.000271497
0 -0.0207232 0.000580773 1.92675e-07
0 -0.0196177 0.00671647 1.5897e-07
0 0.0196179 0.00671645 5.95774e-06
0 -0.020698 0.00176856 6.2703e-07
5.42101e-20 0.020698 0.00176856 5.34873e-05
2.71051e-20 0.020263 0.00474092 7.52738e-06
0 -0.020263 0.00474092 2.57459e-06
0 -0.0196919 0.00678279 1.37768e-07
0 0.019692 0.0067827 5.31397e-06
1.35525e-20 -0.0197373 0.00670394 1.39488e-07
-2.71051e-20 0.0197374 0.00670392 5.43702e-06
5.42101e-20 0.0206519 0.00305779 2.2102e-05
0 -0.0206519 0.0030578 3.59641e-06
-4.03349e-22 -0.0199196 0.00639126 1.84926e-07
0 0.0199197 0.00639124 5.14277e-06
0 -0.0202264 0.00542436 1.11082e-06
2.71051e-20 0.0202264 0.00542437 4.4737e-06
0 0.0206219 0.00375042 1.64513e-05
1.41172e-22 -0.0206228 0.00375111 4.3488e-06
-1.35525e-20 0.0198641 0.00693674 5.33179e-06
1.35525e-20 -0.0198641 0.00693696 1.61092e-07
5.64689e-22 0.0205958 0.00438945 1.2444e-05
0 -0.0205958 0.00438945 4.30928e-06
-2.71051e-20 -0.0202261 0.00606702 3.70435e-07
2.71051e-20 0.0202262 0.00606702 3.75522e-06
-6.77626e-21 -0.019943 0.00700755 1.69419e-07
-6.77626e-21 0.0199432 0.00700748 5.3524e-06
0 -0.0200066 0.00693929 1.71686e-07
6.77626e-21 0.0200069 0.00693907 5.49203e-06
0 -0.0205707 0.00506212 3.2884e-06
0 0.0205707 0.00506212 8.90365e-06
6.77626e-21 -0.0200222 0.00707844 1.79413e-07
6.77626e-21 0.0200226 0.00707852 5.23944e-06
0 -0.0201294 0.00680929 1.76228e-07
-1.50584e-21 0.0201295 0.00680925 5.68374e-06
0 0.0212882 4.76335e-05 0.000270874
0 -0.0212882 4.76213e-05 3.92432e-07
0 0.0212888 7.24532e-22 0.000270875
0 -0.0212888 7.03166e-22 3.92052e-07
-2.71051e-20 -0.0209335 0.00403737 5.77131e-06
0 0.0209335 0.00403737 1.70191e-05
-1.12938e-21 -0.0205488 0.00572803 1.75619e-06
0 0.0205489 0.00572802 6.79736e-06
6.77626e-21 -0.0213388 -2.81827e-23 4.08621e-07
0 0.0213388 -2.94246e-23 0.000270798
1.12938e-21 0.0213183 0.00116254 0.000163225
0 -0.0213183 0.00116254 8.10937e-07
0 -0.0213864 4.64638e-05 4.18167e-07
-6.77626e-21 0.0213864 4.6476e-05 0.000270925
-6.77626e-21 -0.0213874 -2.6136e-23 4.18177e-07
-6.77626e-21 0.0213874 -2.73181e-23 0.000270925
-2.71051e-20 0.0208978 0.00471075 1.25341e-05
-2.71051e-20 -0.0208978 0.00471075 5.53896e-06
-5.64689e-22 0.0212954 0.00239197 4.15324e-05
5.64689e-22 -0.0212954 0.00239197 3.47954e-06
2.71051e-20 -0.0201947 0.00723274 2.0429e-07
1.35525e-20 0.020195 0.00723268 5.13089e-06
-2.25875e-21 -0.0204968 0.00642258 6.40762e-07
-9.03502e-21 0.0204969 0.00642257 6.07885e-06
0 -0.0202705 0.00718367 2.07393e-07
-1.35525e-20 0.0202707 0.00718366 5.22356e-06
2.71051e-20 -0.0202683 0.00729857 2.38046e-07
-2.71051e-20 0.0202686 0.00729845 5.7241e-06
-2.71051e-20 -0.0208996 0.00536218 3.85978e-06
-2.71051e-20 0.0208996 0.00536217 1.08786e-05
0 -0.0203418 0.00736426 2.04569e-07
2.71051e-20 0.020342 0.00736407 5.14009e-06
1.69407e-22 0.0213396 0.00363556 2.76988e-05
1.24231e-21 -0.0213396 0.00363555 7.41726e-06
0 -0.0203851 0.00728766 2.07604e-07
1.35525e-20 0.0203852 0.00728755 5.23059e-06
7.52918e-22 -0.0212333 0.00436374 7.48526e-06
3.76459e-22 0.0212333 0.00436374 2.17173e-05