# omega  POINT_DATA 53253
# x  y  z  omega
0.0199996 0 6.27196e-08 1583.18
-0.0199996 0 6.27196e-08 1583.03
0.0199996 0 0.000164442 1568.91
-0.0199996 0 0.00016442 1568.76
0.0199996 6.77626e-21 0.000494346 1896.37
-0.0199996 -3.38813e-21 0.000494294 1896.23
0.0199996 -6.77626e-21 0.000661321 2207.98
-0.0199996 6.77626e-21 0.000661243 2207.81
-0.0199996 6.77626e-21 0.000837166 2476.84
0.0199996 -3.38813e-21 0.000837249 2477.02
-0.0199996 6.77626e-21 0.0011807 2988.82
0.0199996 3.38813e-21 0.00118076 2988.88
-0.0199996 0 0.00135636 3180.88
0.0199996 -6.77626e-21 0.00135644 3180.94
-0.0199996 -3.38813e-21 0.00154016 3278.87
0.0199996 -3.38813e-21 0.00154025 3278.94
0.0200767 0 6.659e-05 1612.09
-0.0200767 0 6.65901e-05 1611.9
-0.0200781 0 6.52655e-08 1611.81
0.0200781 0 6.52657e-08 1612
0.0200799 -6.77626e-21 0.000590246 2137.62
-0.0200799 0 0.000590204 2137.44
-0.0200759 0 0.000728756 2382.62
0.0200759 6.77626e-21 0.000728801 2382.81
-0.0199996 -3.38813e-21 0.00190617 2676.53
0.0199996 -3.38813e-21 0.00190619 2676.49
0.0199996 -6.77626e-21 0.002087 2075.85
-0.0199996 6.77626e-21 0.002087 2076.01
-0.0200757 -6.77626e-21 0.00127189 3191.95
0.0200757 -6.77626e-21 0.00127193 3192
-0.0200724 6.77626e-21 0.00141167 3315.72
0.0200724 1.35525e-20 0.00141172 3315.78
-0.0201349 4.06576e-20 6.62424e-08 1554.43
0.0201349 0 6.62432e-08 1554.68
-0.0201347 -1.35525e-20 0.00065509 2089.98
0.0201347 0 0.000655092 2091.75
-0.0200697 6.77626e-21 0.00197791 2390.38
0.0200697 6.77626e-21 0.00197791 2390.22
-0.0201289 -2.03288e-20 0.00132685 2952.8
0.0201289 2.71051e-20 0.00132685 2955.39
-0.0200872 0 0.00211021 1879.11
0.0200872 6.77626e-21 0.00211021 1878.84
-0.0201043 0 0.00206082 1993.41
0.0201043 0 0.00206081 1993.14
0.0201292 0 0.00199355 2044.88
-0.0201291 -6.77626e-21 0.00199358 2043.67
-0.0201574 0 0.00212882 1993.09
0.0201575 -6.77626e-21 0.00212883 1992.84
-0.020211 6.77626e-21 0.00203552 1890.74
0.020211 -6.77626e-21 0.0020355 1890.37
0.0203752 1.69407e-20 7.14249e-08 1742.94
-0.0203752 -1.35525e-20 7.14223e-08 1742.61
0.0203552 6.77626e-22 0.000964574 3101.79
-0.0203552 0 0.000964653 3100.99
-0.0203848 -1.807e-21 0.00031854 1710.38
0.0203848 4.51751e-22 0.000318497 1710.81
0.0203485 1.8823e-22 0.00158862 3639.11
-0.0203485 -9.41148e-22 0.00158869 3638.95
-0.0204541 -5.0822e-21 7.18949e-08 1615.55
0.0204542 1.69407e-21 7.18988e-08 1615.78
0.0203479 3.38813e-21 0.0020921 1513.9
-0.0203479 -6.77626e-21 0.00209212 1514.41
-0.0203454 0 0.00217864 1487.24
0.0203454 -1.35525e-20 0.00217865 1486.77
0.0204014 0 0.00198909 1616.48
-0.0204014 -1.35525e-20 0.00198912 1616.95
0.0204481 -5.42101e-20 0.00220585 1621.86
-0.0204481 -2.71051e-20 0.00220584 1622.12
-0.0206171 6.77626e-21 7.35947e-08 1208.59
0.0206171 -6.77626e-21 7.35999e-08 1208.87
0.0206345 2.25875e-21 0.00124186 1475.02
-0.0206345 -2.25875e-21 0.00124198 1473.02
0.0206729 0 7.48669e-08 1156.65
-0.0206729 6.77626e-21 7.48621e-08 1156.36
0.0206741 6.77626e-21 7.00031e-05 1156.64
-0.0206742 6.77626e-21 7.0039e-05 1156.36
0.0206667 4.51751e-21 0.000657407 1236.69
-0.0206667 -7.90564e-21 0.000657517 1235
0.0206275 1.35525e-21 0.0016945 1580.16
-0.0206275 -4.06576e-21 0.00169457 1579.92
0.0205976 0 0.00224546 1116.96
-0.0205976 -1.35525e-20 0.00224545 1117.12
0.020822 6.77626e-21 8.13398e-08 1102.38
-0.0208222 0 8.13398e-08 1102.14
-0.0208462 1.35525e-20 0.000330944 971.073
0.0208462 0 0.000330924 971.22
0.0208502 -1.35525e-20 0.000953835 994.579
-0.0208502 -1.35525e-20 0.000953873 997.817
0.0208443 -1.35525e-20 0.00153528 1098.57
-0.0208443 2.71051e-20 0.00153531 1098.67
0.0208065 -1.41172e-21 0.00198301 1032.67
-0.0208065 8.47033e-22 0.00198302 1032.61
0.0209014 -6.77626e-21 0.00232595 1139.23
-0.0209014 6.77626e-21 0.00232594 1139.34
0.0210643 -1.35525e-20 9.1532e-05 939.911
-0.0210643 0 9.15048e-05 939.892
0.021067 1.35525e-20 7.81651e-08 942.935
-0.021067 0 7.81689e-08 942.918
-0.0209629 4.06576e-20 0.00234223 1215.62
0.0209629 -6.77626e-21 0.00234225 1215.56
-0.0210006 -6.77626e-21 0.00235224 1146.86
0.0210006 0 0.00235226 1146.79
-0.0211368 1.35525e-20 7.77042e-08 979.433
0.0211368 0 7.76997e-08 979.417
-0.021129 -9.03502e-21 0.00122302 682.175
0.021129 0 0.00122304 686.466
-0.0211316 -1.16165e-20 0.00168768 846.088
0.0211316 -5.80823e-21 0.00168768 851.917
-0.0210928 0 0.00225831 1083.37
0.0210928 3.38813e-21 0.0022583 1083.31
-0.0212074 -4.51751e-21 0.000639305 771.879
0.0212074 6.77626e-21 0.000639333 774.464
-0.0212432 1.35525e-20 6.9493e-08 954.382
0.0212432 0 6.94858e-08 954.317
-0.0212484 -1.35525e-20 0.000106497 952.236
0.0212484 -6.77626e-21 0.000106548 952.169
-0.0211906 3.38813e-21 0.00240258 1186.89
0.0211906 0 0.00240261 1186.91
0.0213439 5.64689e-21 0.0020251 823.176
-0.0213439 -9.03502e-21 0.00202507 822.619
-0.021371 0 0.00245037 1195.9
0.021371 -6.77626e-21 0.00245038 1196
-0.0213837 0 0.00242601 1193.07
0.0213837 0 0.00242602 1193.17
-0.0214676 -6.77626e-21 0.00151459 434.583
0.0214676 -9.03502e-21 0.00151465 438.284
-0.0215176 -6.77626e-21 0.000962569 397.643
0.0215177 6.77626e-21 0.000962662 399.996
-0.0215442 -8.13152e-21 0.000394958 782.08
0.0215442 -5.42101e-21 0.000395018 782.403
0.0214146 0 0.00239563 1130.97
-0.0214146 -6.77626e-21 0.00239562 1130.52
0.0214166 -6.77626e-21 0.00246246 1242.38
-0.0214166 1.35525e-20 0.00246245 1242.29
0.0216582 1.35525e-20 0.000128741 851.537
-0.0216582 0 0.000128718 851.778
0.0216619 -1.35525e-20 1.14562e-08 851.684
-0.021662 0 1.14549e-08 851.929
-0.0217415 -2.71051e-20 0.000612322 579.741
0.0217415 0 0.000612439 581.043
-0.021737 0 0.00121881 336.458
0.021737 0 0.00121894 339.331
0.021641 0 0.0025219 1431.15
-0.021641 0 0.00252189 1430.98
0.02179 1.35525e-20 2.38075e-09 855.034
-0.02179 1.35525e-20 2.38045e-09 855.33
-0.02171 -2.71051e-20 0.0018706 690.412
0.02171 -2.71051e-20 0.00187066 694.746
0.0216778 1.8823e-21 0.00229009 1335.79
-0.0216778 1.8823e-21 0.00229005 1335.51
-0.0219185 0 2.30219e-09 845.017
0.0219185 -1.35525e-20 2.30245e-09 844.694
-0.0219202 1.35525e-20 0.000137029 844.549
0.0219202 0 0.000137066 844.226
-0.0218192 0 0.00256913 1744.28
0.0218192 0 0.00256913 1744.53
-0.0219845 5.42101e-21 0.00039594 758.498
0.0219845 5.42101e-21 0.000396027 758.666
0.0219638 0 0.00229016 1421.92
-0.0219638 1.12938e-21 0.00229013 1417.56
-0.022074 0 0.000916488 271.404
0.022074 -2.25875e-21 0.000916652 274.128
0.0219561 -1.35525e-20 0.0025286 2038.04
-0.0219561 1.35525e-20 0.00252859 2037.77
-0.0220578 0 0.00154542 254.675
0.0220578 -4.51751e-21 0.00154554 258.617
0.0219647 6.77626e-21 0.00260764 2159.15
-0.0219647 -1.35525e-20 0.00260764 2158.91
-0.0220662 -9.03502e-21 0.00204922 619.39
0.0220662 -4.51751e-21 0.00204927 630.997
0.0222375 -1.35525e-20 0.000149298 828.658
-0.0222375 0 0.000149261 829.086
0.0222467 0 3.22502e-09 828.629
-0.0222467 1.35525e-20 3.22489e-09 829.062
0.0221408 1.89735e-20 0.00250166 2103.77
-0.0221408 -1.35525e-20 0.00250165 2103.47
-0.0221237 -1.35525e-20 0.00264976 2244.08
0.0221238 0 0.00264976 2244.37
-0.0223263 -1.93608e-20 0.000544368 616.518
0.0223263 7.7443e-21 0.000544521 617.088
-0.0223861 1.35525e-20 3.11769e-09 837.54
0.0223861 1.35525e-20 3.11777e-09 837.066
-0.0223888 0 0.00123026 176.91
0.0223888 2.71051e-20 0.00123046 180.155
-0.0223621 0 0.00189307 478.478
0.0223621 0 0.00189318 482.731
0.022297 0 0.00269561 1712.52
-0.022297 1.35525e-20 0.00269561 1712.29
0.0223597 2.11758e-22 0.00232885 1296.26
-0.0223597 -2.82344e-22 0.00232881 1292.56
-0.0225373 -1.35525e-20 3.03035e-09 848.321
0.0225373 0 3.03039e-09 847.843
-0.0225385 0 0.000146287 848.242
0.0225385 1.35525e-20 0.000146333 847.764
-0.0227012 -2.25875e-21 0.000916023 232.914
0.0227012 0 0.000916234 235.286
-0.0226844 -4.51751e-21 0.00155903 183.822
0.0226844 4.51751e-21 0.00155921 189.197
-0.0227492 -9.03502e-21 0.000352645 770.952
0.0227492 4.51751e-21 0.000352762 770.819
0.0226132 -1.2282e-20 0.00277935 1838.08
-0.0226133 1.82112e-20 0.00277937 1837.84
-0.0226206 1.52466e-20 0.00278132 1837.45
0.0226206 -9.74088e-21 0.00278132 1837.68
-0.0227194 -6.77626e-21 0.00213973 511.528
0.0227194 1.35525e-20 0.00213981 514.494
-0.0226786 -4.51751e-21 0.00257495 1720.85
0.0226786 0 0.00257497 1721.24
-0.0228459 1.35525e-20 3.06872e-09 866.279
0.0228459 0 3.06855e-09 865.718
-0.0230054 -2.71051e-20 2.97301e-09 872.914
0.0230055 2.71051e-20 2.97281e-09 872.3
-0.0230123 2.71051e-20 0.000601967 518.914
0.0230123 0 0.000602177 519.81
-0.023008 0 0.00123165 137.101
0.023008 0 0.0012319 140.577
-0.0229679 2.71051e-20 0.00191396 359.647
0.0229679 5.42101e-20 0.0019141 363.529
0.0229069 -2.71051e-20 0.00285715 1487.86
-0.0229069 0 0.00285715 1487.58
-0.0230246 -2.71051e-20 0.0024179 1039.51
0.0230246 2.71051e-20 0.00241795 1042.56
-0.0231706 2.71051e-20 2.61999e-09 879.363
0.0231707 -1.35525e-20 2.6198e-09 878.764
-0.0232775 -6.77626e-21 0.000961767 194.531
0.0232775 4.51751e-21 0.000962019 196.842
-0.0231303 1.35525e-20 0.00291661 1366.7
0.0231303 4.06576e-20 0.00291662 1366.87
-0.0233249 6.77626e-21 0.000300575 809.327
0.023325 2.25875e-21 0.000300687 809.042
-0.0233201 0 0.00155413 134.269
0.0233201 -2.25875e-21 0.00155433 138.301
-0.0233275 4.51751e-21 0.00215862 380.47
0.0233275 1.58113e-20 0.00215872 381.128
-0.0232742 1.12938e-21 0.00268392 1341
0.0232742 1.807e-21 0.00268395 1341.28
-0.023471 0 1.49916e-09 892.593
0.023471 0 1.49905e-09 891.985
0.0233563 -6.77626e-21 0.0029773 1299.09
-0.0233564 -6.77626e-21 0.00297732 1298.89
-0.0236362 -2.71051e-20 1.14287e-09 907.692
0.0236362 -2.71051e-20 1.14277e-09 907.06
-0.0236942 -6.77626e-21 0.000643529 482.346
0.0236943 0 0.000643725 483.532
-0.0235255 -5.42101e-20 0.00302244 1302.74
0.0235255 1.35525e-20 0.00302244 1302.96
-0.0236289 2.71051e-20 0.00246429 834.013
0.0236289 0 0.00246434 838.081
-0.0237458 -4.51751e-21 0.00121852 118.956
0.0237458 -4.51751e-21 0.00121876 122.525
0.023712 3.67854e-20 0.00179082 141.211
-0.023712 2.12968e-20 0.00179064 136.373
-0.0238007 1.35525e-20 1.02427e-09 916.939
0.0238007 1.35525e-20 1.02417e-09 916.351
-0.0236242 0 0.00304884 1087.76
0.0236242 0 0.00304886 1087.82
-0.0238637 8.13152e-21 0.000205193 920.864
0.0238637 1.0842e-20 0.000205258 920.28
0.0238647 9.03502e-21 0.00216536 277.092
-0.0238648 -4.51751e-21 0.00216526 273.875
-0.0239679 0 0.000897771 151.165
0.023968 0 0.00089799 154.031
-0.0239683 2.71051e-20 0.00153338 78.6985
0.0239683 0 0.00153358 83.1038
-0.0238625 -5.29396e-23 0.00276289 842.996
0.0238638 0 0.00276308 842.004
-0.0238739 -4.23516e-21 0.00276895 834.731
0.0238718 6.14099e-21 0.00276533 834.765
0.024114 0 6.40638e-10 940.558
-0.024114 0 6.40703e-10 941.073
-0.0241188 2.71051e-20 0.000144133 941.051
0.0241188 0 0.000144175 940.534
0.023916 0 0.00312792 1050.49
-0.0239161 0 0.00312794 1050.43
-0.0239647 0 0.00314097 1109.19
0.0239647 0 0.00314096 1109.35
-0.0242749 0 5.21808e-10 971.989
0.0242749 0 5.21745e-10 971.477
-0.0242836 -6.77626e-21 0.000580904 563.685
0.0242836 0 0.000581052 564.772
-0.0242888 0 0.00120234 114.546
0.0242889 9.03502e-21 0.00120253 118.442
-0.0242868 4.51751e-21 0.00186197 114.495
0.0242869 0 0.00186211 119.585
-0.0241659 0 0.003195 1247.71
0.0241661 1.69407e-21 0.00319503 1247.99
0.0241862 4.23516e-22 0.00320043 1264.05
-0.0241863 -4.23516e-22 0.00320044 1263.89
0.0241881 5.50571e-21 0.00319265 1261.64
-0.0241882 0 0.0031926 1261.47
-0.0244313 2.71051e-20 0.000134539 976.662
0.0244313 1.35525e-20 0.00013457 976.204
-0.0244331 0 4.67599e-10 977.382
0.0244331 0 4.67535e-10 976.927
-0.0243349 9.03502e-21 0.00249839 555.596
0.0243349 -9.03502e-21 0.00249847 563.602
0.0242974 4.51751e-21 0.0029262 1210.5
-0.0242974 0 0.00292619 1209.68
-0.0243695 6.77626e-21 0.00315162 1484.14
0.0243695 0 0.00315166 1484.34
-0.0246008 -2.71051e-20 0.000284661 988.883
0.0246009 -2.71051e-20 0.000284725 988.48
-0.0243971 -6.77626e-21 0.00325796 1590.77
0.0243971 -6.77626e-21 0.00325796 1590.92
-0.0246107 0 0.000878458 156.615
0.0246107 0 0.000878612 159.221
-0.0246166 0 0.00151509 69.4898
0.0246166 -2.71051e-20 0.00151523 75.2217
0.0244715 -6.77626e-21 0.00314417 1495.66
-0.0244715 0 0.00314413 1492.27
0.024504 -6.77626e-21 0.00290416 1246.66
-0.024504 -3.38813e-21 0.00290416 1240.27
0.024478 -6.77626e-21 0.00323287 1728.81
-0.024478 6.77626e-21 0.00323286 1728.72
0.0244844 6.77626e-21 0.00328126 1792.55
-0.0244844 0 0.00328126 1792.49
-0.0246093 -2.71051e-20 0.00219408 126.441
0.0246093 2.71051e-20 0.00219416 133.312
-0.0247622 -1.35525e-20 2.5336e-10 1001.5
0.0247622 0 2.5332e-10 1001.15
-0.0247664 1.35525e-20 0.000132487 1001.23
0.0247664 1.35525e-20 0.000132517 1000.88
0.0246224 6.77626e-21 0.00297464 1375.21
-0.0246224 -1.35525e-20 0.00297462 1367.62
-0.0249174 0 1.99007e-10 1043.49
0.0249175 1.35525e-20 1.98966e-10 1043.17
0.0247048 1.35525e-20 0.00334016 2081.9
-0.0247048 0 0.00334016 2081.83
-0.0249272 2.25875e-21 0.00056588 598.48
0.0249272 2.25875e-21 0.000565967 599.412
-0.0249353 4.51751e-21 0.00118332 113.718
0.0249353 0 0.00118344 117.706
0.0247708 -1.35525e-20 0.00325092 2041.82
-0.0247708 -1.35525e-20 0.00325093 2041.73
-0.0249332 -4.51751e-21 0.0018542 89.7191
0.0249332 0 0.00185429 96.4637
-0.0249124 1.12938e-20 0.00254742 449.726
0.0249124 9.03502e-21 0.00254746 462.581
-0.02507 0 0.000129685 1032.68
0.02507 -2.71051e-20 0.000129701 1032.41
-0.0250722 0 1.71469e-10 1033.87
0.0250723 0 1.71434e-10 1033.61
0.0248681 0 0.00338376 1730.6
-0.0248681 -5.42101e-20 0.00338375 1730.48
-0.024966 -4.51751e-22 0.00300203 1303.09
0.024966 -1.807e-21 0.00300205 1312.5
-0.0252401 -2.71051e-20 0.000277338 1043.18
0.0252401 2.71051e-20 0.000277376 1042.97
-0.0252519 2.71051e-20 0.000862008 162.225
0.0252519 -2.71051e-20 0.000862093 164.046
-0.0252581 0 0.0015011 63.8545
0.0252581 0 0.00150118 69.7138
-0.025094 0 0.00344393 1628.73
0.025094 2.03288e-20 0.00344395 1628.91
-0.0252522 -2.71051e-20 0.00218233 95.0803
0.0252522 0 0.00218237 103.778
-0.0253959 0 6.82351e-11 1057.27
0.0253959 0 6.82188e-11 1057.12
-0.0254017 -1.35525e-20 0.000130113 1056.65
0.0254017 1.35525e-20 0.000130131 1056.5
-0.0252838 0 0.00277254 321.309
0.0252839 0 0.00277257 341.75
-0.0252273 0 0.00330818 1753.63
0.0252273 0 0.00330821 1753.81
-0.0252595 6.77626e-21 0.00348812 1625.96
0.0252596 6.77626e-21 0.00348815 1626.17
-0.0255539 0 4.13675e-11 1110.66
0.0255539 2.71051e-20 4.13565e-11 1110.54
-0.0255655 -2.25875e-21 0.000552596 632.031
0.0255655 2.25875e-21 0.000552632 632.727
-0.0255758 0 0.00116683 114.776
0.0255758 0 0.00116688 118.568
-0.0255762 -1.12938e-21 0.00183976 73.235
0.0255763 0 0.0018398 81.0336
-0.0255827 0 0.00249854 186.199
0.0255827 -2.25875e-21 0.00249856 197.409
-0.0257081 1.35525e-20 0.000131339 1083.57
0.0257081 1.35525e-20 0.000131348 1083.49
-0.0257119 -2.71051e-20 3.51853e-11 1085.75
0.0257119 0 3.51759e-11 1085.67
-0.0254803 -1.35525e-20 0.00354694 1641.91
0.0254804 1.35525e-20 0.00354697 1642.11
-0.0255732 -1.12938e-21 0.00306848 1064.26
0.0255733 1.12938e-21 0.0030685 1069.86
-0.0258709 2.71051e-20 0.000270934 1093.37
0.0258709 0 0.000270944 1093.35
-0.0258866 -2.71051e-20 0.000846945 168.694
0.0258867 2.71051e-20 0.00084698 169.818
-0.0258956 -5.42101e-20 0.00148553 60.7056
0.0258957 2.71051e-20 0.00148556 67.0438
-0.025711 0 0.0036084 1157.18
0.025711 -1.35525e-20 0.0036084 1157.58
-0.0258953 -2.71051e-20 0.00216695 72.3807
0.0258954 0 0.00216699 82.7563
-0.0260182 1.35525e-20 1.4385e-11 1121.07
0.0260182 -1.35525e-20 1.43834e-11 1121.05
-0.0257708 1.01644e-20 0.00362432 1125.69
0.025771 -1.01644e-20 0.00362438 1126.02
0.0260277 0 0.000129333 1120.44
-0.0260277 1.35525e-20 0.000129319 1120.46
-0.0258188 4.51751e-21 0.00342146 1348.51
0.0258189 -4.51751e-21 0.00342152 1348.77
-0.0259037 0 0.00281559 233.989
0.0259038 -2.71051e-20 0.0028156 238.036
-0.0261762 2.71051e-20 8.34289e-12 1194.06
0.0261762 0 8.34292e-12 1194.05
-0.0261907 9.03502e-21 0.000536235 679.412
0.0261907 6.77626e-21 0.000536244 678.767
-0.0262092 -6.77626e-21 0.00114363 119.289
0.0262093 -1.12938e-21 0.00114365 121.689
-0.0260128 0 0.00368882 1497.48
0.026013 -1.35525e-20 0.00368885 1497.71
-0.026215 -1.12938e-21 0.00181908 62.7431
0.026215 -3.38813e-21 0.0018191 70.7868
-0.0263228 -1.35525e-20 0.000121177 1175.14
0.0263228 1.35525e-20 0.000121199 1175.13
-0.0263263 1.35525e-20 7.18223e-12 1177.91
0.0263263 -2.71051e-20 7.1822e-12 1177.9
-0.0262139 1.12938e-21 0.00250529 135.916
0.026214 -4.51751e-21 0.0025053 143.048
-0.0261378 -2.71051e-20 0.00372349 1611.97
0.0261379 -1.35525e-20 0.00372351 1612.18
-0.0261644 4.06576e-20 0.00360602 1612.48
0.0261645 -1.35525e-20 0.00360608 1612.68
-0.0262302 -2.63521e-21 0.0032085 965.16
0.0262302 2.63521e-21 0.00320851 972.626
-0.0264875 0 0.000258943 1197.81
0.0264876 0 0.000258951 1197.8
-0.0265116 0 0.000819231 183.645
0.0265116 -2.71051e-20 0.000819229 179.593
-0.0265313 0 0.00145474 59.8001
0.0265313 2.71051e-20 0.00145476 65.7475
-0.026307 0 0.00376734 1971.01
0.026307 -6.77626e-21 0.00376734 1971.11
-0.0265288 0 0.00214917 58.3701
0.0265289 0 0.00214918 67.8875
0.0266623 1.35525e-20 2.30473e-12 1282.11
-0.0266624 -1.35525e-20 2.30271e-12 1282.11
0.0266707 0 0.000106431 1283.22
-0.0266707 -1.35525e-20 0.000106394 1283.22
-0.0265278 0 0.00283317 165.983
0.0265278 0 0.00283318 170.869
-0.0264226 0 0.00379806 2019.53
0.0264228 6.77626e-21 0.00379808 2019.69
-0.0265365 -2.82344e-21 0.00359658 1815.82
0.0265365 2.25875e-21 0.00359658 1818.8
-0.0267959 -1.35525e-20 1.18602e-12 1390.63
0.0267959 0 1.1879e-12 1390.69
-0.0268045 -5.64689e-21 0.0005015 800.396
0.0268045 -3.38813e-21 0.000501498 796.159
-0.0268426 -3.38813e-21 0.00108827 133.912
0.0268426 -1.12938e-21 0.00108827 134.694
-0.0269065 0 8.39063e-05 1423.02
0.0269065 1.35525e-20 8.3937e-05 1423.11
-0.0269105 -2.71051e-20 1.09878e-12 1419.11
0.0269105 0 1.1004e-12 1419.2
-0.0268569 1.12938e-21 0.00177521 56.6954
0.0268569 0 0.00177521 66.9415
-0.0268455 -1.12938e-21 0.00249636 98.3155
0.0268456 0 0.00249637 108.087
-0.0268309 -1.807e-21 0.00322447 697.841
0.0268309 4.51751e-22 0.00322448 709.218
0.0267577 8.47033e-22 0.00386138 1980.59
-0.0267577 0 0.00386154 1980.52
-0.0267686 0 0.00388947 1988.14
0.0267686 0 0.00388946 1988.26
-0.0267817 0 0.00389295 1983.95
0.0267818 0 0.00389296 1984.05
-0.0267895 -1.69407e-21 0.00389519 1974.79
0.0267897 0 0.00389521 1974.83
-0.0267977 0 0.00388306 1960.62
0.0267979 0 0.00388302 1960.59
-0.0268077 8.47033e-22 0.00390073 1984.54
0.0268079 -1.01644e-20 0.00390078 1984.64
-0.0270953 -2.71051e-20 0.00023099 1510.87
0.0270953 -2.71051e-20 0.000230989 1510.97
-0.0271307 -2.71051e-20 0.000745242 229.345
0.0271307 5.42101e-20 0.000745245 215.991
-0.0271876 0 0.00136721 61.218
0.0271876 2.71051e-20 0.00136721 74.4186
-0.02717 0 0.00211415 47.9013
0.02717 2.71051e-20 0.00211415 60.4905
-0.0270374 -9.68038e-21 0.00364688 1321.04
0.0270374 -1.93608e-21 0.00364689 1323.39
-0.0271535 2.71051e-20 0.00283769 113.852
0.0271535 0 0.0028377 126.49
0.0273865 -9.03502e-21 0.0004332 868.522
-0.0273866 1.50584e-21 0.000433203 872.019
-0.0272025 -1.35525e-20 0.00404241 1856.21
0.0272025 0 0.00404243 1856.29
0.0275127 0 2.93966e-06 1180.76
-0.0275208 4.23516e-22 1.06317e-13 1180.68
-0.0275278 0 1.05538e-13 1171.05
0.027528 -4.23516e-22 1.05132e-13 1170.93
-0.0275176 -1.31761e-21 0.000876077 296.184
0.0275176 -2.44698e-21 0.00087607 297.448
-0.0275406 0 1.86131e-05 1156.33
0.027541 4.23516e-22 1.89803e-05 1155.92
-0.0272667 1.35525e-20 0.00395781 1830.39
0.0272668 -2.71051e-20 0.00395784 1830.48
0.0275119 -7.05861e-23 0.00171167 69.2735
-0.027524 5.64689e-22 0.00170302 57.6262
-0.0274757 2.25875e-21 0.00247994 73.5311
0.0274757 -2.25875e-21 0.00247995 86.5391
-0.0274313 0 0.00322709 448.243
0.0274313 2.25875e-21 0.0032271 459.491
-0.0273527 1.35525e-20 0.00409792 1614.71
0.0273528 1.35525e-20 0.00409794 1614.89
-0.0274774 6.77626e-22 0.00369772 1229.45
0.0274774 1.12938e-21 0.00369774 1236.43
-0.0278217 0 0.00130219 68.8884
0.0278218 5.42101e-20 0.00130219 76.0609
-0.0277987 2.71051e-20 0.00208828 42.707
0.0277987 -2.71051e-20 0.00208828 56.9023
-0.0278795 2.25875e-21 0.000330555 795.229
0.0278795 -3.01167e-21 0.000330552 795.124
-0.0275673 -1.69407e-20 0.00417883 1379.17
0.0275674 1.69407e-20 0.00417885 1379.36
-0.0277779 0 0.0028342 85.9521
0.027778 -2.71051e-20 0.00283422 98.9633
-0.0276683 -3.38813e-21 0.00421687 1408.17
0.0276684 1.01644e-20 0.00421691 1408.36
-0.0277108 4.51751e-21 0.00403356 1619.99
0.0277109 0 0.00403359 1620.16
-0.0278036 0 0.00346787 309.909
0.0278037 -2.71051e-20 0.00346788 336.863
0.0280306 1.35525e-20 3.72316e-14 923.051
-0.0280306 -1.35525e-20 3.73072e-14 923.11
-0.0281597 -1.35525e-21 0.000826379 309.784
0.0281598 1.35525e-21 0.000826365 314.578
-0.0281239 9.03502e-22 0.00170643 55.222
0.0281239 -4.51751e-22 0.00170641 66.7777
-0.0281926 2.71051e-20 2.34313e-14 953.624
0.0281927 -2.71051e-20 2.34156e-14 953.606
-0.0281037 1.12938e-21 0.00246047 57.4327
0.0281037 -1.12938e-21 0.00246047 71.8068
-0.0278976 0 0.00430333 1709.42
0.0278978 1.35525e-20 0.00430337 1709.56
-0.0280998 -4.51751e-21 0.00316536 171.818
0.0280999 -1.12938e-21 0.00316537 188.353
-0.0280091 2.71051e-20 0.00434531 1766.11
0.0280092 -2.71051e-20 0.00434535 1766.25
-0.0280389 -1.35525e-20 0.00423697 1804.28
0.028039 0 0.00423702 1804.41
-0.0281246 -4.70574e-22 0.0038468 1170.59
0.0281246 5.64689e-22 0.00384682 1183.85
-0.0283974 1.35525e-20 1.6465e-14 865.103
0.0283975 -2.03288e-20 1.64528e-14 865.031
-0.0284432 0 0.0012926 69.8022
0.0284432 2.71051e-20 0.0012926 81.2336
-0.0284192 5.42101e-20 0.0020741 39.05
0.0284192 -2.71051e-20 0.00207411 51.982
-0.0284972 1.41172e-22 0.000323921 756.917
0.0284983 7.05861e-23 0.000322966 756.912
-0.0281711 -1.35525e-20 0.00440642 2033.16
0.0281712 6.77626e-21 0.00440645 2033.18
0.0285522 0 6.7283e-15 864.556
-0.0285522 2.71051e-20 6.71899e-15 864.638
-0.0284166 2.71051e-20 0.00281021 60.7402
0.0284166 0 0.00281021 78.0244
-0.0284105 2.71051e-20 0.00349464 209.138
0.0284105 2.71051e-20 0.00349465 216.906
-0.0282899 -6.77626e-21 0.00445124 2045.12
0.02829 -6.77626e-21 0.00445126 2045.06
-0.0284185 2.25875e-21 0.00424829 1920.5
0.0284186 -2.82344e-21 0.00424831 1923.22
-0.0287651 2.71051e-20 2.8362e-16 964.174
0.0287651 0 2.95993e-16 964.166
0.0287466 -5.0822e-22 0.00168414 66.8268
-0.0287466 5.64689e-22 0.00168414 53.3641
-0.0288079 -3.00927e-37 0.000872612 307.802
0.0288079 -8.13152e-21 0.000872602 315.952
-0.0287473 -1.8823e-22 0.0024227 52.2228
0.0287474 0 0.0024227 68.6549
-0.0287216 1.12938e-21 0.00316753 115.071
0.0287216 3.38813e-21 0.00316754 129.469
0.0285807 0 0.0045608 1944.14
-0.0285808 1.69407e-21 0.00456081 1944.03
-0.0287115 -9.03502e-22 0.0038813 769.605
0.0287115 4.06576e-21 0.00388131 782.999
0.0286395 0 0.00458294 1963.76
-0.0286395 0 0.00458293 1963.62
0.0286465 -3.38813e-21 0.00457502 1951.06
-0.0286466 3.38813e-21 0.00457502 1950.92
-0.0290133 -1.35525e-20 1.86904e-16 790.841
0.0290135 0 1.94633e-16 790.629
-0.0286559 -3.38813e-21 0.00458911 1912.48
0.0286559 0 0.00458914 1912.58
-0.0286628 -3.38813e-21 0.00455184 1865.09
0.0286628 3.38813e-21 0.00455182 1866.28
-0.0290304 -3.38813e-21 8.06872e-05 767.531
0.0290304 -1.69407e-21 8.001e-05 767.522
-0.0290331 5.64689e-22 0.000330818 720.77
0.0290331 -2.82344e-21 0.000330829 721.29
0.0290394 0 1.6645e-16 795.007
-0.0290395 -1.01644e-20 1.59046e-16 795.266
-0.0286826 0 0.00457911 1900.87
0.0286827 0 0.00457912 1900.95
-0.0286988 -1.69407e-21 0.00460526 1888.36
0.0286989 0 0.00460531 1888.43
-0.0290348 0 0.00281401 49.9292
0.0290349 2.71051e-20 0.00281402 67.2903
-0.029155 0 0.00144553 61.1018
0.029155 0 0.00144554 75.4253
-0.0291572 5.42101e-20 0.00194761 39.7411
0.0291573 0 0.00194759 60.9208
-0.0289114 -9.68038e-21 0.00431134 1276.18
0.0289115 -7.7443e-21 0.00431137 1277.97
-0.0290289 2.71051e-20 0.00350519 132.484
0.0290289 -2.71051e-20 0.0035052 148.292
-0.0293191 1.35525e-20 1.46698e-16 947.56
0.0293192 0 1.49488e-16 947.37
0.0293261 -8.04681e-21 0.00083995 345.682
-0.0293263 5.92923e-21 0.000839937 337.642
-0.029346 8.04681e-21 0.000822088 345.676
0.0293461 -4.23516e-22 0.000821754 353.695
-0.0293459 0 0.000843819 337.858
0.029346 3.04932e-20 0.000843906 345.946
-0.0293596 -4.65868e-21 0.000839783 338.441
0.02936 4.65868e-21 0.000839793 346.471
-0.029022 1.35525e-20 0.00472698 1702.46
0.029022 1.35525e-20 0.00472701 1702.66
-0.0293681 -1.35525e-20 0.00167839 51.5103
0.0293682 0 0.00167839 70.0733
-0.0293492 1.12938e-22 0.00243747 42.6491
0.0293492 4.51751e-22 0.00243747 62.7907
-0.0291129 2.71051e-20 0.00461943 1672.81
0.029113 -2.71051e-20 0.00461946 1673.02
-0.0293461 -1.12938e-21 0.00316205 79.7819
0.0293461 0 0.00316205 97.7236
0.0295421 -1.01644e-20 1.67699e-17 741.997
-0.0295423 3.38813e-21 1.51535e-17 742.106
-0.0293068 -6.77626e-21 0.00388259 451.351
0.0293068 4.51751e-21 0.00388261 463.135
-0.0295827 0 0.00139945 65.4067
0.0295827 0 0.00139947 83.6095
-0.029224 -1.35525e-20 0.00480306 1560.65
0.0292241 -1.35525e-20 0.00480312 1560.95
-0.0296229 3.38813e-21 0.000312396 710.06
0.0296231 2.25875e-21 0.000312322 710.282
-0.0295757 5.42101e-20 0.00193306 37.924
0.0295757 -2.71051e-20 0.00193306 62.5537
-0.0296592 -6.77626e-21 -6.00181e-17 720.917
0.0296598 6.77626e-21 -5.89086e-17 720.66
-0.0293408 3.61401e-21 0.00435957 1111.85
0.0293409 4.06576e-21 0.00435961 1117.96
-0.0296739 -2.71051e-20 0.00278626 40.2089
0.0296739 0 0.00278626 62.3152
-0.0294232 6.77626e-21 0.0048781 1188.49
0.0294234 2.03288e-20 0.00487815 1188.93
-0.029651 0 0.00350308 92.1007
0.029651 2.71051e-20 0.00350309 108.992
-0.0298815 0 -1.91561e-16 795.586
0.0298818 1.35525e-20 -1.91567e-16 795.171
-0.0295072 -1.35525e-20 0.00479828 1099.04
0.0295074 -6.77626e-21 0.00479831 1099.47
-0.0295244 -1.35525e-20 0.0049162 1162.49
0.0295246 6.77626e-21 0.00491626 1162.94
-0.0295732 4.51751e-21 0.00467621 1306.9
0.0295734 4.51751e-21 0.00467625 1307.26
-0.0296719 2.71051e-20 0.00412281 294.565
0.0296719 0 0.00412282 322.486
-0.0299617 4.51751e-21 0.000815835 343.607
0.0299618 -5.27043e-21 0.000815876 349.658
-0.0299758 0 0.000107543 640.491
0.0299759 -2.71051e-20 0.000107299 640.423
-0.0299859 -1.35525e-20 2.26927e-16 640.744
0.029986 -2.71051e-20 2.28937e-16 640.668
-0.0300036 5.64689e-22 0.00165375 54.5288
0.0300036 -1.8823e-22 0.00165376 73.4672
0.0300698 2.71051e-20 -5.95075e-16 570.292
-0.0300699 2.71051e-20 -5.95895e-16 570.17
-0.0299914 -1.12938e-21 0.00233928 38.2343
0.0299915 0 0.00233928 61.3296
-0.0297028 -2.71051e-20 0.00498341 1429.77
0.029703 0 0.00498346 1430.16
-0.0299738 -6.77626e-22 0.00312121 57.5389
0.0299738 1.35525e-21 0.00312121 78.7051
0.030181 -1.35525e-20 0.000217163 480.068
-0.0301813 -1.35525e-20 0.000217574 479.765
-0.0299672 -3.38813e-21 0.00382607 167.047
0.0299673 0 0.00382608 186.004
0.0302278 0 -3.28141e-16 470.343
-0.0302282 -1.35525e-20 -3.2848e-16 470.017
-0.0298589 -2.03288e-20 0.00504218 1523.09
0.0298591 6.77626e-21 0.00504224 1523.42
-0.0299001 0 0.00489103 1571.53
0.0299002 1.35525e-20 0.00489108 1571.85
-0.0299789 1.50584e-21 0.00451145 1018.07
0.029979 1.8823e-21 0.00451148 1032.79
-0.0302909 0 0.00277109 35.7645
0.0302909 0 0.0027711 59.0298
-0.0304299 0 0.000466563 370.143
0.0304299 -2.71051e-20 0.000466598 370.318
-0.0304045 -2.71051e-20 0.00137206 72.9804
0.0304046 5.42101e-20 0.00137208 87.3792
-0.0304135 0 0.00193181 38.5807
0.0304135 -2.71051e-20 0.00193181 63.6397
-0.0302817 -2.71051e-20 0.00348658 64.3286
0.0302818 2.71051e-20 0.00348658 86.0719
-0.0300763 -3.38813e-21 0.00512403 1857.85
0.0300764 0 0.00512407 1858.11
-0.0300986 0 0.00513244 1863.44
0.0300987 0 0.00513249 1863.7
-0.0301131 1.69407e-21 0.00510514 1860.03
0.0301132 0 0.00510518 1860.29
-0.0302754 2.71051e-20 0.00415049 198.262
0.0302754 -2.71051e-20 0.00415051 206.428
-0.0301558 0 0.00515398 1846.33
0.0301559 -5.0822e-21 0.00515403 1846.59
-0.0306238 -2.03288e-20 0.000140978 353.188
0.0306241 6.77626e-21 0.000140662 353.38
-0.0306244 0 -1.79493e-16 355.46
0.0306248 0 -1.79033e-16 355.634
-0.0306423 1.06484e-20 0.00151867 80.69
0.0306423 -2.90411e-21 0.00151863 98.9424
-0.0306825 4.51751e-21 0.000897082 217.774
0.0306825 -6.77626e-21 0.000897119 224.695
0.0306164 -5.92923e-21 0.00240098 60.2686
-0.0306203 1.05879e-22 0.00240219 35.8317
-0.0303176 -4.51751e-21 0.00489734 1672.51
0.0303177 0 0.00489738 1679.69
-0.0306274 1.05879e-22 0.00240029 35.8385
0.0306275 1.37643e-21 0.00240029 60.2977
-0.0307421 -1.35525e-20 1.71583e-17 342.642
0.0307421 0 1.7217e-17 342.894
-0.0306034 -2.25875e-21 0.00312872 46.6107
0.0306034 -1.12938e-21 0.00312872 69.3192
-0.0305867 -3.38813e-21 0.00382867 112.753
0.0305868 0 0.00382868 129.036
0.030858 0 0.000201871 329.548
-0.0308582 0 0.00020222 329.244
-0.0304244 0 0.00525515 1925.27
0.0304245 -6.77626e-21 0.0052552 1925.62
-0.0308404 0 0.00193363 38.5676
0.0308404 0 0.00193363 65.0501
-0.0304578 6.77626e-21 0.00521938 1872.29
0.0304579 -6.77626e-21 0.00521942 1872.64
-0.0305717 -6.32451e-21 0.00453515 684.083
0.0305717 2.25875e-21 0.00453517 698.605
0.0309075 -6.77626e-21 1.5826e-17 326.26
-0.0309077 -6.77626e-21 1.57859e-17 325.953
-0.0308851 2.71051e-20 0.00139414 71.0706
0.0308852 0 0.00139415 91.3779
-0.0304977 0 0.00528273 1727.97
0.0304978 0 0.00528278 1728.31
-0.0305279 6.77626e-21 0.00512532 1564.05
0.030528 0 0.00512536 1568.86
-0.0306501 1.35525e-20 0.00495208 1269.25
0.0306502 1.35525e-20 0.00495211 1276.76
-0.0306111 0 0.00523694 1694.08
0.0306112 0 0.00523698 1694.41
-0.0309389 0 0.00275384 33.5546
0.0309389 0 0.00275384 59.2939
-0.0309045 -2.71051e-20 0.00347726 52.064
0.0309046 0 0.00347727 72.0697
-0.0311021 4.51751e-21 0.000526104 293.643
0.0311022 -4.51751e-21 0.000526118 295.938
-0.031117 0 1.03361e-17 312.493
0.0311171 2.71051e-20 1.03377e-17 312.828
-0.0306846 3.38813e-21 0.00535314 1647.59
0.0306847 6.77626e-21 0.00535319 1647.91
-0.030891 -2.71051e-20 0.00416128 128.417
0.030891 -2.71051e-20 0.0041613 144.742
-0.0308345 -1.35525e-20 0.00486794 826.8
0.0308346 1.35525e-20 0.00486797 820.764
-0.0312314 5.64689e-22 0.00167876 52.3136
0.0312314 0 0.00167877 77.6166
-0.030812 -2.71051e-20 0.00540114 1586.13
0.0308122 0 0.00540119 1586.45
-0.0308871 0 0.00520301 1494.46
0.0308872 2.71051e-21 0.00520305 1494.79