# omega  POINT_DATA 27416
# x  y  z  omega
0 0.0115468 6.39774e-08 1224.79
0 -0.0115468 6.39774e-08 1224.88
0 -0.0115468 0.000159933 1228.73
6.77626e-21 0.0115468 0.000159966 1228.63
1.35525e-20 -0.0115468 0.000505149 1408.47
0 0.0115468 0.000505252 1408.42
0 -0.0115468 0.000661354 1594.7
0 0.0115468 0.00066149 1594.71
-6.77626e-21 -0.0115468 0.000824682 1791.07
0 0.0115468 0.000824823 1791.1
6.77626e-21 -0.0115467 0.00119323 2063.41
-6.77626e-21 0.0115467 0.00119337 2063.46
0 0.0116176 9.48413e-05 1208.64
1.35525e-20 -0.0116176 9.48283e-05 1208.72
0 0.0116191 6.70002e-08 1208.95
0 -0.0116191 6.70007e-08 1209.03
0 -0.0115467 0.00135636 2164.98
0 0.0115467 0.0013565 2165.04
0 -0.0116144 0.000567788 1454.34
0 0.0116144 0.000567904 1454.32
0 -0.0116106 0.000748384 1683.56
0 0.0116106 0.000748514 1683.59
0 -0.0115467 0.00152899 2307.93
6.77626e-21 0.0115467 0.00152911 2308
0 -0.0116105 0.00124699 2052.13
1.35525e-20 0.0116105 0.00124712 2052.18
0 -0.0116054 0.00142615 2204.06
-1.35525e-20 0.0116054 0.00142627 2204.12
6.77626e-21 -0.0115467 0.00190899 2028.77
0 0.0115467 0.00190902 2028.88
1.35525e-20 0.0117276 6.6334e-08 1116.56
-1.35525e-20 -0.0117276 6.63364e-08 1116.58
6.77626e-21 -0.0117103 0.000650494 1307.31
2.03288e-20 0.0117103 0.000650588 1316.28
-1.35525e-20 0.0115467 0.002087 1518.17
1.35525e-20 -0.0115467 0.002087 1517.99
0 -0.011609 0.00193563 1818.75
0 0.011609 0.00193565 1818.87
0 -0.0117025 0.00130867 1656.87
6.77626e-21 0.0117025 0.00130876 1673.96
0 -0.0116004 0.00211165 1320.64
0 0.0116004 0.00211165 1320.82
0 -0.0116425 0.00204727 1361.25
0 0.0116425 0.00204727 1361.42
-1.35525e-20 -0.0116584 0.00213828 1403.06
1.35525e-20 0.0116584 0.00213829 1403.21
0 -0.0117067 0.00192898 1324.39
-1.35525e-20 0.0117067 0.00192897 1336.93
4.51751e-21 -0.0118537 0.000959071 1496.42
4.51751e-21 0.0118537 0.000959138 1507.67
-4.51751e-21 0.0119178 0.000318651 1053.44
0 -0.0119179 0.000318619 1050.44
1.35525e-20 0.011932 7.04551e-08 1045.59
-1.35525e-20 -0.011932 7.04586e-08 1045.56
2.71051e-21 -0.0118325 0.00163064 1788.61
0 0.0118325 0.00163068 1796.41
0 -0.0118724 0.00142181 1418.14
0 0.0118724 0.00142183 1440.48
2.71051e-20 -0.0117615 0.0021856 1169.83
-1.35525e-20 0.0117615 0.0021856 1169.96
5.42101e-20 -0.0118132 0.00220928 1298.34
-5.42101e-20 0.0118132 0.00220929 1298.49
1.8823e-21 -0.0118989 0.00195768 1168.66
-3.76459e-22 0.0118989 0.00195768 1170.18
-6.77626e-21 -0.0119718 0.00153839 1105.66
6.77626e-21 0.0119718 0.0015384 1231.75
0 0.0120982 7.96187e-08 972.237
0 -0.0120983 7.96213e-08 972.178
4.06576e-21 -0.0120694 0.000852607 865.292
-2.71051e-21 0.0120694 0.000852623 958.64
0 0.0122081 0.000167123 913.294
0 -0.0122082 0.000167144 913.164
0 0.012221 7.14632e-08 913.23
0 -0.012221 7.14627e-08 913.099
2.71051e-21 0.0121684 0.00122551 705.515
-1.20467e-21 -0.0121684 0.0012255 659.477
-2.71051e-20 0.012025 0.00230651 1803.05
0 -0.012025 0.0023065 1803.02
3.22679e-21 0.0122349 0.000642359 737.207
-7.09894e-21 -0.0122349 0.000642355 720.666
-3.38813e-21 -0.0120593 0.00232222 1833.56
-1.01644e-20 0.0120594 0.00232227 1833.7
0 0.0122855 6.71739e-08 907.703
2.71051e-20 -0.0122856 6.71709e-08 907.6
1.97641e-21 0.0122109 0.00173628 912.571
2.5411e-21 -0.0122109 0.00173628 876.548
-8.13152e-21 -0.0121468 0.00214599 1735.88
-5.42101e-21 0.0121468 0.002146 1735.97
0 -0.0122263 0.00229068 1916.95
-6.77626e-21 0.0122263 0.00229071 1917.06
0 0.0124605 5.58013e-08 887.21
0 -0.0124606 5.57971e-08 886.992
0 0.0125121 0.000225139 867.501
2.71051e-21 -0.0125121 0.000225154 867.286
0 -0.0122889 0.00242763 2001.57
0 0.0122889 0.00242764 2001.7
0 0.0125901 0.000921782 216.744
0 -0.0125901 0.000921774 204.27
1.35525e-20 -0.012401 0.00241699 2276.09
-1.35525e-20 0.012401 0.00241701 2276.24
6.77626e-21 -0.0123956 0.00247647 2359.84
-6.77626e-21 0.0123956 0.00247648 2359.96
6.77626e-21 -0.0124524 0.00218685 1571.9
-3.38813e-21 0.0124525 0.00218686 1590.71
-2.71051e-20 -0.0125381 0.00209401 930.693
0 0.0125382 0.00209403 974.389
1.0842e-20 0.0126447 0.00162116 319.654
8.13152e-21 -0.0126447 0.00162116 302.88
-1.35525e-20 -0.012772 0.000141268 844.414
0 0.0127721 0.000141226 844.667
1.35525e-20 -0.0127747 1.51153e-08 844.552
1.35525e-20 0.0127748 1.5111e-08 844.804
-2.71051e-21 -0.012613 0.00241878 2394.84
-1.35525e-20 0.0126131 0.00241885 2395.07
-1.35525e-20 -0.0125861 0.00256369 2569.79
-2.71051e-20 0.0125863 0.00256377 2569.98
0 -0.0129279 4.53095e-09 844.572
0 0.0129279 4.5309e-09 844.819
9.03502e-21 0.0129181 0.000605376 524.852
-1.12938e-20 -0.0129181 0.000605387 518.871
-2.25875e-21 0.0129069 0.00122274 180.975
0 -0.0129069 0.00122276 167.539
0 -0.0127462 0.00263697 1907.44
-2.71051e-20 0.0127464 0.00263706 1907.73
9.03502e-21 -0.0128745 0.00194112 461.641
-4.51751e-21 0.0128745 0.00194112 498.636
0 0.0130689 3.79654e-09 858.444
0 -0.0130689 3.79638e-09 858.146
2.71051e-20 0.0130684 0.000129725 858.186
-1.35525e-20 -0.0130685 0.000129754 857.888
0 -0.0129105 0.00229687 1350.72
-2.25875e-21 0.0129105 0.00229689 1373.38
-1.89735e-20 0.0131166 0.0016405 265.108
-2.71051e-21 -0.0131166 0.00164051 245.457
0 0.013248 0.000302964 872.387
0 -0.013248 0.000302968 872.05
1.35525e-20 -0.0129823 0.00274601 1654.54
2.71051e-20 0.0129824 0.00274607 1654.76
0 -0.0132464 0.00091148 152.123
0 0.0132464 0.000911472 163.328
-4.51751e-21 -0.0131303 0.00262464 1650.1
9.03502e-21 0.0131304 0.00262467 1650.29
0 0.0132415 0.00211425 329.906
0 -0.0132415 0.00211425 286.838
6.77626e-21 -0.0131184 0.00280831 1559.4
1.35525e-20 0.0131185 0.00280836 1559.6
-1.35525e-20 -0.013437 2.08369e-09 887.839
-1.35525e-20 0.013437 2.0834e-09 888.221
1.35525e-20 -0.0134397 0.000120669 887.846
-1.35525e-20 0.0134397 0.000120639 888.228
-1.35525e-20 0.0135679 1.40563e-09 898.569
0 -0.0135679 1.40572e-09 898.184
0 0.0135763 0.00059667 534.298
0 -0.0135763 0.000596683 528.955
1.12938e-20 0.0135724 0.00122413 135.203
4.51751e-21 -0.0135724 0.00122414 121.104
0 -0.0133498 0.00291515 1383.81
2.71051e-20 0.0133498 0.00291517 1384.18
-6.77626e-21 -0.0134778 0.00238384 832.893
-2.25875e-21 0.0134778 0.00238384 844.788
-2.25875e-21 0.0135676 0.00185527 181.347
0 -0.0135676 0.00185528 160.792
1.35525e-20 0.0136939 1.2223e-09 908.635
0 -0.013694 1.22233e-09 908.218
0 0.0136952 0.000110039 908.4
-1.35525e-20 -0.0136952 0.000110069 907.983
1.01644e-20 -0.013543 0.0030057 877.469
3.72694e-20 0.0135431 0.00300574 877.932
-2.71051e-20 -0.0139035 0.000294191 924.752
0 0.0139035 0.000294183 925.219
1.69407e-20 0.0135877 0.0030267 855.186
-3.38813e-20 -0.0135877 0.00302672 854.638
2.71051e-20 -0.0139155 0.000900759 149.36
0 0.0139156 0.000900746 158.889
-9.03502e-21 -0.0136797 0.00276423 945.211
2.25875e-21 0.0136798 0.00276423 947.29
2.71051e-20 -0.0139125 0.00154328 75.0891
0 0.0139125 0.00154327 92.9591
-2.71051e-20 0.0138987 0.00219587 166.276
0 -0.0138987 0.00219588 165.218
0 -0.0141099 3.98855e-10 950.036
-1.35525e-20 0.01411 3.98723e-10 950.504
0 -0.0141138 9.87931e-05 950.1
1.35525e-20 0.0141138 9.87563e-05 950.567
-4.06576e-20 -0.0138002 0.00312615 1143.68
-1.35525e-20 0.0138003 0.00312616 1144.29
0 -0.0142228 2.30732e-10 973.764
0 0.0142228 2.30673e-10 974.208
-4.51751e-21 -0.0142415 0.000581 565.579
-2.25875e-21 0.0142415 0.000580992 572.571
0 0.0142522 0.0012064 128.718
-3.38813e-21 -0.0142522 0.00120642 111.42
-1.35525e-20 0.0143301 2.07135e-10 984.736
0 -0.0143301 2.07176e-10 984.298
0 0.0143313 8.88715e-05 984.51
0 -0.0143313 8.89038e-05 984.071
1.35525e-20 -0.0139709 0.00320515 1156.93
-6.77626e-21 0.013971 0.00320516 1157.62
-1.12938e-21 0.0142439 0.0018749 117.789
2.25875e-21 -0.0142439 0.00187491 100.089
-8.13152e-21 -0.0140732 0.00302489 1203.7
0 0.0140732 0.00302489 1204.35
1.807e-21 0.0141848 0.00260879 636.149
1.807e-21 -0.0141848 0.00260878 620.587
-1.35525e-20 -0.0140966 0.0032633 1324.71
6.77626e-21 0.0140966 0.0032633 1325.41
1.35525e-20 -0.0142071 0.00316518 1429.83
0 0.0142071 0.00316519 1430.53
2.71051e-20 -0.0145609 0.000281726 1009.69
-2.71051e-20 0.0145609 0.000281727 1010.13
0 -0.0145815 0.000874369 157.299
-2.71051e-20 0.0145815 0.000874352 175.092
0 -0.0142355 0.00332754 1666.82
-1.35525e-20 0.0142355 0.00332755 1667.51
0 -0.0145904 0.00151949 62.2853
0 0.0145904 0.00151948 86.4477
-2.71051e-20 -0.0145713 0.00221296 93.624
2.71051e-20 0.0145713 0.00221296 121.69
0 0.014357 0.00338361 1735.98
0 -0.014357 0.0033836 1735.24
0 -0.0144398 0.00302855 1232.66
4.51751e-21 0.0144398 0.00302856 1250.38
1.35525e-20 -0.0143822 0.00330544 1732.56
-1.35525e-20 0.0143822 0.00330545 1733.29
-1.35525e-20 -0.0147852 4.2202e-11 1056.06
0 0.0147853 4.21645e-11 1056.54
0 -0.0147878 7.95642e-05 1056.09
-1.35525e-20 0.0147879 7.95165e-05 1056.58
-1.35525e-20 -0.0148815 2.04947e-11 1092.19
1.35525e-20 0.0148815 2.04768e-11 1092.65
2.71051e-20 -0.0146213 0.00280152 325.366
2.71051e-20 0.0146213 0.00280153 383.08
2.25875e-21 -0.0149013 0.000554706 629.392
-2.25875e-21 0.0149014 0.000554705 644.069
0 -0.0145853 0.0032615 2023.98
0 0.0145853 0.00326151 2024.79
2.25875e-21 -0.014922 0.00116917 113.247
1.12938e-21 0.014922 0.00116916 142.847
0 0.0149733 1.85798e-11 1102.69
-1.35525e-20 -0.0149733 1.85939e-11 1102.21
0 0.0149737 7.37377e-05 1102.46
0 -0.0149738 7.37997e-05 1101.98
1.35525e-20 -0.0146077 0.00349931 1678.25
2.71051e-20 0.0146077 0.00349933 1679.25
1.12938e-21 -0.0149197 0.00184904 68.2578
-1.12938e-21 0.0149197 0.00184904 98.5015
0 -0.014666 0.00343236 1668.16
0 0.0146661 0.00343238 1669.18
-1.12938e-21 -0.0149194 0.00252067 169.396
1.12938e-21 0.0149194 0.00252068 197.014
1.35525e-20 -0.0147321 0.00355664 1559.33
2.71051e-20 0.0147321 0.00355666 1560.52
-1.12938e-21 -0.0148879 0.0030961 949.389
-2.25875e-21 0.0148879 0.00309611 960.956
0 -0.0152102 0.000264582 1146.8
2.71051e-20 0.0152103 0.00026457 1147.34
0 -0.0152372 0.00083281 173.571
-2.71051e-20 0.0152372 0.000832812 214.204
0 0.0148481 0.0036099 1179.57
-6.77626e-21 -0.0148481 0.00360989 1178.04
0 0.0148927 0.003477 1286.47
1.35525e-20 -0.0148927 0.00347697 1285.07
2.71051e-20 -0.0152552 0.00147324 57.696
0 0.0152552 0.00147323 94.3267
2.71051e-20 -0.0152471 0.00216851 59.3603
0 0.0152472 0.00216851 91.8385
0 -0.0154526 2.80546e-12 1263.74
0 0.0154528 2.79932e-12 1264.31
-6.77626e-21 -0.0154539 6.43657e-05 1263.86
0 0.0154541 6.42863e-05 1264.42
1.35525e-20 -0.0150216 0.00368974 1050.71
-2.71051e-20 0.0150217 0.00368977 1052.4
-2.71051e-20 -0.0150964 0.0034047 1037.48
0 0.0150964 0.00340472 1039.01
2.71051e-20 -0.0152384 0.00284799 179.507
0 0.0152384 0.002848 168.289
0 -0.0155344 1.12584e-12 1327.48
0 0.0155345 1.12356e-12 1327.93
-1.35525e-20 -0.015136 0.00358103 1113.75
2.71051e-20 0.015136 0.00358108 1115.4
0 -0.0155483 0.00051281 765.593
2.25875e-21 0.0155483 0.000512813 792.869
0 -0.0156089 5.68787e-05 1355.04
6.77626e-21 0.0156089 5.68083e-05 1355.48
0 -0.0156116 1.05395e-12 1352.05
6.77626e-21 0.0156116 1.052e-12 1352.49
-1.35525e-20 -0.0151553 0.00375099 1261.58
1.35525e-20 0.0151553 0.00375102 1263.23
1.12938e-21 -0.0156 0.00110029 133.691
4.51751e-22 0.0156 0.0011003 184.179
0 0.0155873 0.00178843 97.845
5.64689e-22 -0.0155873 0.00178844 55.597
0 0.0152736 0.00381163 1268.18
-1.35525e-20 -0.0152736 0.00381161 1266.44
1.35525e-20 0.015311 0.00369351 1278.04
-1.35525e-20 -0.0153111 0.00369346 1276.34
3.38813e-21 -0.0155683 0.00250748 95.157
3.38813e-21 0.0155683 0.00250748 117.383
-2.71051e-20 -0.015842 0.000233949 1470.16
-5.42101e-20 0.0158421 0.000233943 1470.62
1.807e-21 -0.0155232 0.00325343 684.491
-4.51751e-22 0.0155232 0.00325344 698.854
0 -0.0158871 0.00076245 215.445
-2.71051e-20 0.0158872 0.000762453 283.371
-1.35525e-20 -0.0154852 0.00363863 1417.34
-1.35525e-20 0.0154852 0.00363865 1419.13
-1.35525e-20 -0.0154926 0.00391517 1585.77
6.77626e-21 0.0154927 0.00391521 1587.72
2.71051e-20 -0.0159268 0.00138123 62.0906
0 0.0159268 0.00138123 121.503
0 -0.0155592 0.00385208 1651.87
0 0.0155593 0.00385214 1653.78
2.71051e-20 -0.0158993 0.00212235 44.1041
0 0.0158993 0.00212235 85.4985
-1.35525e-20 -0.0155753 0.00395587 1810.29
0 0.0155754 0.0039559 1812.16
2.71051e-20 -0.0158855 0.0028466 93.4492
0 0.0158855 0.00284661 120.671
6.77626e-21 -0.0156481 0.00400349 1832
6.77626e-21 0.0156482 0.00400349 1833.81
3.38813e-21 -0.0161504 0.000464681 777.547
-3.95282e-21 0.0161505 0.000464663 802.993
0 -0.0156709 0.0039483 1836.27
-1.35525e-20 0.0156709 0.00394832 1838.09
-4.51751e-21 -0.0157655 0.00368362 1344.46
2.25875e-21 0.0157655 0.00368363 1363.94
4.23516e-21 0.0162446 7.65639e-14 1142.25
0 -0.0162451 7.5465e-14 1141.21
2.11758e-21 -0.0162671 1.41522e-05 1126.31
0 -0.0162672 1.7377e-06 1137.88
7.19978e-21 0.0162672 1.45818e-05 1127.56
0 0.0162715 1.44085e-06 1138.82
-2.71051e-20 -0.0159384 0.00346447 360.918
0 0.0159384 0.00346448 421.505
2.82344e-22 -0.0162375 0.00174475 56.9256
3.95282e-22 0.0162375 0.00174473 112.152
9.03502e-21 -0.0163344 0.000944395 244.694
-9.03502e-21 0.0163345 0.00094441 293.649
-2.71051e-20 -0.015896 0.00392571 2209.89
0 0.015896 0.00392573 2211.84
-1.6134e-21 -0.0162554 0.00244438 66.0409
6.45358e-22 0.0162554 0.0024444 103.808
-1.35525e-20 -0.0159401 0.00419455 1859.27
0 0.0159403 0.00419464 1861.32
1.12938e-21 -0.0162141 0.00317059 177.478
5.64689e-22 0.0162141 0.0031706 211.158
0 -0.0159991 0.00414931 1867.36
0 0.0159991 0.00414944 1869.43
0 -0.016026 0.00425065 1834.25
0 0.0160261 0.00425068 1836.46
-1.8823e-22 -0.0166367 0.000352808 690.078
-1.8823e-22 0.0166369 0.00035298 693.756
0 0.0160816 0.0042869 1924.76
1.35525e-20 -0.0160816 0.0042869 1922.73
0 0.016105 0.00423208 1922.7
1.35525e-20 -0.016105 0.00423203 1920.65
0 0.016226 0.00384224 1206.97
0 -0.0162264 0.00384238 1178.08
-6.35275e-22 0.0162339 0.00382556 1174.37
-1.37643e-21 -0.0162339 0.00382647 1146.74
1.05879e-22 0.0162401 0.00384589 1203.95
0 -0.0162351 0.00384457 1175.13
0 -0.0167083 1.01691e-14 816.713
-6.77626e-21 0.0167085 1.01518e-14 818.396
0 -0.0166691 0.00146461 57.3412
0 0.0166691 0.0014646 136.91
-5.42101e-20 -0.0165265 0.0028208 56.6962
0 0.0165265 0.00282081 90.4432
-1.35525e-20 0.0161983 0.00436312 1988.88
-6.77626e-21 -0.0161984 0.00436319 1986.76
-5.42101e-20 -0.0166645 0.00194623 40.3194
-2.71051e-20 0.0166645 0.00194624 95.5071
0 0.0165187 0.00350446 184.515
0 -0.0165187 0.00350446 174.95
1.35525e-20 -0.0169424 1.10016e-15 867.599
-1.35525e-20 0.0169426 1.10457e-15 871.012
-2.03288e-20 -0.0163499 0.00446211 1856.29
0 0.0163499 0.0044621 1858.67
-3.10579e-21 0.0169272 0.000866318 371.52
1.97641e-21 -0.0169272 0.000866361 314.505
-1.35525e-20 -0.0168735 0.00168495 50.2638
1.35525e-20 0.0168736 0.00168495 119.65
0 0.0164548 0.00427999 1678.84
-3.38813e-21 -0.0164549 0.00428001 1670.49
9.88205e-22 0.0168849 0.00243443 89.0906
9.88205e-22 -0.0168849 0.00243443 42.7119
-6.77626e-21 -0.0164962 0.00455762 1930.42
6.77626e-21 0.0164963 0.00455763 1932.63
5.64689e-22 0.0168359 0.00316003 118.734
5.64689e-22 -0.0168359 0.00316003 89.2133
1.35525e-20 -0.0171338 1.74505e-16 657.181
0 0.0171342 1.75422e-16 661.527
0 -0.0170775 0.00142438 64.3296
-2.71051e-20 0.0170775 0.00142436 141.68
4.06576e-21 -0.0171371 0.000271939 647.036
-8.13152e-21 0.0171374 0.000272002 651.67
2.71051e-20 -0.0170666 0.00192551 37.5172
0 0.0170666 0.00192552 102.935
0 0.0167863 0.00388665 609.249
0 -0.0167864 0.00388664 560.307
0 -0.0166206 0.00463879 2063.35
0 0.0166207 0.00463877 2065.46
-2.71051e-20 0.0166524 0.00459992 2030.8
0 -0.0166524 0.00459992 2028.65
0 0.0166794 0.00467712 1807.97
1.35525e-20 -0.0166795 0.00467715 1805.72
2.35287e-22 -0.016844 0.00433503 1273.47
4.70574e-23 0.0168452 0.00433528 1314.7
-2.71051e-20 0.0171764 0.00277493 78.8089
-2.71051e-20 -0.0171764 0.00277493 37.2679
0 0.0174301 3.02821e-16 599.487
0 -0.0174308 3.00144e-16 591.461
0 0.0168042 0.00464355 1613.19
-1.35525e-20 -0.0168042 0.00464358 1610.77
-6.77626e-21 0.0167886 0.00474831 1538.52
-1.35525e-20 -0.0167887 0.0047484 1536.05
-6.77626e-21 0.017449 0.000139075 591.7
0 -0.0174496 0.000138384 583.39
2.71051e-20 0.0171294 0.00350658 118.84
0 -0.0171294 0.00350657 84.9845
6.77626e-21 0.0175668 -2.95376e-17 619.165
0 -0.0175669 -2.94893e-17 609.093
5.64689e-22 -0.0175583 0.000896638 318.392
8.47033e-22 0.0175583 0.000896566 370.411
7.05861e-22 0.0175189 0.00167533 130.792
-2.82344e-22 -0.0175189 0.00167527 60.2215
6.77626e-21 -0.0176062 4.62632e-05 543.07
0 0.0176064 4.65549e-05 553.266
6.77626e-21 -0.0176089 -8.34897e-18 542.689
-6.77626e-21 0.0176091 -8.34566e-18 552.893
-5.42101e-20 0.0171399 0.00413685 387.056
-2.71051e-20 -0.01714 0.00413686 292.577
0 -0.0176343 -4.66431e-18 531.455
6.77626e-21 0.0176347 -4.59267e-18 541.753
2.71051e-20 0.0170445 0.00462908 1583.37
0 -0.0170445 0.00462914 1580.99
5.64689e-22 0.0175376 0.00228764 90.943
1.12938e-21 -0.0175376 0.00228764 36.1864
1.35525e-20 0.0170023 0.00488776 1355.86
-2.71051e-20 -0.0170024 0.00488783 1353.43
0 -0.0176972 4.73615e-05 502.074
0 0.017698 4.76654e-05 513.037
0 -0.0177005 -1.62468e-17 502.138
6.77626e-21 0.0177013 -1.6206e-17 513.098
-1.69407e-21 -0.0174646 0.00310783 49.1073
9.03502e-22 0.0174646 0.00310785 89.4543
0 0.0171112 0.00481659 1371.68
0 -0.0171113 0.00481667 1369.24
0 0.0171346 0.00497401 1444.47
1.35525e-20 -0.0171347 0.00497413 1442.1
-5.64689e-21 0.0174342 0.00383429 196.461
0 -0.0174342 0.00383429 144.157
-2.71051e-20 0.0172171 0.00502787 1445.35
0 -0.0172173 0.00502799 1443.04
1.35525e-20 0.0172554 0.00493142 1439.89
0 -0.0172556 0.00493154 1437.55
-3.76459e-22 0.0174076 0.00453333 922.159
-3.76459e-22 -0.0174076 0.00453336 878.737
0 0.0177905 0.00276845 75.8954
2.71051e-20 -0.0177905 0.00276845 30.06
-2.71051e-20 0.0177573 0.00348298 84.2269
2.71051e-20 -0.0177574 0.00348299 48.6482
-6.77626e-21 0.017378 0.00513278 1530.37
2.03288e-20 -0.0173781 0.0051329 1528.11
0 0.0174497 0.00517959 1497.02
0 -0.0174498 0.00517964 1494.74
0 0.0177264 0.00417356 181.987
2.71051e-20 -0.0177264 0.00417357 138.207
6.77626e-21 0.0175029 0.00510088 1460.28
0 -0.0175029 0.005101 1457.96
1.0842e-19 -0.0181611 0.00171797 42.7728
-5.42101e-20 0.0181612 0.00171798 117.429
6.77626e-21 -0.0175201 0.00522549 1516.08
1.35525e-20 0.0175201 0.00522553 1518.17
5.42101e-20 -0.0182822 0.000515621 302.994
0 0.0182823 0.000515628 323.026
1.05879e-22 0.0181327 0.00240414 82.1212
4.97632e-21 -0.0181332 0.00240535 31.5396
-2.11758e-22 -0.0181317 0.0024243 31.6207
8.47033e-22 0.0181316 0.0024249 81.8697
-3.01167e-21 0.0176138 0.0049468 1295.07
1.05409e-20 -0.0176139 0.00494682 1278.82
2.82344e-21 -0.0180947 0.00311468 34.3831
0 0.0180947 0.00311468 73.1634
1.12938e-21 0.0180563 0.00382343 113.048
1.12938e-21 -0.0180563 0.00382343 71.6147
0 -0.0177083 0.00534826 1655.93
0 0.0177083 0.00534827 1657.57
-1.35525e-20 -0.0177632 0.00528867 1610.39
0 0.0177632 0.00528872 1612.08
-4.51751e-21 0.0179883 0.0045481 460.569
-4.51751e-21 -0.0179884 0.00454809 401.321
2.71051e-20 0.0178024 0.00540967 1375.53
0 -0.0178025 0.0054097 1373.67
-2.71051e-20 -0.0184402 0.00274762 26.317
0 0.0184402 0.00274761 67.2956
2.25875e-21 0.0180053 0.00502464 1017.2
-1.35525e-21 -0.0180053 0.00502466 978.667
2.71051e-20 0.0183918 0.00345434 65.7542
0 -0.0183918 0.00345433 32.9161
6.77626e-21 0.0179451 0.00550277 1069.07
-6.77626e-21 -0.0179453 0.00550285 1067.07
-2.71051e-20 0.0183611 0.00415361 119.122
2.71051e-20 -0.0183611 0.00415361 65.9055
0 0.0188421 7.04156e-05 303.769
0 -0.0188422 7.03628e-05 279.886
0 0.0188477 1.10464e-18 303.747
0 -0.0188477 1.06274e-18 279.86
2.25875e-21 -0.0188602 0.00112833 160.789
2.25875e-21 0.0188602 0.00112834 203.161
-6.77626e-21 -0.0180592 0.00557717 1053.71
1.35525e-20 0.0180593 0.00557723 1055.51
0 0.0181347 0.00538311 1138.66
4.51751e-21 -0.0181348 0.00538307 1136.86
1.35525e-20 -0.018942 6.21249e-19 273.919
-1.35525e-20 0.018942 6.17799e-19 298.706
4.51751e-21 -0.0188166 0.00228404 32.6755
-5.64689e-21 0.0188167 0.00228404 80.8474
0 0.0183535 0.00480356 286.615
0 -0.0183536 0.00480356 219.301
-1.27055e-21 -0.0187311 0.00307208 28.1556
5.64689e-22 0.0187311 0.00307209 64.9671
0 -0.0190249 8.5231e-05 268.426
1.35525e-20 0.019025 8.52886e-05 294.06
-1.35525e-20 -0.0190315 5.66644e-19 268.351
1.35525e-20 0.0190316 5.63374e-19 293.997
-2.71051e-20 -0.0182205 0.00568238 1237.4
-1.35525e-20 0.0182205 0.00568238 1238.84
-4.5881e-22 0.0187398 0.00374577 82.5985
4.94103e-22 -0.0187398 0.00374577 42.8832
0 0.0186713 0.00447942 167.37
-3.38813e-21 -0.0186713 0.00447942 107.857
-1.35525e-20 0.0183608 0.00577389 1191.17
1.35525e-20 -0.0183608 0.00577392 1189.91
1.35525e-20 0.018471 0.00561106 1257.36
5.42101e-21 -0.018471 0.00561103 1256.11
-8.13152e-21 -0.0186129 0.00519728 681.259
3.61401e-21 0.0186129 0.00519728 726.759
2.71051e-20 -0.0191646 0.00284904 24.4634
-2.71051e-20 0.0191646 0.00284904 61.7127
-6.77626e-21 -0.0184854 0.00585515 1305.86
1.35525e-20 0.0184855 0.00585524 1307.18
-2.71051e-20 0.0191555 0.0033016 58.2853
0 -0.0191555 0.00330159 25.9974
0 -0.0190101 0.00412451 41.3787
-2.71051e-20 0.0190101 0.00412452 81.0329
0 -0.0185922 0.00576694 1395.66
0 0.0185922 0.00576709 1396.89
1.35525e-20 -0.0186006 0.00593031 1648.41
1.35525e-20 0.0186007 0.00593035 1649.34
0 -0.0195235 0.000571337 245.173
-5.42101e-20 0.0195235 0.000571339 274.646
-5.42101e-20 -0.0194631 0.0017685 43.3788
-5.42101e-20 0.0194631 0.0017685 90.2655
-2.82344e-22 -0.0194127 0.0024132 30.5551
0 0.0194127 0.00241321 69.0897
0 -0.0189749 0.00481043 98.0259
0 0.0189749 0.00481044 174.205
0 -0.0193686 0.00306998 24.7433
0 0.0193686 0.00306998 58.397
1.50584e-21 -0.0188275 0.00563325 1182.88
1.50584e-21 0.0188275 0.00563327 1213.49
2.03288e-20 0.0187165 0.00600599 1555.1
-6.77626e-21 -0.0187166 0.00600601 1554.15
1.35525e-20 0.018758 0.00590207 1577.6
-1.35525e-20 -0.0187581 0.00590201 1576.64
-7.05861e-22 0.0193727 0.00376105 68.1164
-1.41172e-21 -0.0193727 0.00376105 31.1408
-2.71051e-20 -0.0190128 0.00540896 330.157
-2.71051e-20 0.0190128 0.00540898 430.783
-2.71051e-20 -0.0195979 0.00284199 24.4377
0 0.0195979 0.00284199 56.3122
-1.12938e-21 -0.0193152 0.00445137 55.9895
-1.12938e-21 0.0193152 0.00445138 110.508
-2.71051e-20 -0.0189326 0.00587663 1765.95
0 0.0189326 0.00587667 1767.01
1.35525e-20 -0.0188663 0.00610385 1526.11
-2.71051e-20 0.0188665 0.006104 1527.01
0 -0.0195614 0.00328798 23.8963
0 0.0195614 0.00328799 56.745
1.35525e-20 -0.0189889 0.00604035 1536.3
-2.71051e-20 0.0189891 0.00604056 1537.2
1.12938e-21 -0.0192967 0.00511377 162.205
0 0.0192967 0.00511379 235.98
0 -0.0190006 0.00619146 1613.58
1.35525e-20 0.0190007 0.00619154 1614.37
0 0.0200621 6.76767e-05 272.352
0 -0.0200621 6.76468e-05 242.016
-1.35525e-20 0.020064 4.17066e-20 272.371
1.35525e-20 -0.020064 4.17825e-20 242.041
2.71051e-20 0.0196641 0.0040803 69.9571
0 -0.0196641 0.0040803 29.9425
0 -0.0190835 0.00626078 1592.14
-1.35525e-20 0.0190836 0.0062608 1592.98
1.35525e-20 -0.0191312 0.00616555 1586.95
1.35525e-20 0.0191312 0.00616565 1587.8
-5.64689e-21 0.0201001 0.00115692 178.599
-2.25875e-21 -0.0201001 0.00115692 144.806
0 0.020134 -1.86019e-22 272.317
0 -0.020134 -2.64557e-22 241.857
3.01167e-21 -0.0192828 0.00579514 961.233
1.8823e-21 0.0192828 0.00579515 998.694
0 -0.0196202 0.00477317 54.296
-2.71051e-20 0.0196202 0.00477318 116.68
0 -0.0201991 6.4721e-05 240.612
0 0.0201991 6.47462e-05 271.281
0 -0.020202 -1.30739e-21 240.606
0 0.020202 -1.26102e-21 271.277
-1.12938e-21 0.0200841 0.00236289 68.6771
-2.25875e-21 -0.0200841 0.00236289 34.1622
2.82344e-22 0.0200029 0.003057 56.8168
0 -0.0200029 0.00305699 24.5135
-1.35525e-20 0.0192378 0.00638357 1577.63
-1.35525e-20 -0.0192378 0.00638366 1576.75
0 -0.0195958 0.00544032 147.797
5.42101e-20 0.0195959 0.00544034 200.069
0 -0.0193039 0.00643681 1518.42
0 0.0193041 0.00643685 1519.19
0 0.0200275 0.00361572 63.6717
-5.64689e-22 -0.0200275 0.00361572 26.9198
6.77626e-21 -0.0193634 0.00636556 1485.32
0 0.0193636 0.00636543 1486.04
0 -0.0193735 0.00649738 1553.26
0 0.0193738 0.00649756 1554.07
-1.12938e-22 -0.01996 0.00438812 36.3991
3.38813e-22 0.01996 0.00438813 85.7645
-4.51751e-21 -0.0194904 0.00622237 1305.35
0 0.0194905 0.00622241 1313.86
2.25875e-21 -0.019924 0.00509886 77.9027
0 0.019924 0.00509886 138.667
0 -0.0195415 0.00664813 1629.41
-1.35525e-20 0.0195417 0.00664818 1630.1
-2.71051e-20 0.0202851 0.004065 67.571
2.71051e-20 -0.0202851 0.004065 27.6647
4.51751e-21 -0.0198605 0.00581199 403.322
2.25875e-21 0.0198605 0.00581203 450.195
1.35525e-20 -0.0196164 0.00659812 1601.46
-1.35525e-20 0.0196165 0.00659819 1602.17
5.42101e-20 0.0207232 0.000580771 268.79
0 -0.0207232 0.000580773 237.205
0 -0.0196177 0.00671647 1470.7
0 0.0196179 0.00671645 1471.51
0 -0.020698 0.00176856 46.7945
5.42101e-20 0.020698 0.00176856 74.2914
2.71051e-20 0.020263 0.00474092 96.5983
0 -0.020263 0.00474092 37.1928
0 -0.0196919 0.00678279 1672.19
0 0.019692 0.0067827 1672.7
1.35525e-20 -0.0197373 0.00670394 1638.98
-2.71051e-20 0.0197374 0.00670392 1639.55
5.42101e-20 0.0206519 0.00305779 57.4538
0 -0.0206519 0.0030578 25.0773
-4.03349e-22 -0.0199196 0.00639126 1035.97
0 0.0199197 0.00639124 1060.46
0 -0.0202264 0.00542436 70.9054
2.71051e-20 0.0202264 0.00542437 139.63
0 0.0206219 0.00375042 68.709
1.41172e-22 -0.0206228 0.00375111 26.8618
-1.35525e-20 0.0198641 0.00693674 1706.22
1.35525e-20 -0.0198641 0.00693696 1705.62
5.64689e-22 0.0205958 0.00438945 83.2377
0 -0.0205958 0.00438945 30.6626
-2.71051e-20 -0.0202261 0.00606702 195.548
2.71051e-20 0.0202262 0.00606702 233.198
-6.77626e-21 -0.019943 0.00700755 1712.15
-6.77626e-21 0.0199432 0.00700748 1712.79
0 -0.0200066 0.00693929 1674.45
6.77626e-21 0.0200069 0.00693907 1675.03
0 -0.0205707 0.00506212 45.3706
0 0.0205707 0.00506212 113.002
6.77626e-21 -0.0200222 0.00707844 1738.9
6.77626e-21 0.0200226 0.00707852 1739.63
0 -0.0201294 0.00680929 1481.27
-1.50584e-21 0.0201295 0.00680925 1489.68
0 0.0212882 4.76335e-05 268.05
0 -0.0212882 4.76213e-05 236.567
0 0.0212888 7.24532e-22 268.052
0 -0.0212888 7.03166e-22 236.568
-2.71051e-20 -0.0209335 0.00403737 26.8587
0 0.0209335 0.00403737 75.315
-1.12938e-21 -0.0205488 0.00572803 99.1374
0 0.0205489 0.00572802 167.263
6.77626e-21 -0.0213388 -2.81827e-23 236.523
0 0.0213388 -2.94246e-23 267.996
1.12938e-21 0.0213183 0.00116254 171.407
0 -0.0213183 0.00116254 143.297
0 -0.0213864 4.64638e-05 236.418
-6.77626e-21 0.0213864 4.6476e-05 267.902
-6.77626e-21 -0.0213874 -2.6136e-23 236.418
-6.77626e-21 0.0213874 -2.73181e-23 267.902
-2.71051e-20 0.0208978 0.00471075 93.5733
-2.71051e-20 -0.0208978 0.00471075 31.014
-5.64689e-22 0.0212954 0.00239197 66.8939
5.64689e-22 -0.0212954 0.00239197 37.8363
2.71051e-20 -0.0201947 0.00723274 1787.93
1.35525e-20 0.020195 0.00723268 1788.75
-2.25875e-21 -0.0204968 0.00642258 461.789
-9.03502e-21 0.0204969 0.00642257 514.497
0 -0.0202705 0.00718367 1757.77
-1.35525e-20 0.0202707 0.00718366 1758.63
2.71051e-20 -0.0202683 0.00729857 1608.18
-2.71051e-20 0.0202686 0.00729845 1609.24
-2.71051e-20 -0.0208996 0.00536218 43.1302
-2.71051e-20 0.0208996 0.00536217 122.655
0 -0.0203418 0.00736426 1811.87
2.71051e-20 0.020342 0.00736407 1812.89
1.69407e-22 0.0213396 0.00363556 73.4722
1.24231e-21 -0.0213396 0.00363555 27.5382
0 -0.0203851 0.00728766 1778.07
1.35525e-20 0.0203852 0.00728755 1779.1
7.52918e-22 -0.0212333 0.00436374 28.8449
3.76459e-22 0.0212333 0.00436374 85.9658
2.71051e-20 -0.0208556 0.00604666 83.8998
2.71051e-20 0.0208557 0.00604664 170.754
-4.03349e-22 -0.0205628 0.00698693 1130.76
-3.22679e-22 0.0205629 0.00698685 1165.23
-6.77626e-21 0.0205132 0.00751715 1849.99
-6.77626e-21 -0.0205131 0.00751749 1849.05
0 -0.0212965 0.00494793 35.4836
-1.12938e-21 0.0212965 0.00494792 109.407
2.71051e-20 -0.0208609 0.00667564 214.152
2.71051e-20 0.020861 0.00667559 275.823
0 -0.0205926 0.00758859 1852.75
-5.42101e-20 0.0219386 0.000582608 267.147
-5.42101e-20 -0.0219386 0.000582607 235.767
0 0.0205929 0.00758842 1853.73
1.12938e-21 -0.0211971 0.00569346 53.7645
3.38813e-21 0.0211971 0.00569344 142.973
6.77626e-21 -0.0206536 0.00752336 1812.61
0 0.0206541 0.00752303 1813.49
5.42101e-20 0.0219221 0.0017777 71.3214
0 -0.0219221 0.0017777 49.497
0 -0.0206735 0.00766098 1891.17
6.77626e-21 0.0206741 0.007661 1892.3
-4.51751e-21 -0.0207724 0.00739837 1602.93
-1.05409e-20 0.0207727 0.00739825 1616.29
-2.25875e-21 -0.0211741 0.0063493 112.188
-1.12938e-21 0.0211742 0.00634926 206.215
-5.42101e-20 0.0219191 0.00301936 64.0916
5.42101e-20 -0.0219191 0.00301937 29.3243
2.71051e-20 -0.0215298 0.00535617 36.8262
-2.71051e-20 0.0215298 0.00535616 123.156
0 -0.020847 0.00781616 1959.45
0 0.0208475 0.00781602 1960.49
9.03502e-21 -0.0211304 0.00702575 506.173
-6.77626e-21 0.0211305 0.00702568 593.918
0 -0.0218756 0.00434045 28.7467
0 0.0218756 0.00434044 92.0188
0 -0.020919 0.00777037 1929.71
0 0.0209193 0.00777028 1930.82
2.71051e-20 -0.0215089 0.00600419 51.9427
-2.71051e-20 0.021509 0.00600416 155.764
-2.71051e-20 -0.0209199 0.00788136 1776.78
0 0.0209203 0.00788115 1778.2
3.76459e-22 0.0218609 0.00500982 116.772
-9.41148e-22 -0.0218609 0.00500984 33.3543
4.06576e-20 -0.020991 0.0079449 1990.68
0 0.0209913 0.00794461 1991.97
1.35525e-20 -0.0210297 0.00787225 1956.55
0 0.02103 0.00787205 1957.87
0 -0.0214833 0.00666114 94.7984
2.71051e-20 0.0214834 0.00666109 219.351
0 -0.0211968 0.00757914 1249.7
5.64689e-22 0.0211971 0.00757898 1316.13
-3.38813e-21 0.0225192 3.03446e-05 266.987
-3.38813e-21 -0.0225192 3.03353e-05 235.783
0 0.0225194 -1.09695e-24 266.987
0 -0.0225194 -1.05821e-24 235.783
0 -0.0225512 2.5857e-25 235.776
0 0.0225512 2.58741e-25 266.964
0 0.0218404 0.00566341 138.076
-2.25875e-21 -0.0218404 0.00566343 40.3397
1.12938e-21 -0.0225415 0.00116563 145.029
5.64689e-22 0.0225415 0.00116563 170.367
-3.38813e-21 -0.0225819 2.96654e-05 235.748
-3.38813e-21 0.0225819 2.96744e-05 266.918
-3.38813e-21 -0.0225822 2.38805e-25 235.747
-3.38813e-21 0.0225822 2.39138e-25 266.917
-1.35525e-20 0.0211522 0.00808853 2041.06
-2.03288e-20 -0.0211521 0.00808899 2039.57
5.64689e-22 -0.0225347 0.00238614 41.7228
1.69407e-21 0.0225347 0.00238614 69.1277
2.71051e-20 -0.0214888 0.00728091 238.801
5.42101e-20 0.021489 0.00728079 369.064
0 0.0218198 0.00631442 178.179
5.64689e-21 -0.0218198 0.00631445 60.6088