# p  POINT_DATA 27416
# x  y  z  p
0 0.0115468 6.39774e-08 -0.00202706
0 -0.0115468 6.39774e-08 0.00739836
0 -0.0115468 0.000159933 0.00739836
6.77626e-21 0.0115468 0.000159966 -0.00202569
1.35525e-20 -0.0115468 0.000505149 0.00739837
0 0.0115468 0.000505252 -0.00202615
0 -0.0115468 0.000661354 0.00739837
0 0.0115468 0.00066149 -0.00202762
-6.77626e-21 -0.0115468 0.000824682 0.0073984
0 0.0115468 0.000824823 -0.0020257
6.77626e-21 -0.0115467 0.00119323 0.0073984
-6.77626e-21 0.0115467 0.00119337 -0.00202607
0 0.0116176 9.48413e-05 -0.00202532
1.35525e-20 -0.0116176 9.48283e-05 0.00739839
0 0.0116191 6.70002e-08 -0.00202532
0 -0.0116191 6.70007e-08 0.00739839
0 -0.0115467 0.00135636 0.00739837
0 0.0115467 0.0013565 -0.00202797
0 -0.0116144 0.000567788 0.0073984
0 0.0116144 0.000567904 -0.00202597
0 -0.0116106 0.000748384 0.00739841
0 0.0116106 0.000748514 -0.00202571
0 -0.0115467 0.00152899 0.0073984
6.77626e-21 0.0115467 0.00152911 -0.00202592
0 -0.0116105 0.00124699 0.00739842
1.35525e-20 0.0116105 0.00124712 -0.00202621
0 -0.0116054 0.00142615 0.00739841
-1.35525e-20 0.0116054 0.00142627 -0.0020261
6.77626e-21 -0.0115467 0.00190899 0.00739839
0 0.0115467 0.00190902 -0.0020261
1.35525e-20 0.0117276 6.6334e-08 -0.00202582
-1.35525e-20 -0.0117276 6.63364e-08 0.00739842
6.77626e-21 -0.0117103 0.000650494 0.00739842
2.03288e-20 0.0117103 0.000650588 -0.00202646
-1.35525e-20 0.0115467 0.002087 -0.00202849
1.35525e-20 -0.0115467 0.002087 0.00739835
0 -0.011609 0.00193563 0.0073984
0 0.011609 0.00193565 -0.00202636
0 -0.0117025 0.00130867 0.00739841
6.77626e-21 0.0117025 0.00130876 -0.00202729
0 -0.0116004 0.00211165 0.00739837
0 0.0116004 0.00211165 -0.00202858
0 -0.0116425 0.00204727 0.00739838
0 0.0116425 0.00204727 -0.00202807
-1.35525e-20 -0.0116584 0.00213828 0.0073984
1.35525e-20 0.0116584 0.00213829 -0.00202731
0 -0.0117067 0.00192898 0.00739841
-1.35525e-20 0.0117067 0.00192897 -0.00202708
4.51751e-21 -0.0118537 0.000959071 0.00739847
4.51751e-21 0.0118537 0.000959138 -0.00202758
-4.51751e-21 0.0119178 0.000318651 -0.0020249
0 -0.0119179 0.000318619 0.00739848
1.35525e-20 0.011932 7.04551e-08 -0.00202518
-1.35525e-20 -0.011932 7.04586e-08 0.00739849
2.71051e-21 -0.0118325 0.00163064 0.00739846
0 0.0118325 0.00163068 -0.00202675
0 -0.0118724 0.00142181 0.00739845
0 0.0118724 0.00142183 -0.00202782
2.71051e-20 -0.0117615 0.0021856 0.00739847
-1.35525e-20 0.0117615 0.0021856 -0.00202571
5.42101e-20 -0.0118132 0.00220928 0.00739846
-5.42101e-20 0.0118132 0.00220929 -0.00202616
1.8823e-21 -0.0118989 0.00195768 0.00739852
-3.76459e-22 0.0118989 0.00195768 -0.00202461
-6.77626e-21 -0.0119718 0.00153839 0.00739842
6.77626e-21 0.0119718 0.0015384 -0.0020314
0 0.0120982 7.96187e-08 -0.00202454
0 -0.0120983 7.96213e-08 0.00739853
4.06576e-21 -0.0120694 0.000852607 0.00739851
-2.71051e-21 0.0120694 0.000852623 -0.00202839
0 0.0122081 0.000167123 -0.00202422
0 -0.0122082 0.000167144 0.00739855
0 0.012221 7.14632e-08 -0.00202423
0 -0.012221 7.14627e-08 0.00739855
2.71051e-21 0.0121684 0.00122551 -0.00202469
-1.20467e-21 -0.0121684 0.0012255 0.00739854
-2.71051e-20 0.012025 0.00230651 -0.00202394
0 -0.012025 0.0023065 0.00739858
3.22679e-21 0.0122349 0.000642359 -0.00202265
-7.09894e-21 -0.0122349 0.000642355 0.0073986
-3.38813e-21 -0.0120593 0.00232222 0.00739859
-1.01644e-20 0.0120594 0.00232227 -0.00202398
0 0.0122855 6.71739e-08 -0.0020237
2.71051e-20 -0.0122856 6.71709e-08 0.00739858
1.97641e-21 0.0122109 0.00173628 -0.00202305
2.5411e-21 -0.0122109 0.00173628 0.00739859
-8.13152e-21 -0.0121468 0.00214599 0.00739861
-5.42101e-21 0.0121468 0.002146 -0.00202389
0 -0.0122263 0.00229068 0.00739862
-6.77626e-21 0.0122263 0.00229071 -0.00202395
0 0.0124605 5.58013e-08 -0.00202205
0 -0.0124606 5.57971e-08 0.00739863
0 0.0125121 0.000225139 -0.00202166
2.71051e-21 -0.0125121 0.000225154 0.00739866
0 -0.0122889 0.00242763 0.00739861
0 0.0122889 0.00242764 -0.00202441
0 0.0125901 0.000921782 -0.00202217
0 -0.0125901 0.000921774 0.00739872
1.35525e-20 -0.012401 0.00241699 0.00739866
-1.35525e-20 0.012401 0.00241701 -0.00202356
6.77626e-21 -0.0123956 0.00247647 0.00739866
-6.77626e-21 0.0123956 0.00247648 -0.00202344
6.77626e-21 -0.0124524 0.00218685 0.00739866
-3.38813e-21 0.0124525 0.00218686 -0.002024
-2.71051e-20 -0.0125381 0.00209401 0.00739865
0 0.0125382 0.00209403 -0.00202652
1.0842e-20 0.0126447 0.00162116 -0.00202056
8.13152e-21 -0.0126447 0.00162116 0.00739874
-1.35525e-20 -0.012772 0.000141268 0.00739876
0 0.0127721 0.000141226 -0.00201962
1.35525e-20 -0.0127747 1.51153e-08 0.00739876
1.35525e-20 0.0127748 1.5111e-08 -0.00201967
-2.71051e-21 -0.012613 0.00241878 0.00739873
-1.35525e-20 0.0126131 0.00241885 -0.00202143
-1.35525e-20 -0.0125861 0.00256369 0.00739874
-2.71051e-20 0.0125863 0.00256377 -0.00202037
0 -0.0129279 4.53095e-09 0.00739883
0 0.0129279 4.5309e-09 -0.0020187
9.03502e-21 0.0129181 0.000605376 -0.00201891
-1.12938e-20 -0.0129181 0.000605387 0.00739884
-2.25875e-21 0.0129069 0.00122274 -0.00201866
0 -0.0129069 0.00122276 0.00739884
0 -0.0127462 0.00263697 0.0073988
-2.71051e-20 0.0127464 0.00263706 -0.00201777
9.03502e-21 -0.0128745 0.00194112 0.00739881
-4.51751e-21 0.0128745 0.00194112 -0.00202003
0 0.0130689 3.79654e-09 -0.0020175
0 -0.0130689 3.79638e-09 0.00739888
2.71051e-20 0.0130684 0.000129725 -0.00201749
-1.35525e-20 -0.0130685 0.000129754 0.00739888
0 -0.0129105 0.00229687 0.00739884
-2.25875e-21 0.0129105 0.00229689 -0.00201829
-1.89735e-20 0.0131166 0.0016405 -0.00201633
-2.71051e-21 -0.0131166 0.00164051 0.00739891
0 0.013248 0.000302964 -0.00201596
0 -0.013248 0.000302968 0.00739895
1.35525e-20 -0.0129823 0.00274601 0.00739888
2.71051e-20 0.0129824 0.00274607 -0.00201337
0 -0.0132464 0.00091148 0.00739897
0 0.0132464 0.000911472 -0.0020164
-4.51751e-21 -0.0131303 0.00262464 0.00739893
9.03502e-21 0.0131304 0.00262467 -0.00201267
0 0.0132415 0.00211425 -0.00201795
0 -0.0132415 0.00211425 0.00739894
6.77626e-21 -0.0131184 0.00280831 0.00739892
1.35525e-20 0.0131185 0.00280836 -0.00201224
-1.35525e-20 -0.013437 2.08369e-09 0.00739901
-1.35525e-20 0.013437 2.0834e-09 -0.0020147
1.35525e-20 -0.0134397 0.000120669 0.00739901
-1.35525e-20 0.0134397 0.000120639 -0.00201467
-1.35525e-20 0.0135679 1.40563e-09 -0.00201402
0 -0.0135679 1.40572e-09 0.00739905
0 0.0135763 0.00059667 -0.00201386
0 -0.0135763 0.000596683 0.00739907
1.12938e-20 0.0135724 0.00122413 -0.00201325
4.51751e-21 -0.0135724 0.00122414 0.00739908
0 -0.0133498 0.00291515 0.007399
2.71051e-20 0.0133498 0.00291517 -0.00201159
-6.77626e-21 -0.0134778 0.00238384 0.00739904
-2.25875e-21 0.0134778 0.00238384 -0.00201248
-2.25875e-21 0.0135676 0.00185527 -0.00201301
0 -0.0135676 0.00185528 0.00739907
1.35525e-20 0.0136939 1.2223e-09 -0.00201314
0 -0.013694 1.22233e-09 0.00739909
0 0.0136952 0.000110039 -0.00201313
-1.35525e-20 -0.0136952 0.000110069 0.00739909
1.01644e-20 -0.013543 0.0030057 0.00739909
3.72694e-20 0.0135431 0.00300574 -0.00200602
-2.71051e-20 -0.0139035 0.000294191 0.00739915
0 0.0139035 0.000294183 -0.0020117
1.69407e-20 0.0135877 0.0030267 -0.00200494
-3.38813e-20 -0.0135877 0.00302672 0.0073991
2.71051e-20 -0.0139155 0.000900759 0.0073992
0 0.0139156 0.000900746 -0.0020112
-9.03502e-21 -0.0136797 0.00276423 0.00739913
2.25875e-21 0.0136798 0.00276423 -0.00200593
2.71051e-20 -0.0139125 0.00154328 0.00739921
0 0.0139125 0.00154327 -0.00201032
-2.71051e-20 0.0138987 0.00219587 -0.00200854
0 -0.0138987 0.00219588 0.00739919
0 -0.0141099 3.98855e-10 0.00739921
-1.35525e-20 0.01411 3.98723e-10 -0.00201037
0 -0.0141138 9.87931e-05 0.00739921
1.35525e-20 0.0141138 9.87563e-05 -0.00201034
-4.06576e-20 -0.0138002 0.00312615 0.00739915
-1.35525e-20 0.0138003 0.00312616 -0.00200414
0 -0.0142228 2.30732e-10 0.00739925
0 0.0142228 2.30673e-10 -0.00200976
-4.51751e-21 -0.0142415 0.000581 0.00739929
-2.25875e-21 0.0142415 0.000580992 -0.00200915
0 0.0142522 0.0012064 -0.00200839
-3.38813e-21 -0.0142522 0.00120642 0.00739932
-1.35525e-20 0.0143301 2.07135e-10 -0.00200885
0 -0.0143301 2.07176e-10 0.00739927
0 0.0143313 8.88715e-05 -0.00200885
0 -0.0143313 8.89038e-05 0.00739927
1.35525e-20 -0.0139709 0.00320515 0.00739923
-6.77626e-21 0.013971 0.00320516 -0.00198805
-1.12938e-21 0.0142439 0.0018749 -0.00200778
2.25875e-21 -0.0142439 0.00187491 0.00739931
-8.13152e-21 -0.0140732 0.00302489 0.00739927
0 0.0140732 0.00302489 -0.00198891
1.807e-21 0.0141848 0.00260879 -0.00200313
1.807e-21 -0.0141848 0.00260878 0.00739929
-1.35525e-20 -0.0140966 0.0032633 0.00739927
6.77626e-21 0.0140966 0.0032633 -0.00198886
1.35525e-20 -0.0142071 0.00316518 0.00739931
0 0.0142071 0.00316519 -0.00199077
2.71051e-20 -0.0145609 0.000281726 0.00739934
-2.71051e-20 0.0145609 0.000281727 -0.00200735
0 -0.0145815 0.000874369 0.00739945
-2.71051e-20 0.0145815 0.000874352 -0.00200626
0 -0.0142355 0.00332754 0.00739931
-1.35525e-20 0.0142355 0.00332755 -0.00200041
0 -0.0145904 0.00151949 0.00739944
0 0.0145904 0.00151948 -0.00200571
-2.71051e-20 -0.0145713 0.00221296 0.00739942
2.71051e-20 0.0145713 0.00221296 -0.00200686
0 0.014357 0.00338361 -0.00200009
0 -0.014357 0.0033836 0.00739934
0 -0.0144398 0.00302855 0.00739938
4.51751e-21 0.0144398 0.00302856 -0.00199988
1.35525e-20 -0.0143822 0.00330544 0.00739935
-1.35525e-20 0.0143822 0.00330545 -0.00199946
-1.35525e-20 -0.0147852 4.2202e-11 0.00739942
0 0.0147853 4.21645e-11 -0.00200706
0 -0.0147878 7.95642e-05 0.00739942
-1.35525e-20 0.0147879 7.95165e-05 -0.00200705
-1.35525e-20 -0.0148815 2.04947e-11 0.00739946
1.35525e-20 0.0148815 2.04768e-11 -0.00200753
2.71051e-20 -0.0146213 0.00280152 0.00739941
2.71051e-20 0.0146213 0.00280153 -0.0020087
2.25875e-21 -0.0149013 0.000554706 0.00739953
-2.25875e-21 0.0149014 0.000554705 -0.0020061
0 -0.0145853 0.0032615 0.00739942
0 0.0145853 0.00326151 -0.0020042
2.25875e-21 -0.014922 0.00116917 0.00739958
1.12938e-21 0.014922 0.00116916 -0.0020041
0 0.0149733 1.85798e-11 -0.00200702
-1.35525e-20 -0.0149733 1.85939e-11 0.00739949
0 0.0149737 7.37377e-05 -0.00200701
0 -0.0149738 7.37997e-05 0.00739949
1.35525e-20 -0.0146077 0.00349931 0.00739942
2.71051e-20 0.0146077 0.00349933 -0.00200158
1.12938e-21 -0.0149197 0.00184904 0.00739956
-1.12938e-21 0.0149197 0.00184904 -0.00200438
0 -0.014666 0.00343236 0.00739944
0 0.0146661 0.00343238 -0.0020011
-1.12938e-21 -0.0149194 0.00252067 0.00739954
1.12938e-21 0.0149194 0.00252068 -0.0020027
1.35525e-20 -0.0147321 0.00355664 0.00739948
2.71051e-20 0.0147321 0.00355666 -0.00200201
-1.12938e-21 -0.0148879 0.0030961 0.00739953
-2.25875e-21 0.0148879 0.00309611 -0.00199931
0 -0.0152102 0.000264582 0.00739958
2.71051e-20 0.0152103 0.00026457 -0.00200662
0 -0.0152372 0.00083281 0.00739973
-2.71051e-20 0.0152372 0.000832812 -0.00200407
0 0.0148481 0.0036099 -0.0019922
-6.77626e-21 -0.0148481 0.00360989 0.00739954
0 0.0148927 0.003477 -0.00199374
1.35525e-20 -0.0148927 0.00347697 0.00739955
2.71051e-20 -0.0152552 0.00147324 0.00739968
0 0.0152552 0.00147323 -0.00200044
2.71051e-20 -0.0152471 0.00216851 0.00739968
0 0.0152472 0.00216851 -0.00200462
0 -0.0154526 2.80546e-12 0.00739964
0 0.0154528 2.79932e-12 -0.00200587
-6.77626e-21 -0.0154539 6.43657e-05 0.00739964
0 0.0154541 6.42863e-05 -0.00200586
1.35525e-20 -0.0150216 0.00368974 0.00739959
-2.71051e-20 0.0150217 0.00368977 -0.00198744
-2.71051e-20 -0.0150964 0.0034047 0.00739962
0 0.0150964 0.00340472 -0.00199161
2.71051e-20 -0.0152384 0.00284799 0.00739966
0 0.0152384 0.002848 -0.00199085
0 -0.0155344 1.12584e-12 0.00739967
0 0.0155345 1.12356e-12 -0.00200642
-1.35525e-20 -0.015136 0.00358103 0.00739962
2.71051e-20 0.015136 0.00358108 -0.0019872
0 -0.0155483 0.00051281 0.00739974
2.25875e-21 0.0155483 0.000512813 -0.00200551
0 -0.0156089 5.68787e-05 0.00739969
6.77626e-21 0.0156089 5.68083e-05 -0.00200498
0 -0.0156116 1.05395e-12 0.00739969
6.77626e-21 0.0156116 1.052e-12 -0.00200496
-1.35525e-20 -0.0151553 0.00375099 0.00739961
1.35525e-20 0.0151553 0.00375102 -0.00199265
1.12938e-21 -0.0156 0.00110029 0.00739983
4.51751e-22 0.0156 0.0011003 -0.00200325
0 0.0155873 0.00178843 -0.00200456
5.64689e-22 -0.0155873 0.00178844 0.00739981
0 0.0152736 0.00381163 -0.00197941
-1.35525e-20 -0.0152736 0.00381161 0.0073996
1.35525e-20 0.015311 0.00369351 -0.00198078
-1.35525e-20 -0.0153111 0.00369346 0.00739962
3.38813e-21 -0.0155683 0.00250748 0.00739979
3.38813e-21 0.0155683 0.00250748 -0.00200421
-2.71051e-20 -0.015842 0.000233949 0.00739975
-5.42101e-20 0.0158421 0.000233943 -0.00200423
1.807e-21 -0.0155232 0.00325343 0.00739974
-4.51751e-22 0.0155232 0.00325344 -0.00199679
0 -0.0158871 0.00076245 0.00739992
-2.71051e-20 0.0158872 0.000762453 -0.00200636
-1.35525e-20 -0.0154852 0.00363863 0.00739967
-1.35525e-20 0.0154852 0.00363865 -0.0019782
-1.35525e-20 -0.0154926 0.00391517 0.00739969
6.77626e-21 0.0154927 0.00391521 -0.00198845
2.71051e-20 -0.0159268 0.00138123 0.00739992
0 0.0159268 0.00138123 -0.00200196
0 -0.0155592 0.00385208 0.00739972
0 0.0155593 0.00385214 -0.00199108
2.71051e-20 -0.0158993 0.00212235 0.00739993
0 0.0158993 0.00212235 -0.00201072
-1.35525e-20 -0.0155753 0.00395587 0.00739974
0 0.0155754 0.0039559 -0.00200179
2.71051e-20 -0.0158855 0.0028466 0.00739989
0 0.0158855 0.00284661 -0.00201132
6.77626e-21 -0.0156481 0.00400349 0.00739978
6.77626e-21 0.0156482 0.00400349 -0.00201407
3.38813e-21 -0.0161504 0.000464681 0.00740012
-3.95282e-21 0.0161505 0.000464663 -0.00200368
0 -0.0156709 0.0039483 0.00739978
-1.35525e-20 0.0156709 0.00394832 -0.00201125
-4.51751e-21 -0.0157655 0.00368362 0.00739981
2.25875e-21 0.0157655 0.00368363 -0.00200379
4.23516e-21 0.0162446 7.65639e-14 -0.00200305
0 -0.0162451 7.5465e-14 0.00740027
2.11758e-21 -0.0162671 1.41522e-05 0.00740029
0 -0.0162672 1.7377e-06 0.00740029
7.19978e-21 0.0162672 1.45818e-05 -0.00200296
0 0.0162715 1.44085e-06 -0.00200303
-2.71051e-20 -0.0159384 0.00346447 0.00739987
0 0.0159384 0.00346448 -0.0020139
2.82344e-22 -0.0162375 0.00174475 0.00740004
3.95282e-22 0.0162375 0.00174473 -0.00200889
9.03502e-21 -0.0163344 0.000944395 0.00740023
-9.03502e-21 0.0163345 0.00094441 -0.00200957
-2.71051e-20 -0.015896 0.00392571 0.00739988
0 0.015896 0.00392573 -0.00202091
-1.6134e-21 -0.0162554 0.00244438 0.00740004
6.45358e-22 0.0162554 0.0024444 -0.00200353
-1.35525e-20 -0.0159401 0.00419455 0.00739991
0 0.0159403 0.00419464 -0.00203197
1.12938e-21 -0.0162141 0.00317059 0.00739999
5.64689e-22 0.0162141 0.0031706 -0.00200902
0 -0.0159991 0.00414931 0.00739994
0 0.0159991 0.00414944 -0.00203055
0 -0.016026 0.00425065 0.00739993
0 0.0160261 0.00425068 -0.00202513
-1.8823e-22 -0.0166367 0.000352808 0.00740195
-1.8823e-22 0.0166369 0.00035298 -0.00199672
0 0.0160816 0.0042869 -0.00203062
1.35525e-20 -0.0160816 0.0042869 0.00739991
0 0.016105 0.00423208 -0.00202981
1.35525e-20 -0.016105 0.00423203 0.00739993
0 0.016226 0.00384224 -0.0020216
0 -0.0162264 0.00384238 0.0074
-6.35275e-22 0.0162339 0.00382556 -0.00202154
-1.37643e-21 -0.0162339 0.00382647 0.0074
1.05879e-22 0.0162401 0.00384589 -0.00202198
0 -0.0162351 0.00384457 0.0074
0 -0.0167083 1.01691e-14 0.00740183
-6.77626e-21 0.0167085 1.01518e-14 -0.00199835
0 -0.0166691 0.00146461 0.00740015
0 0.0166691 0.0014646 -0.00204537
-5.42101e-20 -0.0165265 0.0028208 0.00740012
0 0.0165265 0.00282081 -0.00200698
-1.35525e-20 0.0161983 0.00436312 -0.00203687
-6.77626e-21 -0.0161984 0.00436319 0.00740001
-5.42101e-20 -0.0166645 0.00194623 0.00740015
-2.71051e-20 0.0166645 0.00194624 -0.00198802
0 0.0165187 0.00350446 -0.00200376
0 -0.0165187 0.00350446 0.00740009
1.35525e-20 -0.0169424 1.10016e-15 0.00740121
-1.35525e-20 0.0169426 1.10457e-15 -0.00201053
-2.03288e-20 -0.0163499 0.00446211 0.00740018
0 0.0163499 0.0044621 -0.00205544
-3.10579e-21 0.0169272 0.000866318 -0.00201715
1.97641e-21 -0.0169272 0.000866361 0.00740068
-1.35525e-20 -0.0168735 0.00168495 0.0074002
1.35525e-20 0.0168736 0.00168495 -0.00201216
0 0.0164548 0.00427999 -0.00205978
-3.38813e-21 -0.0164549 0.00428001 0.0074003
9.88205e-22 0.0168849 0.00243443 -0.00200257
9.88205e-22 -0.0168849 0.00243443 0.00740025
-6.77626e-21 -0.0164962 0.00455762 0.00740009
6.77626e-21 0.0164963 0.00455763 -0.00203584
5.64689e-22 0.0168359 0.00316003 -0.00201052
5.64689e-22 -0.0168359 0.00316003 0.0074002
1.35525e-20 -0.0171338 1.74505e-16 0.00740138
0 0.0171342 1.75422e-16 -0.00201421
0 -0.0170775 0.00142438 0.00740018
-2.71051e-20 0.0170775 0.00142436 -0.0020265
4.06576e-21 -0.0171371 0.000271939 0.0074013
-8.13152e-21 0.0171374 0.000272002 -0.00201567
2.71051e-20 -0.0170666 0.00192551 0.0074002
0 0.0170666 0.00192552 -0.00199099
0 0.0167863 0.00388665 -0.00202896
0 -0.0167864 0.00388664 0.00740019
0 -0.0166206 0.00463879 0.0074001
0 0.0166207 0.00463877 -0.00202734
-2.71051e-20 0.0166524 0.00459992 -0.00202657
0 -0.0166524 0.00459992 0.00740012
0 0.0166794 0.00467712 -0.00203067
1.35525e-20 -0.0166795 0.00467715 0.00740016
2.35287e-22 -0.016844 0.00433503 0.00740021
4.70574e-23 0.0168452 0.00433528 -0.00203736
-2.71051e-20 0.0171764 0.00277493 -0.00201338
-2.71051e-20 -0.0171764 0.00277493 0.00740031
0 0.0174301 3.02821e-16 -0.00201008
0 -0.0174308 3.00144e-16 0.00740093
0 0.0168042 0.00464355 -0.00202136
-1.35525e-20 -0.0168042 0.00464358 0.00740019
-6.77626e-21 0.0167886 0.00474831 -0.00202143
-1.35525e-20 -0.0167887 0.0047484 0.00740017
-6.77626e-21 0.017449 0.000139075 -0.00200959
0 -0.0174496 0.000138384 0.00740088
2.71051e-20 0.0171294 0.00350658 -0.00201777
0 -0.0171294 0.00350657 0.00740031
6.77626e-21 0.0175668 -2.95376e-17 -0.00200493
0 -0.0175669 -2.94893e-17 0.00740055
5.64689e-22 -0.0175583 0.000896638 0.00740052
8.47033e-22 0.0175583 0.000896566 -0.00202002
7.05861e-22 0.0175189 0.00167533 -0.00202597
-2.82344e-22 -0.0175189 0.00167527 0.00740042
6.77626e-21 -0.0176062 4.62632e-05 0.00740048
0 0.0176064 4.65549e-05 -0.0020021
6.77626e-21 -0.0176089 -8.34897e-18 0.00740048
-6.77626e-21 0.0176091 -8.34566e-18 -0.00200216
-5.42101e-20 0.0171399 0.00413685 -0.00206257
-2.71051e-20 -0.01714 0.00413686 0.0074003
0 -0.0176343 -4.66431e-18 0.00740052
6.77626e-21 0.0176347 -4.59267e-18 -0.00200371
2.71051e-20 0.0170445 0.00462908 -0.00201591
0 -0.0170445 0.00462914 0.00740028
5.64689e-22 0.0175376 0.00228764 -0.00203329
1.12938e-21 -0.0175376 0.00228764 0.00740047
1.35525e-20 0.0170023 0.00488776 -0.00202487
-2.71051e-20 -0.0170024 0.00488783 0.00740027
0 -0.0176972 4.73615e-05 0.00740057
0 0.017698 4.76654e-05 -0.00200388
0 -0.0177005 -1.62468e-17 0.00740057
6.77626e-21 0.0177013 -1.6206e-17 -0.00200389
-1.69407e-21 -0.0174646 0.00310783 0.00740046
9.03502e-22 0.0174646 0.00310785 -0.00203766
0 0.0171112 0.00481659 -0.00202622
0 -0.0171113 0.00481667 0.00740033
0 0.0171346 0.00497401 -0.00204092
1.35525e-20 -0.0171347 0.00497413 0.00740034
-5.64689e-21 0.0174342 0.00383429 -0.00204418
0 -0.0174342 0.00383429 0.00740043
-2.71051e-20 0.0172171 0.00502787 -0.00203459
0 -0.0172173 0.00502799 0.00740001
1.35525e-20 0.0172554 0.00493142 -0.00203372
0 -0.0172556 0.00493154 0.0074001
-3.76459e-22 0.0174076 0.00453333 -0.00204649
-3.76459e-22 -0.0174076 0.00453336 0.00740043
0 0.0177905 0.00276845 -0.00206957
2.71051e-20 -0.0177905 0.00276845 0.00740062
-2.71051e-20 0.0177573 0.00348298 -0.002052
2.71051e-20 -0.0177574 0.00348299 0.00740061
-6.77626e-21 0.017378 0.00513278 -0.00204858
2.03288e-20 -0.0173781 0.0051329 0.00740041
0 0.0174497 0.00517959 -0.0020594
0 -0.0174498 0.00517964 0.00740062
0 0.0177264 0.00417356 -0.0020445
2.71051e-20 -0.0177264 0.00417357 0.0074005
6.77626e-21 0.0175029 0.00510088 -0.00206209
0 -0.0175029 0.005101 0.00740074
1.0842e-19 -0.0181611 0.00171797 0.00740073
-5.42101e-20 0.0181612 0.00171798 -0.00206619
6.77626e-21 -0.0175201 0.00522549 0.00740049
1.35525e-20 0.0175201 0.00522553 -0.00205344
5.42101e-20 -0.0182822 0.000515621 0.00740042
0 0.0182823 0.000515628 -0.00200487
1.05879e-22 0.0181327 0.00240414 -0.00208748
4.97632e-21 -0.0181332 0.00240535 0.00740064
-2.11758e-22 -0.0181317 0.0024243 0.00740065
8.47033e-22 0.0181316 0.0024249 -0.0020873
-3.01167e-21 0.0176138 0.0049468 -0.00207305
1.05409e-20 -0.0176139 0.00494682 0.00740103
2.82344e-21 -0.0180947 0.00311468 0.00740074
0 0.0180947 0.00311468 -0.00208112
1.12938e-21 0.0180563 0.00382343 -0.00206586
1.12938e-21 -0.0180563 0.00382343 0.00740078
0 -0.0177083 0.00534826 0.00740057
0 0.0177083 0.00534827 -0.00204927
-1.35525e-20 -0.0177632 0.00528867 0.00740061
0 0.0177632 0.00528872 -0.00204943
-4.51751e-21 0.0179883 0.0045481 -0.00206294
-4.51751e-21 -0.0179884 0.00454809 0.00740071
2.71051e-20 0.0178024 0.00540967 -0.00205416
0 -0.0178025 0.0054097 0.00740068
-2.71051e-20 -0.0184402 0.00274762 0.00740063
0 0.0184402 0.00274761 -0.00211658
2.25875e-21 0.0180053 0.00502464 -0.00206006
-1.35525e-21 -0.0180053 0.00502466 0.00740075
2.71051e-20 0.0183918 0.00345434 -0.00208653
0 -0.0183918 0.00345433 0.00740109
6.77626e-21 0.0179451 0.00550277 -0.00204256
-6.77626e-21 -0.0179453 0.00550285 0.00740073
-2.71051e-20 0.0183611 0.00415361 -0.00208058
2.71051e-20 -0.0183611 0.00415361 0.00740094
0 0.0188421 7.04156e-05 -0.00200304
0 -0.0188422 7.03628e-05 0.00740085
0 0.0188477 1.10464e-18 -0.00200304
0 -0.0188477 1.06274e-18 0.00740085
2.25875e-21 -0.0188602 0.00112833 0.00740094
2.25875e-21 0.0188602 0.00112834 -0.00203435
-6.77626e-21 -0.0180592 0.00557717 0.00740063
1.35525e-20 0.0180593 0.00557723 -0.00204292
0 0.0181347 0.00538311 -0.00204538
4.51751e-21 -0.0181348 0.00538307 0.00740073
1.35525e-20 -0.018942 6.21249e-19 0.00740088
-1.35525e-20 0.018942 6.17799e-19 -0.00200286
4.51751e-21 -0.0188166 0.00228404 0.0074012
-5.64689e-21 0.0188167 0.00228404 -0.00209795
0 0.0183535 0.00480356 -0.00205916
0 -0.0183536 0.00480356 0.00740081
-1.27055e-21 -0.0187311 0.00307208 0.00740123
5.64689e-22 0.0187311 0.00307209 -0.00210859
0 -0.0190249 8.5231e-05 0.00740092
1.35525e-20 0.019025 8.52886e-05 -0.00200578
-1.35525e-20 -0.0190315 5.66644e-19 0.00740092
1.35525e-20 0.0190316 5.63374e-19 -0.00200578
-2.71051e-20 -0.0182205 0.00568238 0.00740057
-1.35525e-20 0.0182205 0.00568238 -0.00205789
-4.5881e-22 0.0187398 0.00374577 -0.00209347
4.94103e-22 -0.0187398 0.00374577 0.00740113
0 0.0186713 0.00447942 -0.00207498
-3.38813e-21 -0.0186713 0.00447942 0.00740103
-1.35525e-20 0.0183608 0.00577389 -0.00204844
1.35525e-20 -0.0183608 0.00577392 0.00739959
1.35525e-20 0.018471 0.00561106 -0.00205022
5.42101e-21 -0.018471 0.00561103 0.00739971
-8.13152e-21 -0.0186129 0.00519728 0.00740071
3.61401e-21 0.0186129 0.00519728 -0.0020598
2.71051e-20 -0.0191646 0.00284904 0.00740205
-2.71051e-20 0.0191646 0.00284904 -0.00212669
-6.77626e-21 -0.0184854 0.00585515 0.00739966
1.35525e-20 0.0184855 0.00585524 -0.00204855
-2.71051e-20 0.0191555 0.0033016 -0.00211967
0 -0.0191555 0.00330159 0.00740133
0 -0.0190101 0.00412451 0.00740118
-2.71051e-20 0.0190101 0.00412452 -0.00209377
0 -0.0185922 0.00576694 0.00739987
0 0.0185922 0.00576709 -0.00204951
1.35525e-20 -0.0186006 0.00593031 0.00740053
1.35525e-20 0.0186007 0.00593035 -0.00205793
0 -0.0195235 0.000571337 0.00740131
-5.42101e-20 0.0195235 0.000571339 -0.00200477
-5.42101e-20 -0.0194631 0.0017685 0.00740129
-5.42101e-20 0.0194631 0.0017685 -0.00206458
-2.82344e-22 -0.0194127 0.0024132 0.0074012
0 0.0194127 0.00241321 -0.00210968
0 -0.0189749 0.00481043 0.00740119
0 0.0189749 0.00481044 -0.00206769
0 -0.0193686 0.00306998 0.00740094
0 0.0193686 0.00306998 -0.0021308
1.50584e-21 -0.0188275 0.00563325 0.0074006
1.50584e-21 0.0188275 0.00563327 -0.00205826
2.03288e-20 0.0187165 0.00600599 -0.00205269
-6.77626e-21 -0.0187166 0.00600601 0.0074009
1.35525e-20 0.018758 0.00590207 -0.00205252
-1.35525e-20 -0.0187581 0.00590201 0.00740077
-7.05861e-22 0.0193727 0.00376105 -0.00210839
-1.41172e-21 -0.0193727 0.00376105 0.00740089
-2.71051e-20 -0.0190128 0.00540896 0.00740113
-2.71051e-20 0.0190128 0.00540898 -0.00207319
-2.71051e-20 -0.0195979 0.00284199 0.00740022
0 0.0195979 0.00284199 -0.00213859
-1.12938e-21 -0.0193152 0.00445137 0.00740107
-1.12938e-21 0.0193152 0.00445138 -0.00207968
-2.71051e-20 -0.0189326 0.00587663 0.00740112
0 0.0189326 0.00587667 -0.00205081
1.35525e-20 -0.0188663 0.00610385 0.00740115
-2.71051e-20 0.0188665 0.006104 -0.00205285
0 -0.0195614 0.00328798 0.00740012
0 0.0195614 0.00328799 -0.00214163
1.35525e-20 -0.0189889 0.00604035 0.00740114
-2.71051e-20 0.0189891 0.00604056 -0.00205274
1.12938e-21 -0.0192967 0.00511377 0.00740112
0 0.0192967 0.00511379 -0.00206051
0 -0.0190006 0.00619146 0.00740093
1.35525e-20 0.0190007 0.00619154 -0.00205662
0 0.0200621 6.76767e-05 -0.00197835
0 -0.0200621 6.76468e-05 0.00740158
-1.35525e-20 0.020064 4.17066e-20 -0.00197844
1.35525e-20 -0.020064 4.17825e-20 0.00740158
2.71051e-20 0.0196641 0.0040803 -0.00209732
0 -0.0196641 0.0040803 0.00740074
0 -0.0190835 0.00626078 0.00739944
-1.35525e-20 0.0190836 0.0062608 -0.00204939
1.35525e-20 -0.0191312 0.00616555 0.00739977
1.35525e-20 0.0191312 0.00616565 -0.00204999
-5.64689e-21 0.0201001 0.00115692 -0.00201031
-2.25875e-21 -0.0201001 0.00115692 0.0074016
0 0.020134 -1.86019e-22 -0.00197368
0 -0.020134 -2.64557e-22 0.00740163
3.01167e-21 -0.0192828 0.00579514 0.00740104
1.8823e-21 0.0192828 0.00579515 -0.00205635
0 -0.0196202 0.00477317 0.00740118
-2.71051e-20 0.0196202 0.00477318 -0.0020613
0 -0.0201991 6.4721e-05 0.00740167
0 0.0201991 6.47462e-05 -0.00197154
0 -0.020202 -1.30739e-21 0.00740168
0 0.020202 -1.26102e-21 -0.00197149
-1.12938e-21 0.0200841 0.00236289 -0.00208968
-2.25875e-21 -0.0200841 0.00236289 0.00740122
2.82344e-22 0.0200029 0.003057 -0.00212997
0 -0.0200029 0.00305699 0.00740066
-1.35525e-20 0.0192378 0.00638357 -0.002061
-1.35525e-20 -0.0192378 0.00638366 0.00740112
0 -0.0195958 0.00544032 0.00740097
5.42101e-20 0.0195959 0.00544034 -0.0020393
0 -0.0193039 0.00643681 0.00740175
0 0.0193041 0.00643685 -0.00206586
0 0.0200275 0.00361572 -0.00211316
-5.64689e-22 -0.0200275 0.00361572 0.00740103
6.77626e-21 -0.0193634 0.00636556 0.00740208
0 0.0193636 0.00636543 -0.00206712
0 -0.0193735 0.00649738 0.00740123
0 0.0193738 0.00649756 -0.00206368
-1.12938e-22 -0.01996 0.00438812 0.00740122
3.38813e-22 0.01996 0.00438813 -0.00208342
-4.51751e-21 -0.0194904 0.00622237 0.00740286
0 0.0194905 0.00622241 -0.00207115
2.25875e-21 -0.019924 0.00509886 0.00740127
0 0.019924 0.00509886 -0.00204932
0 -0.0195415 0.00664813 0.00740155
-1.35525e-20 0.0195417 0.00664818 -0.00206705
-2.71051e-20 0.0202851 0.004065 -0.00210642
2.71051e-20 -0.0202851 0.004065 0.00740157
4.51751e-21 -0.0198605 0.00581199 0.00740111
2.25875e-21 0.0198605 0.00581203 -0.00204844
1.35525e-20 -0.0196164 0.00659812 0.00740155
-1.35525e-20 0.0196165 0.00659819 -0.00206657
5.42101e-20 0.0207232 0.000580771 -0.00194411
0 -0.0207232 0.000580773 0.00740195
0 -0.0196177 0.00671647 0.00740095
0 0.0196179 0.00671645 -0.00206566
0 -0.020698 0.00176856 0.00740186
5.42101e-20 0.020698 0.00176856 -0.00202999
2.71051e-20 0.020263 0.00474092 -0.00205909
0 -0.020263 0.00474092 0.00740146
0 -0.0196919 0.00678279 0.00739994
0 0.019692 0.0067827 -0.00206568
1.35525e-20 -0.0197373 0.00670394 0.0074002
-2.71051e-20 0.0197374 0.00670392 -0.00206545
5.42101e-20 0.0206519 0.00305779 -0.00211071
0 -0.0206519 0.0030578 0.00740187
-4.03349e-22 -0.0199196 0.00639126 0.00740126
0 0.0199197 0.00639124 -0.00206354
0 -0.0202264 0.00542436 0.00740145
2.71051e-20 0.0202264 0.00542437 -0.00203776
0 0.0206219 0.00375042 -0.00208525
1.41172e-22 -0.0206228 0.00375111 0.00740111
-1.35525e-20 0.0198641 0.00693674 -0.00207815
1.35525e-20 -0.0198641 0.00693696 0.00740146
5.64689e-22 0.0205958 0.00438945 -0.00207237
0 -0.0205958 0.00438945 0.00740174
-2.71051e-20 -0.0202261 0.00606702 0.00740065
2.71051e-20 0.0202262 0.00606702 -0.00204561
-6.77626e-21 -0.019943 0.00700755 0.00740211
-6.77626e-21 0.0199432 0.00700748 -0.00208308
0 -0.0200066 0.00693929 0.00740247
6.77626e-21 0.0200069 0.00693907 -0.00208331
0 -0.0205707 0.00506212 0.00740224
0 0.0205707 0.00506212 -0.00204951
6.77626e-21 -0.0200222 0.00707844 0.00740143
6.77626e-21 0.0200226 0.00707852 -0.00208455
0 -0.0201294 0.00680929 0.00740314
-1.50584e-21 0.0201295 0.00680925 -0.00208323
0 0.0212882 4.76335e-05 -0.00189809
0 -0.0212882 4.76213e-05 0.00740237
0 0.0212888 7.24532e-22 -0.00189816
0 -0.0212888 7.03166e-22 0.00740237
-2.71051e-20 -0.0209335 0.00403737 0.00740017
0 0.0209335 0.00403737 -0.00205227
-1.12938e-21 -0.0205488 0.00572803 0.0074015
0 0.0205489 0.00572802 -0.00203983
6.77626e-21 -0.0213388 -2.81827e-23 0.0074024
0 0.0213388 -2.94246e-23 -0.00189388
1.12938e-21 0.0213183 0.00116254 -0.00194032
0 -0.0213183 0.00116254 0.00740238
0 -0.0213864 4.64638e-05 0.00740243
-6.77626e-21 0.0213864 4.6476e-05 -0.00189046
-6.77626e-21 -0.0213874 -2.6136e-23 0.00740243
-6.77626e-21 0.0213874 -2.73181e-23 -0.00189044
-2.71051e-20 0.0208978 0.00471075 -0.00207019
-2.71051e-20 -0.0208978 0.00471075 0.00740365
-5.64689e-22 0.0212954 0.00239197 -0.00203835
5.64689e-22 -0.0212954 0.00239197 0.00740224
2.71051e-20 -0.0201947 0.00723274 0.00740149
1.35525e-20 0.020195 0.00723268 -0.00209291
-2.25875e-21 -0.0204968 0.00642258 0.0074009
-9.03502e-21 0.0204969 0.00642257 -0.00205608
0 -0.0202705 0.00718367 0.00740148
-1.35525e-20 0.0202707 0.00718366 -0.0020925
2.71051e-20 -0.0202683 0.00729857 0.00740071
-2.71051e-20 0.0202686 0.00729845 -0.00209296
-2.71051e-20 -0.0208996 0.00536218 0.00740242
-2.71051e-20 0.0208996 0.00536217 -0.00203095
0 -0.0203418 0.00736426 0.00739926
2.71051e-20 0.020342 0.00736407 -0.00209625
1.69407e-22 0.0213396 0.00363556 -0.00207247
1.24231e-21 -0.0213396 0.00363555 0.00740146
0 -0.0203851 0.00728766 0.00739961
1.35525e-20 0.0203852 0.00728755 -0.00209531
7.52918e-22 -0.0212333 0.00436374 0.00740189
3.76459e-22 0.0212333 0.00436374 -0.00206362
2.71051e-20 -0.0208556 0.00604666 0.00740146
2.71051e-20 0.0208557 0.00604664 -0.00204348
-4.03349e-22 -0.0205628 0.00698693 0.0074011
-3.22679e-22 0.0205629 0.00698685 -0.0020874
-6.77626e-21 0.0205132 0.00751715 -0.0021193
-6.77626e-21 -0.0205131 0.00751749 0.0074014
0 -0.0212965 0.00494793 0.00740261
-1.12938e-21 0.0212965 0.00494792 -0.00205501