# UMean  POINT_DATA 27416
# x  y  z  UMean_x  UMean_y  UMean_z
0 0.0115468 6.39774e-08 0 0 0
0 -0.0115468 6.39774e-08 0 0 0
0 -0.0115468 0.000159933 0 0 0
6.77626e-21 0.0115468 0.000159966 0 0 0
1.35525e-20 -0.0115468 0.000505149 0 0 0
0 0.0115468 0.000505252 0 0 0
0 -0.0115468 0.000661354 0 0 0
0 0.0115468 0.00066149 0 0 0
-6.77626e-21 -0.0115468 0.000824682 0 0 0
0 0.0115468 0.000824823 0 0 0
6.77626e-21 -0.0115467 0.00119323 0 0 0
-6.77626e-21 0.0115467 0.00119337 0 0 0
0 0.0116176 9.48413e-05 9.64458e-05 -4.31993e-05 -1.71766e-05
1.35525e-20 -0.0116176 9.48283e-05 -3.63327e-06 2.49338e-06 -1.48651e-07
0 0.0116191 6.70002e-08 0 0 0
0 -0.0116191 6.70007e-08 0 0 0
0 -0.0115467 0.00135636 0 0 0
0 0.0115467 0.0013565 0 0 0
0 -0.0116144 0.000567788 -3.46876e-06 2.38049e-06 -1.41921e-07
0 0.0116144 0.000567904 9.2079e-05 -4.12433e-05 -1.63989e-05
0 -0.0116106 0.000748384 -2.46384e-05 1.31728e-05 -4.01234e-07
0 0.0116106 0.000748514 0.000956183 -0.000490725 -4.73674e-06
0 -0.0115467 0.00152899 0 0 0
6.77626e-21 0.0115467 0.00152911 0 0 0
0 -0.0116105 0.00124699 -2.45805e-05 1.31419e-05 -4.00291e-07
1.35525e-20 0.0116105 0.00124712 0.00095396 -0.000489585 -4.72573e-06
0 -0.0116054 0.00142615 -2.34764e-05 1.26249e-05 4.17694e-07
-1.35525e-20 0.0116054 0.00142627 0.000881835 -0.000453766 1.26652e-05
6.77626e-21 -0.0115467 0.00190899 0 0 0
0 0.0115467 0.00190902 0 0 0
1.35525e-20 0.0117276 6.6334e-08 0 0 0
-1.35525e-20 -0.0117276 6.63364e-08 0 0 0
6.77626e-21 -0.0117103 0.000650494 -3.00438e-05 1.71059e-05 4.54573e-07
2.03288e-20 0.0117103 0.000650588 0.00150228 -0.000857464 2.49932e-05
-1.35525e-20 0.0115467 0.002087 0 0 0
1.35525e-20 -0.0115467 0.002087 0 0 0
0 -0.011609 0.00193563 -2.49182e-05 1.34003e-05 4.43347e-07
0 0.011609 0.00193565 0.000935968 -0.000481621 1.34427e-05
0 -0.0117025 0.00130867 -5.71116e-05 3.16679e-05 1.53872e-07
6.77626e-21 0.0117025 0.00130876 0.00237147 -0.00136326 -1.92017e-05
0 -0.0116004 0.00211165 0 0 0
0 0.0116004 0.00211165 0 0 0
0 -0.0116425 0.00204727 -2.38296e-05 1.19523e-05 5.98487e-07
0 0.0116425 0.00204727 0.000806648 -0.000402233 1.65368e-05
-1.35525e-20 -0.0116584 0.00213828 0 0 0
1.35525e-20 0.0116584 0.00213829 0 0 0
0 -0.0117067 0.00192898 -5.1926e-05 2.95582e-05 -4.88038e-07
-1.35525e-20 0.0117067 0.00192897 0.0020554 -0.00122489 -6.67682e-05
4.51751e-21 -0.0118537 0.000959071 -9.96841e-05 5.75066e-05 9.36686e-07
4.51751e-21 0.0118537 0.000959138 0.00396488 -0.00223025 2.76312e-05
-4.51751e-21 0.0119178 0.000318651 0.0010954 -0.000576866 4.10577e-06
0 -0.0119179 0.000318619 -1.90974e-05 1.06555e-05 -1.20043e-07
1.35525e-20 0.011932 7.04551e-08 0 0 0
-1.35525e-20 -0.011932 7.04586e-08 0 0 0
2.71051e-21 -0.0118325 0.00163064 -0.000100822 5.85863e-05 -1.60718e-06
0 0.0118325 0.00163068 0.00370563 -0.00212749 -0.000123905
0 -0.0118724 0.00142181 -0.000121613 6.96504e-05 -1.22323e-06
0 0.0118724 0.00142183 0.00473218 -0.00272634 -0.00010662
2.71051e-20 -0.0117615 0.0021856 0 0 0
-1.35525e-20 0.0117615 0.0021856 0 0 0
5.42101e-20 -0.0118132 0.00220928 0 0 0
-5.42101e-20 0.0118132 0.00220929 0 0 0
1.8823e-21 -0.0118989 0.00195768 -8.21272e-05 5.24113e-05 -1.40403e-06
-3.76459e-22 0.0118989 0.00195768 0.0028804 -0.00185973 -5.56051e-05
-6.77626e-21 -0.0119718 0.00153839 -0.000141557 8.40609e-05 -5.24839e-06
6.77626e-21 0.0119718 0.0015384 0.00547195 -0.0034457 -0.000319145
0 0.0120982 7.96187e-08 0 0 0
0 -0.0120983 7.96213e-08 0 0 0
4.06576e-21 -0.0120694 0.000852607 -0.000124239 7.33567e-05 5.22729e-06
-2.71051e-21 0.0120694 0.000852623 0.00544256 -0.00330174 0.000146537
0 0.0122081 0.000167123 0.00136604 -0.000722513 -4.74248e-05
0 -0.0122082 0.000167144 -3.47424e-06 2.38312e-06 -6.80654e-09
0 0.012221 7.14632e-08 0 0 0
0 -0.012221 7.14627e-08 0 0 0
2.71051e-21 0.0121684 0.00122551 0.00785776 -0.00455401 -7.83219e-05
-1.20467e-21 -0.0121684 0.0012255 -0.000182595 0.000103543 6.3688e-07
-2.71051e-20 0.012025 0.00230651 0 0 0
0 -0.012025 0.0023065 0 0 0
3.22679e-21 0.0122349 0.000642359 0.00547206 -0.00311795 5.29689e-05
-7.09894e-21 -0.0122349 0.000642355 -0.000101228 5.8525e-05 2.23859e-06
-3.38813e-21 -0.0120593 0.00232222 0 0 0
-1.01644e-20 0.0120594 0.00232227 0 0 0
0 0.0122855 6.71739e-08 0 0 0
2.71051e-20 -0.0122856 6.71709e-08 0 0 0
1.97641e-21 0.0122109 0.00173628 0.00699394 -0.00409515 -0.000216848
2.5411e-21 -0.0122109 0.00173628 -0.000172185 9.80178e-05 -1.86942e-06
-8.13152e-21 -0.0121468 0.00214599 -9.48182e-05 5.48626e-05 -2.3826e-07
-5.42101e-21 0.0121468 0.002146 0.00322601 -0.00177008 -0.000120759
0 -0.0122263 0.00229068 -4.52097e-05 2.70042e-05 -3.13511e-07
-6.77626e-21 0.0122263 0.00229071 0.00155167 -0.000863871 -6.71086e-05
0 0.0124605 5.58013e-08 0 0 0
0 -0.0124606 5.57971e-08 0 0 0
0 0.0125121 0.000225139 0.00277982 -0.00146684 2.04496e-05
2.71051e-21 -0.0125121 0.000225154 -5.30836e-06 2.96406e-06 1.13378e-07
0 -0.0122889 0.00242763 0 0 0
0 0.0122889 0.00242764 0 0 0
0 0.0125901 0.000921782 0.0108284 -0.00569723 -8.33841e-05
0 -0.0125901 0.000921774 -0.000232399 0.000122776 -7.19827e-07
1.35525e-20 -0.012401 0.00241699 -3.35996e-05 1.79163e-05 -2.47594e-07
-1.35525e-20 0.012401 0.00241701 0.00131024 -0.000770571 -8.7531e-05
6.77626e-21 -0.0123956 0.00247647 0 0 0
-6.77626e-21 0.0123956 0.00247648 0 0 0
6.77626e-21 -0.0124524 0.00218685 -0.00013883 7.37843e-05 1.6907e-07
-3.38813e-21 0.0124525 0.00218686 0.00529818 -0.00290106 -0.000155399
-2.71051e-20 -0.0125381 0.00209401 -0.000198264 0.000101355 9.21436e-07
0 0.0125382 0.00209403 0.00760962 -0.00403098 -0.000152797
1.0842e-20 0.0126447 0.00162116 0.0128024 -0.00686537 -6.91758e-05
8.13152e-21 -0.0126447 0.00162116 -0.000290765 0.000154184 3.33602e-06
-1.35525e-20 -0.012772 0.000141268 -3.41142e-06 1.95491e-06 8.45996e-08
0 0.0127721 0.000141226 0.00183371 -0.000969184 1.30664e-05
1.35525e-20 -0.0127747 1.51153e-08 0 0 0
1.35525e-20 0.0127748 1.5111e-08 0 0 0
-2.71051e-21 -0.012613 0.00241878 -8.70985e-05 4.55352e-05 -3.33196e-08
-1.35525e-20 0.0126131 0.00241885 0.00323779 -0.00184127 -0.000170094
-1.35525e-20 -0.0125861 0.00256369 0 0 0
-2.71051e-20 0.0125863 0.00256377 0 0 0
0 -0.0129279 4.53095e-09 0 0 0
0 0.0129279 4.5309e-09 0 0 0
9.03502e-21 0.0129181 0.000605376 0.00876803 -0.00459384 -4.49501e-05
-1.12938e-20 -0.0129181 0.000605387 -0.000137143 7.3686e-05 -2.99141e-07
-2.25875e-21 0.0129069 0.00122274 0.0146545 -0.00779818 -8.49993e-05
0 -0.0129069 0.00122276 -0.000311736 0.00016688 1.81188e-06
0 -0.0127462 0.00263697 0 0 0
-2.71051e-20 0.0127464 0.00263706 0 0 0
9.03502e-21 -0.0128745 0.00194112 -0.000286317 0.000152164 2.43564e-06
-4.51751e-21 0.0128745 0.00194112 0.0127323 -0.00690699 -0.000149206
0 0.0130689 3.79654e-09 0 0 0
0 -0.0130689 3.79638e-09 0 0 0
2.71051e-20 0.0130684 0.000129725 0.0023009 -0.00116781 -2.80929e-06
-1.35525e-20 -0.0130685 0.000129754 -3.2806e-06 1.7898e-06 5.66886e-08
0 -0.0129105 0.00229687 -0.000202119 0.000107317 1.21603e-06
-2.25875e-21 0.0129105 0.00229689 0.00873334 -0.00485127 -0.000212822
-1.89735e-20 0.0131166 0.0016405 0.0174249 -0.00937008 -9.34502e-05
-2.71051e-21 -0.0131166 0.00164051 -0.000375176 0.000200684 3.95741e-06
0 0.013248 0.000302964 0.00520292 -0.00267314 -6.58666e-06
0 -0.013248 0.000302968 -7.5324e-06 4.1839e-06 1.08365e-07
1.35525e-20 -0.0129823 0.00274601 0 0 0
2.71051e-20 0.0129824 0.00274607 0 0 0
0 -0.0132464 0.00091148 -0.0003092 0.000167971 -8.31487e-07
0 0.0132464 0.000911472 0.0155448 -0.00816166 -0.000124265
-4.51751e-21 -0.0131303 0.00262464 -0.000112614 6.00138e-05 1.49443e-06
9.03502e-21 0.0131304 0.00262467 0.00497114 -0.00294379 -0.000208032
0 0.0132415 0.00211425 0.0160645 -0.00879748 -0.000165831
0 -0.0132415 0.00211425 -0.000343916 0.000182312 3.40667e-06
6.77626e-21 -0.0131184 0.00280831 0 0 0
1.35525e-20 0.0131185 0.00280836 0 0 0
-1.35525e-20 -0.013437 2.08369e-09 0 0 0
-1.35525e-20 0.013437 2.0834e-09 0 0 0
1.35525e-20 -0.0134397 0.000120669 -3.05093e-06 1.6645e-06 5.272e-08
-1.35525e-20 0.0134397 0.000120639 0.00213978 -0.00108603 -2.61257e-06
-1.35525e-20 0.0135679 1.40563e-09 0 0 0
0 -0.0135679 1.40572e-09 0 0 0
0 0.0135763 0.00059667 0.0114169 -0.00587002 -6.34808e-05
0 -0.0135763 0.000596683 -0.000167349 9.00366e-05 -5.09336e-07
1.12938e-20 0.0135724 0.00122413 0.0199635 -0.0105419 -7.83901e-05
4.51751e-21 -0.0135724 0.00122414 -0.000394717 0.000210223 2.17985e-06
0 -0.0133498 0.00291515 0 0 0
2.71051e-20 0.0133498 0.00291517 0 0 0
-6.77626e-21 -0.0134778 0.00238384 -0.000290178 0.000152134 4.86381e-06
-2.25875e-21 0.0134778 0.00238384 0.0146234 -0.0081381 -7.50593e-05
-2.25875e-21 0.0135676 0.00185527 0.0214344 -0.011585 -8.10287e-06
0 -0.0135676 0.00185528 -0.000426784 0.000224633 5.8896e-06
1.35525e-20 0.0136939 1.2223e-09 0 0 0
0 -0.013694 1.22233e-09 0 0 0
0 0.0136952 0.000110039 0.00229912 -0.00110395 -1.1987e-05
-1.35525e-20 -0.0136952 0.000110069 -3.00644e-06 1.50898e-06 1.2918e-07
1.01644e-20 -0.013543 0.0030057 0 0 0
3.72694e-20 0.0135431 0.00300574 0 0 0
-2.71051e-20 -0.0139035 0.000294191 -7.86321e-06 4.00971e-06 3.16947e-07
0 0.0139035 0.000294183 0.00603013 -0.00293104 -2.85893e-05
1.69407e-20 0.0135877 0.0030267 0 0 0
-3.38813e-20 -0.0135877 0.00302672 0 0 0
2.71051e-20 -0.0139155 0.000900759 -0.000353433 0.000188648 -1.70869e-06
0 0.0139156 0.000900746 0.0192304 -0.00989333 -9.93518e-05
-9.03502e-21 -0.0136797 0.00276423 -0.000184818 9.47586e-05 4.81141e-06
2.25875e-21 0.0136798 0.00276423 0.00971578 -0.00561595 -0.000115166
2.71051e-20 -0.0139125 0.00154328 -0.00050329 0.000262498 6.54419e-06
0 0.0139125 0.00154327 0.0257138 -0.0137092 -1.58013e-05
-2.71051e-20 0.0138987 0.00219587 0.0249053 -0.0135945 0.00023225
0 -0.0138987 0.00219588 -0.000451301 0.000234288 9.13356e-06
0 -0.0141099 3.98855e-10 0 0 0
-1.35525e-20 0.01411 3.98723e-10 0 0 0
0 -0.0141138 9.87931e-05 -2.69847e-06 1.35441e-06 1.15948e-07
1.35525e-20 0.0141138 9.87563e-05 0.0020634 -0.000990766 -1.0758e-05
-4.06576e-20 -0.0138002 0.00312615 0 0 0
-1.35525e-20 0.0138003 0.00312616 0 0 0
0 -0.0142228 2.30732e-10 0 0 0
0 0.0142228 2.30673e-10 0 0 0
-4.51751e-21 -0.0142415 0.000581 -0.000180115 9.59944e-05 -6.76449e-07
-2.25875e-21 0.0142415 0.000580992 0.0130852 -0.00651811 -3.40302e-05
0 0.0142522 0.0012064 0.0239798 -0.0125094 0.000102103
-3.38813e-21 -0.0142522 0.00120642 -0.000439009 0.000229109 3.74104e-06
-1.35525e-20 0.0143301 2.07135e-10 0 0 0
0 -0.0143301 2.07176e-10 0 0 0
0 0.0143313 8.88715e-05 0.00200801 -0.000881086 -2.24402e-05
0 -0.0143313 8.89038e-05 -2.70516e-06 1.29991e-06 1.72393e-07
1.35525e-20 -0.0139709 0.00320515 0 0 0
-6.77626e-21 0.013971 0.00320516 0 0 0
-1.12938e-21 0.0142439 0.0018749 0.028463 -0.0153108 0.000467973
2.25875e-21 -0.0142439 0.00187491 -0.000505221 0.000258677 1.09354e-05
-8.13152e-21 -0.0140732 0.00302489 -0.00014516 7.84479e-05 2.96859e-06
0 0.0140732 0.00302489 0.00949448 -0.00520401 2.53416e-05
1.807e-21 0.0141848 0.00260879 0.0205949 -0.0112835 0.000434725
1.807e-21 -0.0141848 0.00260878 -0.000331936 0.000169266 9.6014e-06
-1.35525e-20 -0.0140966 0.0032633 0 0 0
6.77626e-21 0.0140966 0.0032633 0 0 0
1.35525e-20 -0.0142071 0.00316518 -9.64257e-05 5.20958e-05 1.96541e-06
0 0.0142071 0.00316519 0.00643339 -0.00353466 2.35797e-05
2.71051e-20 -0.0145609 0.000281726 -8.24897e-06 4.04355e-06 4.82414e-07
-2.71051e-20 0.0145609 0.000281727 0.00633129 -0.00283596 -5.34353e-05
0 -0.0145815 0.000874369 -0.000360632 0.000192449 -1.88112e-06
-2.71051e-20 0.0145815 0.000874352 0.0211421 -0.0106162 4.2103e-05
0 -0.0142355 0.00332754 0 0 0
-1.35525e-20 0.0142355 0.00332755 0 0 0
0 -0.0145904 0.00151949 -0.000543128 0.000275028 1.21675e-05
0 0.0145904 0.00151948 0.0300434 -0.0159326 0.000479404
-2.71051e-20 -0.0145713 0.00221296 -0.000527871 0.000265051 1.60901e-05
2.71051e-20 0.0145713 0.00221296 0.0334417 -0.0181262 0.00117681
0 0.014357 0.00338361 0 0 0
0 -0.014357 0.0033836 0 0 0
0 -0.0144398 0.00302855 -0.000225807 0.000112438 8.53728e-06
4.51751e-21 0.0144398 0.00302856 0.0162679 -0.0087481 0.000489542
1.35525e-20 -0.0143822 0.00330544 -5.68689e-05 2.63733e-05 3.76551e-06
-1.35525e-20 0.0143822 0.00330545 0.004846 -0.00247128 0.000243692
-1.35525e-20 -0.0147852 4.2202e-11 0 0 0
0 0.0147853 4.21645e-11 0 0 0
0 -0.0147878 7.95642e-05 -2.42098e-06 1.16336e-06 1.54283e-07
-1.35525e-20 0.0147879 7.95165e-05 0.00179664 -0.000788341 -2.00781e-05
-1.35525e-20 -0.0148815 2.04947e-11 0 0 0
1.35525e-20 0.0148815 2.04768e-11 0 0 0
2.71051e-20 -0.0146213 0.00280152 -0.000355223 0.000172432 1.50752e-05
2.71051e-20 0.0146213 0.00280153 0.0261511 -0.014141 0.00104352
2.25875e-21 -0.0149013 0.000554706 -0.000169333 9.07072e-05 5.2265e-07
-2.25875e-21 0.0149014 0.000554705 0.0135756 -0.00658742 8.60878e-05
0 -0.0145853 0.0032615 -0.00014611 6.85704e-05 7.23543e-06
0 0.0145853 0.00326151 0.0116606 -0.00610086 0.000464521
2.25875e-21 -0.014922 0.00116917 -0.000433825 0.000221056 8.46989e-06
1.12938e-21 0.014922 0.00116916 0.02601 -0.01351 0.000588462
0 0.0149733 1.85798e-11 0 0 0
-1.35525e-20 -0.0149733 1.85939e-11 0 0 0
0 0.0149737 7.37377e-05 0.00171865 -0.000701988 -2.20998e-05
0 -0.0149738 7.37997e-05 -2.1442e-06 1.20506e-06 -2.41316e-08
1.35525e-20 -0.0146077 0.00349931 0 0 0
2.71051e-20 0.0146077 0.00349933 0 0 0
1.12938e-21 -0.0149197 0.00184904 -0.000533599 0.00026115 1.76385e-05
-1.12938e-21 0.0149197 0.00184904 0.0340317 -0.0183586 0.00142194
0 -0.014666 0.00343236 -5.94717e-05 2.75803e-05 3.93784e-06
0 0.0146661 0.00343238 0.0050677 -0.00258433 0.00025484
-1.12938e-21 -0.0149194 0.00252067 -0.000452076 0.000216242 1.8853e-05
1.12938e-21 0.0149194 0.00252068 0.0347837 -0.0187847 0.00194481
1.35525e-20 -0.0147321 0.00355664 0 0 0
2.71051e-20 0.0147321 0.00355666 0 0 0
-1.12938e-21 -0.0148879 0.0030961 -0.000260484 0.000120652 1.39012e-05
-2.25875e-21 0.0148879 0.00309611 0.0234928 -0.0123946 0.00141744
0 -0.0152102 0.000264582 -7.7969e-06 4.15707e-06 4.02063e-08
2.71051e-20 0.0152103 0.00026457 0.00617847 -0.00255657 -6.54285e-05
0 -0.0152372 0.00083281 -0.00031393 0.000168896 3.05081e-06
-2.71051e-20 0.0152372 0.000832812 0.0211687 -0.0106108 0.000423563
0 0.0148481 0.0036099 0 0 0
-6.77626e-21 -0.0148481 0.00360989 0 0 0
0 0.0148927 0.003477 0.00937767 -0.00468739 0.000670339
1.35525e-20 -0.0148927 0.00347697 -8.00697e-05 3.40363e-05 5.86434e-06
2.71051e-20 -0.0152552 0.00147324 -0.000523072 0.000250373 2.05728e-05
0 0.0152552 0.00147323 0.0319085 -0.0170021 0.00140907
2.71051e-20 -0.0152471 0.00216851 -0.000540611 0.000254077 2.18685e-05
0 0.0152472 0.00216851 0.040652 -0.0223121 0.00261807
0 -0.0154526 2.80546e-12 0 0 0
0 0.0154528 2.79932e-12 0 0 0
-6.77626e-21 -0.0154539 6.43657e-05 -1.8701e-06 1.05101e-06 -2.10468e-08
0 0.0154541 6.42863e-05 0.00149836 -0.00061201 -1.92672e-05
1.35525e-20 -0.0150216 0.00368974 0 0 0
-2.71051e-20 0.0150217 0.00368977 0 0 0
-2.71051e-20 -0.0150964 0.0034047 -0.000173954 7.68617e-05 1.18547e-05
0 0.0150964 0.00340472 0.0189487 -0.00965045 0.00130424
2.71051e-20 -0.0152384 0.00284799 -0.000397419 0.0001791 2.29997e-05
0 0.0152384 0.002848 0.0399585 -0.0211423 0.00305305
0 -0.0155344 1.12584e-12 0 0 0
0 0.0155345 1.12356e-12 0 0 0
-1.35525e-20 -0.015136 0.00358103 -8.41697e-05 3.57791e-05 6.16463e-06
2.71051e-20 0.015136 0.00358108 0.00985697 -0.00492697 0.0007046
0 -0.0155483 0.00051281 -0.000139184 6.94137e-05 1.91084e-07
2.25875e-21 0.0155483 0.000512813 0.0128237 -0.0063149 0.000396444
0 -0.0156089 5.68787e-05 -1.46251e-06 3.6785e-07 8.50251e-10
6.77626e-21 0.0156089 5.68083e-05 0.00131272 -0.000613663 5.91261e-05
0 -0.0156116 1.05395e-12 0 0 0
6.77626e-21 0.0156116 1.052e-12 0 0 0
-1.35525e-20 -0.0151553 0.00375099 0 0 0
1.35525e-20 0.0151553 0.00375102 0 0 0
1.12938e-21 -0.0156 0.00110029 -0.000370268 0.000173098 1.02584e-05
4.51751e-22 0.0156 0.0011003 0.0262407 -0.0140089 0.00146621
0 0.0155873 0.00178843 0.0381974 -0.0211032 0.00286521
5.64689e-22 -0.0155873 0.00178844 -0.000491471 0.000216597 2.26097e-05
0 0.0152736 0.00381163 0 0 0
-1.35525e-20 -0.0152736 0.00381161 0 0 0
1.35525e-20 0.015311 0.00369351 0.0100068 -0.004368 0.00099084
-1.35525e-20 -0.0153111 0.00369346 -5.45158e-05 2.02985e-05 5.4343e-06
3.38813e-21 -0.0155683 0.00250748 -0.000437907 0.000185504 2.68589e-05
3.38813e-21 0.0155683 0.00250748 0.0447364 -0.024218 0.00398106
-2.71051e-20 -0.015842 0.000233949 -6.53018e-06 2.53598e-06 1.59972e-07
-5.42101e-20 0.0158421 0.000233943 0.00533653 -0.00231003 8.65149e-05
1.807e-21 -0.0155232 0.00325343 -0.000231189 9.09601e-05 2.19308e-05
-4.51751e-22 0.0155232 0.00325344 0.032955 -0.0164454 0.00314619
0 -0.0158871 0.00076245 -0.000247404 0.000113007 -2.56098e-06
-2.71051e-20 0.0158872 0.000762453 0.0194511 -0.010215 0.00116262
-1.35525e-20 -0.0154852 0.00363863 -0.000121739 4.98331e-05 1.0661e-05
-1.35525e-20 0.0154852 0.00363865 0.0195221 -0.00858844 0.00175409
-1.35525e-20 -0.0154926 0.00391517 0 0 0
6.77626e-21 0.0154927 0.00391521 0 0 0
2.71051e-20 -0.0159268 0.00138123 -0.000433648 0.000178093 2.01829e-05
0 0.0159268 0.00138123 0.0331478 -0.0183903 0.00276542
0 -0.0155592 0.00385208 -3.79682e-05 1.41372e-05 3.78479e-06
0 0.0155593 0.00385214 0.00696908 -0.00304201 0.000690052
2.71051e-20 -0.0158993 0.00212235 -0.000467548 0.000183368 2.76765e-05
0 0.0158993 0.00212235 0.0467444 -0.026505 0.00463594
-1.35525e-20 -0.0155753 0.00395587 0 0 0
0 0.0155754 0.0039559 0 0 0
2.71051e-20 -0.0158855 0.0028466 -0.000349379 0.000126205 3.49654e-05
0 0.0158855 0.00284661 0.0517902 -0.0270695 0.00565883
6.77626e-21 -0.0156481 0.00400349 0 0 0
6.77626e-21 0.0156482 0.00400349 0 0 0
3.38813e-21 -0.0161504 0.000464681 -9.00227e-05 4.33298e-05 3.27316e-06
-3.95282e-21 0.0161505 0.000464663 0.0126272 -0.00695681 0.000860519
0 -0.0156709 0.0039483 -1.53971e-05 1.19609e-06 5.5464e-06
-1.35525e-20 0.0156709 0.00394832 0.00497251 -0.00202502 0.000715877
-4.51751e-21 -0.0157655 0.00368362 -0.000117637 3.55886e-05 1.97155e-05
2.25875e-21 0.0157655 0.00368363 0.0259372 -0.0117014 0.00280682
4.23516e-21 0.0162446 7.65639e-14 0 0 0
0 -0.0162451 7.5465e-14 0 0 0
2.11758e-21 -0.0162671 1.41522e-05 -2.47929e-06 1.31167e-06 9.15643e-08
0 -0.0162672 1.7377e-06 -1.48005e-08 1.14866e-08 2.33632e-09
7.19978e-21 0.0162672 1.45818e-05 0.000373772 -0.000202901 2.26139e-05
0 0.0162715 1.44085e-06 1.82055e-05 -8.30934e-06 -8.89555e-07
-2.71051e-20 -0.0159384 0.00346447 -0.000167438 4.4222e-05 3.2839e-05
0 0.0159384 0.00346448 0.0406116 -0.0191285 0.00459094
2.82344e-22 -0.0162375 0.00174475 -0.000374746 0.000137516 2.61553e-05
3.95282e-22 0.0162375 0.00174473 0.0423008 -0.0243782 0.00434372
9.03502e-21 -0.0163344 0.000944395 -0.000221716 9.89058e-05 1.40201e-05
-9.03502e-21 0.0163345 0.00094441 0.0243949 -0.0141284 0.00215268
-2.71051e-20 -0.015896 0.00392571 -6.57603e-05 1.269e-05 1.58807e-05
0 0.015896 0.00392573 0.0181298 -0.00758354 0.00215633
-1.6134e-21 -0.0162554 0.00244438 -0.000302928 8.64732e-05 3.53682e-05
6.45358e-22 0.0162554 0.0024444 0.0525673 -0.0288129 0.0059888
-1.35525e-20 -0.0159401 0.00419455 0 0 0
0 0.0159403 0.00419464 0 0 0
1.12938e-21 -0.0162141 0.00317059 -0.000170183 2.07684e-05 4.12816e-05
5.64689e-22 0.0162141 0.0031706 0.0521538 -0.0259562 0.00631554
0 -0.0159991 0.00414931 -1.84204e-05 1.43095e-06 6.63546e-06
0 0.0159991 0.00414944 0.00594525 -0.00242117 0.000855919
0 -0.016026 0.00425065 0 0 0
0 0.0160261 0.00425068 0 0 0
-1.8823e-22 -0.0166367 0.000352808 -1.67332e-05 -1.91158e-06 -1.08179e-05
-1.8823e-22 0.0166369 0.00035298 0.0108848 -0.00668887 0.000954358
0 0.0160816 0.0042869 0 0 0
1.35525e-20 -0.0160816 0.0042869 0 0 0
0 0.016105 0.00423208 0.00519732 -0.00176183 0.000714254
1.35525e-20 -0.016105 0.00423203 5.26068e-07 -5.52214e-06 4.65604e-06
0 0.016226 0.00384224 0.032325 -0.0138465 0.00414913
0 -0.0162264 0.00384238 -3.73803e-05 -2.20031e-05 2.92545e-05
-6.35275e-22 0.0162339 0.00382556 0.0330184 -0.0142379 0.00423675
-1.37643e-21 -0.0162339 0.00382647 -3.98026e-05 -2.17333e-05 2.97531e-05
1.05879e-22 0.0162401 0.00384589 0.0324175 -0.0138711 0.00417218
0 -0.0162351 0.00384457 -3.56215e-05 -2.31949e-05 2.94234e-05
0 -0.0167083 1.01691e-14 0 0 0
-6.77626e-21 0.0167085 1.01518e-14 0 0 0
0 -0.0166691 0.00146461 -0.000238961 6.47025e-05 2.86695e-05
0 0.0166691 0.0014646 0.0405134 -0.0248725 0.00451611
-5.42101e-20 -0.0165265 0.0028208 -0.000154822 -1.54889e-05 4.95087e-05
0 0.0165265 0.00282081 0.060557 -0.0319483 0.00767349
-1.35525e-20 0.0161983 0.00436312 0 0 0
-6.77626e-21 -0.0161984 0.00436319 0 0 0
-5.42101e-20 -0.0166645 0.00194623 -0.000261345 5.98946e-05 2.56894e-05
-2.71051e-20 0.0166645 0.00194624 0.0513061 -0.03086 0.00607946
0 0.0165187 0.00350446 0.0572147 -0.0266261 0.00758156
0 -0.0165187 0.00350446 -7.45008e-06 -7.64937e-05 4.90412e-05
1.35525e-20 -0.0169424 1.10016e-15 0 0 0
-1.35525e-20 0.0169426 1.10457e-15 0 0 0
-2.03288e-20 -0.0163499 0.00446211 0 0 0
0 0.0163499 0.0044621 0 0 0
-3.10579e-21 0.0169272 0.000866318 0.0246283 -0.0162141 0.0027637
1.97641e-21 -0.0169272 0.000866361 -9.00776e-05 2.27498e-05 1.46377e-05
-1.35525e-20 -0.0168735 0.00168495 -0.000201647 2.66995e-05 2.90044e-05
1.35525e-20 0.0168736 0.00168495 0.0475698 -0.029386 0.00571616
0 0.0164548 0.00427999 0.0196859 -0.0064285 0.00279853
-3.38813e-21 -0.0164549 0.00428001 1.51946e-05 -3.67864e-05 2.5696e-05
9.88205e-22 0.0168849 0.00243443 0.0605377 -0.0337788 0.00759741
9.88205e-22 -0.0168849 0.00243443 -2.03215e-05 -9.93442e-05 4.50353e-05
-6.77626e-21 -0.0164962 0.00455762 0 0 0
6.77626e-21 0.0164963 0.00455763 0 0 0
5.64689e-22 0.0168359 0.00316003 0.0635756 -0.0315943 0.00832513
5.64689e-22 -0.0168359 0.00316003 0.000110192 -0.000168391 5.7905e-05
1.35525e-20 -0.0171338 1.74505e-16 0 0 0
0 0.0171342 1.75422e-16 0 0 0
0 -0.0170775 0.00142438 -0.000143014 -6.82643e-06 2.99859e-05
-2.71051e-20 0.0170775 0.00142436 0.0446307 -0.0289781 0.00547247
4.06576e-21 -0.0171371 0.000271939 -9.09304e-06 2.00662e-06 -7.36766e-06
-8.13152e-21 0.0171374 0.000272002 0.010277 -0.00797796 0.00118041
2.71051e-20 -0.0170666 0.00192551 -0.000129389 -3.33807e-05 2.86563e-05
0 0.0170666 0.00192552 0.0549178 -0.0337017 0.00693968
0 0.0167863 0.00388665 0.0471774 -0.0198563 0.00648234
0 -0.0167864 0.00388664 0.000183742 -0.000177839 5.0929e-05
0 -0.0166206 0.00463879 0 0 0
0 0.0166207 0.00463877 0 0 0
-2.71051e-20 0.0166524 0.00459992 0.00511542 -0.00172339 0.000544123
0 -0.0166524 0.00459992 1.74368e-05 -1.79306e-05 5.32898e-06
0 0.0166794 0.00467712 0 0 0
1.35525e-20 -0.0166795 0.00467715 0 0 0
2.35287e-22 -0.016844 0.00433503 0.000160516 -0.000141124 3.67665e-05
4.70574e-23 0.0168452 0.00433528 0.0308204 -0.010928 0.0042386
-2.71051e-20 0.0171764 0.00277493 0.0678938 -0.0362812 0.0087675
-2.71051e-20 -0.0171764 0.00277493 0.000229536 -0.000258961 5.46124e-05
0 0.0174301 3.02821e-16 0 0 0
0 -0.0174308 3.00144e-16 0 0 0
0 0.0168042 0.00464355 0.00932453 -0.00278306 0.00128844
-1.35525e-20 -0.0168042 0.00464358 7.36089e-05 -6.06897e-05 1.386e-05
-6.77626e-21 0.0167886 0.00474831 0 0 0
-1.35525e-20 -0.0167887 0.0047484 0 0 0
-6.77626e-21 0.017449 0.000139075 0.00490525 -0.00383286 0.000576117
0 -0.0174496 0.000138384 -4.79234e-06 1.06786e-06 -3.85835e-06
2.71051e-20 0.0171294 0.00350658 0.0687959 -0.0317671 0.00929731
0 -0.0171294 0.00350657 0.000373038 -0.000323326 7.79313e-05
6.77626e-21 0.0175668 -2.95376e-17 0 0 0
0 -0.0175669 -2.94893e-17 0 0 0
5.64689e-22 -0.0175583 0.000896638 4.64417e-05 -6.42252e-05 1.3784e-05
8.47033e-22 0.0175583 0.000896566 0.0306453 -0.0215718 0.00328074
7.05861e-22 0.0175189 0.00167533 0.0528604 -0.0337328 0.00607783
-2.82344e-22 -0.0175189 0.00167527 0.000127558 -0.000168809 3.7409e-05
6.77626e-21 -0.0176062 4.62632e-05 -4.48817e-07 -1.63985e-07 6.83825e-07
0 0.0176064 4.65549e-05 0.00173648 -0.00145498 0.000216383
6.77626e-21 -0.0176089 -8.34897e-18 0 0 0
-6.77626e-21 0.0176091 -8.34566e-18 0 0 0
-5.42101e-20 0.0171399 0.00413685 0.0511384 -0.0198614 0.00715453
-2.71051e-20 -0.01714 0.00413686 0.000376781 -0.000301473 6.33042e-05
0 -0.0176343 -4.66431e-18 0 0 0
6.77626e-21 0.0176347 -4.59267e-18 0 0 0
2.71051e-20 0.0170445 0.00462908 0.0233709 -0.00709765 0.00315881
0 -0.0170445 0.00462914 0.000155461 -0.000130673 3.19929e-05
5.64689e-22 0.0175376 0.00228764 0.0648935 -0.0373704 0.0076945
1.12938e-21 -0.0175376 0.00228764 0.000378595 -0.000345375 6.42654e-05
1.35525e-20 0.0170023 0.00488776 0 0 0
-2.71051e-20 -0.0170024 0.00488783 0 0 0
0 -0.0176972 4.73615e-05 -7.2118e-08 -3.36195e-07 -1.99891e-07
0 0.017698 4.76654e-05 0.00264479 -0.0020781 0.00023719
0 -0.0177005 -1.62468e-17 0 0 0
6.77626e-21 0.0177013 -1.6206e-17 0 0 0
-1.69407e-21 -0.0174646 0.00310783 0.000609442 -0.000484878 9.04643e-05
9.03502e-22 0.0174646 0.00310785 0.070919 -0.0359551 0.00870895
0 0.0171112 0.00481659 0.0115353 -0.00344289 0.00159391
0 -0.0171113 0.00481667 9.10424e-05 -7.50634e-05 1.71426e-05
0 0.0171346 0.00497401 0 0 0
1.35525e-20 -0.0171347 0.00497413 0 0 0
-5.64689e-21 0.0174342 0.00383429 0.0650833 -0.0281191 0.00843852
0 -0.0174342 0.00383429 0.000693095 -0.000511392 9.5287e-05
-2.71051e-20 0.0172171 0.00502787 0 0 0
0 -0.0172173 0.00502799 0 0 0
1.35525e-20 0.0172554 0.00493142 0.00909071 -0.00226501 0.0013664
0 -0.0172556 0.00493154 0.000120121 -9.26467e-05 1.5346e-05
-3.76459e-22 0.0174076 0.00453333 0.0379087 -0.0133389 0.00532323
-3.76459e-22 -0.0174076 0.00453336 0.000469743 -0.000344217 6.46554e-05
0 0.0177905 0.00276845 0.0733602 -0.0401103 0.00833265
2.71051e-20 -0.0177905 0.00276845 0.000839524 -0.00065199 0.000113235
-2.71051e-20 0.0177573 0.00348298 0.0755526 -0.0352141 0.00877939
2.71051e-20 -0.0177574 0.00348299 0.00106496 -0.000747486 0.000125012
-6.77626e-21 0.017378 0.00513278 0 0 0
2.03288e-20 -0.0173781 0.0051329 0 0 0
0 0.0174497 0.00517959 0 0 0
0 -0.0174498 0.00517964 0 0 0
0 0.0177264 0.00417356 0.0661052 -0.0264205 0.00860423
2.71051e-20 -0.0177264 0.00417357 0.000999491 -0.000700431 0.00011842
6.77626e-21 0.0175029 0.00510088 0.00770762 -0.00208292 0.00135257
0 -0.0175029 0.005101 0.000117564 -8.36447e-05 2.19386e-05
1.0842e-19 -0.0181611 0.00171797 0.000651232 -0.000468285 4.96053e-05
-5.42101e-20 0.0181612 0.00171798 0.0608618 -0.0400054 0.00597977
6.77626e-21 -0.0175201 0.00522549 0 0 0
1.35525e-20 0.0175201 0.00522553 0 0 0
5.42101e-20 -0.0182822 0.000515621 -5.39175e-07 -2.90926e-06 -3.18481e-06
0 0.0182823 0.000515628 0.03206 -0.025274 0.00242337
1.05879e-22 0.0181327 0.00240414 0.072051 -0.0410795 0.00715202
4.97632e-21 -0.0181332 0.00240535 0.00116487 -0.000835095 0.000105377
-2.11758e-22 -0.0181317 0.0024243 0.00117307 -0.000840173 0.00010632
8.47033e-22 0.0181316 0.0024249 0.0721727 -0.0410164 0.00716692
-3.01167e-21 0.0176138 0.0049468 0.0227635 -0.00631225 0.00369119
1.05409e-20 -0.0176139 0.00494682 0.000377438 -0.000268302 6.17862e-05
2.82344e-21 -0.0180947 0.00311468 0.001465 -0.00102085 0.000139804
0 0.0180947 0.00311468 0.076329 -0.0388295 0.0076789
1.12938e-21 0.0180563 0.00382343 0.0735873 -0.0320952 0.00799676
1.12938e-21 -0.0180563 0.00382343 0.00158599 -0.00107661 0.000159099
0 -0.0177083 0.00534826 0 0 0
0 0.0177083 0.00534827 0 0 0
-1.35525e-20 -0.0177632 0.00528867 0.000140693 -0.000100674 2.02386e-05
0 0.0177632 0.00528872 0.0067217 -0.00187648 0.000670576
-4.51751e-21 0.0179883 0.0045481 0.0517802 -0.0191237 0.00639182
-4.51751e-21 -0.0179884 0.00454809 0.0012419 -0.000846053 0.000129409
2.71051e-20 0.0178024 0.00540967 0 0 0
0 -0.0178025 0.0054097 0 0 0
-2.71051e-20 -0.0184402 0.00274762 0.00176675 -0.00121935 0.000130446
0 0.0184402 0.00274761 0.0773542 -0.0425871 0.00674034
2.25875e-21 0.0180053 0.00502464 0.0306141 -0.00978043 0.00398058
-1.35525e-21 -0.0180053 0.00502466 0.000816546 -0.000569204 9.07391e-05
2.71051e-20 0.0183918 0.00345434 0.0790056 -0.0374111 0.00690915
0 -0.0183918 0.00345433 0.00216102 -0.00144521 0.000187969
6.77626e-21 0.0179451 0.00550277 0 0 0
-6.77626e-21 -0.0179453 0.00550285 0 0 0
-2.71051e-20 0.0183611 0.00415361 0.0738416 -0.0295028 0.0076881
2.71051e-20 -0.0183611 0.00415361 0.0021192 -0.00141371 0.000204774
0 0.0188421 7.04156e-05 0.00390712 -0.00306995 0.000350397
0 -0.0188422 7.03628e-05 -1.07142e-07 -4.99469e-07 -2.96969e-07
0 0.0188477 1.10464e-18 0 0 0
0 -0.0188477 1.06274e-18 0 0 0
2.25875e-21 -0.0188602 0.00112833 0.000817554 -0.000503741 5.86032e-05
2.25875e-21 0.0188602 0.00112834 0.0535835 -0.0378489 0.00299099
-6.77626e-21 -0.0180592 0.00557717 0 0 0
1.35525e-20 0.0180593 0.00557723 0 0 0
0 0.0181347 0.00538311 0.0140923 -0.00420251 0.00193967
4.51751e-21 -0.0181348 0.00538307 0.000477031 -0.000343927 5.22125e-05
1.35525e-20 -0.018942 6.21249e-19 0 0 0
-1.35525e-20 0.018942 6.17799e-19 0 0 0
4.51751e-21 -0.0188166 0.00228404 0.00212401 -0.00138233 0.000168921
-5.64689e-21 0.0188167 0.00228404 0.0730018 -0.0429951 0.00459794
0 0.0183535 0.00480356 0.0526537 -0.0186623 0.00613164
0 -0.0183536 0.00480356 0.00168702 -0.0011346 0.000162914
-1.27055e-21 -0.0187311 0.00307208 0.00252165 -0.0016688 0.000209664
5.64689e-22 0.0187311 0.00307209 0.0779 -0.0403322 0.00537248
0 -0.0190249 8.5231e-05 1.34852e-06 -1.28593e-08 -1.00035e-06
1.35525e-20 0.019025 8.52886e-05 0.00708906 -0.00560188 0.000294822
-1.35525e-20 -0.0190315 5.66644e-19 0 0 0
1.35525e-20 0.0190316 5.63374e-19 0 0 0
-2.71051e-20 -0.0182205 0.00568238 0 0 0
-1.35525e-20 0.0182205 0.00568238 0 0 0
-4.5881e-22 0.0187398 0.00374577 0.0766732 -0.0339687 0.00567408
4.94103e-22 -0.0187398 0.00374577 0.002902 -0.0019162 0.000260939
0 0.0186713 0.00447942 0.0657285 -0.0252751 0.00601322
-3.38813e-21 -0.0186713 0.00447942 0.00270245 -0.00179361 0.000252018
-1.35525e-20 0.0183608 0.00577389 0 0 0
1.35525e-20 -0.0183608 0.00577392 0 0 0
1.35525e-20 0.018471 0.00561106 0.0125827 -0.00409045 0.00141252
5.42101e-21 -0.018471 0.00561103 0.000655191 -0.000473372 6.35078e-05
-8.13152e-21 -0.0186129 0.00519728 0.00172321 -0.00116665 0.000165611
3.61401e-21 0.0186129 0.00519728 0.0358634 -0.0124505 0.00385126
2.71051e-20 -0.0191646 0.00284904 0.00352443 -0.00225986 0.00028946
-2.71051e-20 0.0191646 0.00284904 0.0775868 -0.0423292 0.00275319
-6.77626e-21 -0.0184854 0.00585515 0 0 0
1.35525e-20 0.0184855 0.00585524 0 0 0