# k  POINT_DATA 33247
# x  y  z  k
1.35525e-20 -0.0292381 8.09214e-08 2.37299e-08
-1.35525e-20 0.0292381 8.09214e-08 5.33366e-07
0 0.0292381 0.000233485 5.33144e-07
0 -0.0292381 0.000233515 2.61422e-08
3.38813e-21 0.0292381 0.000430835 5.96883e-07
3.38813e-21 -0.0292381 0.000430882 2.50613e-08
-6.77626e-21 0.029238 0.000663804 7.34385e-07
0 -0.029238 0.000663883 1.88343e-08
0 0.029238 0.00090804 8.54229e-07
0 -0.029238 0.000908135 1.47541e-08
3.38813e-21 0.029238 0.00111509 8.89462e-07
0 -0.029238 0.00111514 1.34679e-08
6.77626e-21 0.0292379 0.00135916 8.37972e-07
-1.35525e-20 -0.029238 0.00135924 1.34344e-08
3.38813e-21 0.0292379 0.00161398 7.40959e-07
3.38813e-21 -0.029238 0.00161406 1.29678e-08
6.77626e-21 0.0292379 0.00183191 8.07831e-07
3.38813e-21 -0.0292379 0.00183193 1.48506e-08
6.77626e-21 0.0292379 0.002087 1.01905e-06
-6.77626e-21 -0.0292379 0.002087 1.83976e-08
6.77626e-21 0.0293159 0.000332872 5.12378e-07
1.35525e-20 -0.0293159 0.000332922 2.75195e-08
-1.01644e-20 0.0293201 0.00100469 8.76394e-07
0 -0.0293201 0.0010048 1.29152e-08
0 -0.0293199 0.00170033 1.22158e-08
0 0.0293199 0.00170027 6.66197e-07
0 0.0294721 0.000122228 4.71103e-07
1.35525e-20 -0.0294721 0.000122259 2.60448e-08
-1.35525e-20 0.0294728 7.47971e-08 4.69963e-07
0 -0.0294728 7.47973e-08 2.60041e-08
0 0.0294797 0.000527865 5.71362e-07
1.35525e-20 -0.0294797 0.000527979 2.19706e-08
0 0.0294753 0.0007964 7.26495e-07
0 -0.0294753 0.000796545 1.5971e-08
0 0.0294755 0.00118677 7.69185e-07
-2.03288e-20 -0.0294755 0.00118694 1.18155e-08
-6.77626e-21 0.0294683 0.00147423 6.76379e-07
1.35525e-20 -0.0294683 0.00147436 1.1554e-08
6.77626e-21 0.0294625 0.00186313 7.44252e-07
-1.35525e-20 -0.0294625 0.00186321 1.30796e-08
2.71051e-20 -0.029578 6.6417e-08 8.09286e-08
0 0.029578 6.64162e-08 6.33871e-07
1.35525e-20 -0.0295009 0.00213468 1.579e-08
-6.77626e-21 0.0295009 0.00213468 9.47617e-07
1.35525e-20 0.029587 0.000650923 6.36102e-07
-2.71051e-20 -0.029587 0.000651142 4.51014e-08
1.35525e-20 0.0295378 0.00203788 8.83765e-07
0 -0.0295378 0.00203791 1.48678e-08
0 0.0295841 0.00130575 5.62855e-07
-1.35525e-20 -0.0295841 0.001306 9.48059e-09
0 0.0295849 0.00192062 6.78931e-07
6.77626e-21 -0.0295849 0.00192072 1.14605e-08
0 0.029649 0.00216152 1.02034e-06
0 -0.029649 0.00216153 1.81772e-08
0 0.0297926 0.000963737 6.57935e-07
4.51751e-22 -0.0297926 0.000964021 1.47456e-08
0 0.0298094 7.62576e-08 4.49834e-07
0 -0.0298094 7.62593e-08 4.23306e-08
-2.25875e-22 -0.0298204 0.000317605 3.80419e-08
6.77626e-22 0.0298204 0.000317475 4.61502e-07
4.96926e-21 0.0297852 0.00156831 4.91195e-07
-3.16226e-21 -0.0297852 0.00156853 8.58993e-09
5.64689e-22 0.0297946 0.00197119 7.38033e-07
0 -0.0297946 0.00197126 1.28175e-08
0 -0.0298851 8.57398e-08 4.79932e-08
6.77626e-21 0.0298851 8.57415e-08 5.56796e-07
6.77626e-21 0.0298185 0.00219226 9.33026e-07
-6.77626e-21 -0.0298186 0.00219226 1.66758e-08
0 -0.0299229 0.00221118 2.16839e-08
-1.35525e-20 0.0299229 0.00221118 1.17014e-06
0 -0.0300583 1.01025e-07 1.00145e-07
0 0.0300583 1.01025e-07 9.52293e-07
-9.03502e-21 0.030042 0.00125425 5.63687e-07
-9.03502e-21 -0.0300421 0.00125455 1.03375e-08
2.90411e-21 0.030023 0.00171056 5.80232e-07
0 -0.0300231 0.00171076 1.03193e-08
9.03502e-21 0.0300766 0.000656709 7.06976e-07
-1.35525e-20 -0.0300766 0.000656982 4.37909e-08
0 0.0301411 0.00011795 8.97363e-07
1.35525e-20 -0.0301411 0.000118016 8.52319e-08
0 0.0301431 9.36971e-08 8.99353e-07
-6.77626e-21 -0.0301431 9.3695e-08 8.56187e-08
0 -0.0300722 0.00223824 2.34233e-08
-1.35525e-20 0.0300722 0.00223824 1.23126e-06
1.35525e-20 -0.0302709 0.000327948 4.49234e-08
0 0.0302709 0.000327843 1.06939e-06
0 0.0302588 0.000959241 7.16363e-07
0 -0.0302588 0.000959456 1.33056e-08
0 0.0302233 0.00199378 1.10209e-06
-2.25875e-21 -0.0302233 0.00199385 2.12141e-08
0 0.0302514 0.00155263 5.69874e-07
0 -0.0302514 0.00155281 1.05729e-08
0 0.0303943 0.00229664 1.39701e-06
-6.77626e-21 -0.0303944 0.00229665 2.80346e-08
0 -0.0305071 4.03816e-05 5.5056e-08
3.38813e-21 0.0305071 4.03474e-05 1.32266e-06
0 -0.0305084 2.78803e-08 5.51323e-08
0 0.0305085 2.78785e-08 1.32411e-06
0 -0.0305355 2.44804e-08 5.86947e-08
3.38813e-21 0.0305355 2.44805e-08 1.3944e-06
6.77626e-21 0.030464 0.00230926 1.46021e-06
-6.77626e-21 -0.030464 0.00230927 2.94984e-08
3.38813e-21 0.0305559 2.56048e-08 1.38223e-06
-3.38813e-21 -0.0305559 2.56052e-08 5.78456e-08
3.38813e-21 0.0305566 2.16906e-05 1.38319e-06
-3.38813e-21 -0.0305566 2.17043e-05 5.7902e-08
-2.82344e-22 -0.0305496 0.000656519 3.69745e-08
2.11758e-22 0.0305496 0.000656265 1.06893e-06
1.8823e-22 0.0305132 0.00170673 8.01854e-07
-5.64689e-22 -0.0305132 0.00170684 1.55254e-08
7.90564e-22 0.0305476 0.0012451 6.36362e-07
5.64689e-22 -0.0305476 0.00124527 1.22643e-08
-6.77626e-21 -0.030501 0.00231597 2.99831e-08
0 0.030501 0.00231597 1.47703e-06
-3.38813e-21 0.0306237 3.57384e-08 1.45733e-06
0 -0.0306238 3.57449e-08 6.93989e-08
3.38813e-21 -0.0306099 0.00219282 2.93567e-08
3.38813e-21 0.03061 0.00219278 1.44188e-06
0 -0.0307226 0.00235616 3.53648e-08
-3.38813e-21 0.0307226 0.00235617 1.72826e-06
0 -0.0308383 0.000320955 7.37083e-08
2.71051e-20 0.0308384 0.000320914 1.7693e-06
5.64689e-21 0.0308116 0.00198362 1.28528e-06
-1.12938e-21 -0.0308116 0.00198366 2.63087e-08
0 -0.0309907 0.00101963 1.32245e-08
2.71051e-21 0.0309907 0.00101953 5.71475e-07
4.51751e-21 0.0309922 0.00150601 4.30387e-07
-4.51751e-21 -0.0309923 0.00150608 8.75804e-09
-1.35525e-20 0.0310395 9.17131e-08 1.9514e-06
2.71051e-20 -0.0310395 9.1716e-08 1.19937e-07
0 0.0310416 0.000119385 1.96755e-06
0 -0.0310416 0.000119381 1.19791e-07
-6.77626e-21 -0.030965 0.0024001 4.09302e-08
6.77626e-21 0.030965 0.0024001 1.96625e-06
0 -0.030982 0.00237275 4.09407e-08
-6.77626e-21 0.030982 0.00237274 1.97279e-06
0 0.0310105 0.00240831 2.02247e-06
0 -0.0310105 0.00240831 4.1708e-08
0 0.0310179 0.00233593 1.88756e-06
2.03288e-20 -0.0310179 0.00233593 3.89374e-08
0 -0.0311223 0.000639295 6.42499e-08
0 0.0311223 0.000639241 1.1992e-06
0 0.0310526 0.00237695 2.08063e-06
-6.77626e-21 -0.0310526 0.00237695 4.29927e-08
0 -0.0311459 9.7154e-08 1.24381e-07
-1.35525e-20 0.0311459 9.7152e-08 2.022e-06
0 0.031071 0.00241925 2.14452e-06
6.77626e-21 -0.031071 0.00241926 4.43693e-08
2.71051e-20 0.0312091 0.00177617 8.61434e-07
2.71051e-20 -0.0312091 0.0017762 1.67468e-08
2.71051e-20 0.0312491 0.00122874 4.62702e-07
0 -0.0312491 0.00122879 1.05156e-08
0 -0.0312858 8.40769e-08 1.32386e-07
-1.35525e-20 0.0312858 8.40688e-08 2.21208e-06
0 -0.0312917 0.000133801 1.32686e-07
0 0.0312917 0.000133814 2.23107e-06
2.25875e-21 0.0313889 0.00201505 1.73786e-06
2.25875e-21 -0.0313889 0.00201507 3.38797e-08
0 0.0313959 0.00247812 2.47928e-06
0 -0.0313959 0.00247812 5.07016e-08
4.51751e-21 -0.0314932 0.000408813 1.38532e-07
-9.03502e-21 0.0314932 0.000408772 2.16453e-06
-4.51751e-21 -0.0315059 0.00091593 3.03908e-08
0 0.0315059 0.000915908 5.57735e-07
0 0.0314281 0.00241767 2.43602e-06
-1.35525e-20 -0.0314281 0.00241768 4.95974e-08
-4.51751e-21 0.0315016 0.00151821 3.75066e-07
0 -0.0315016 0.00151824 7.87771e-09
2.71051e-20 -0.0314985 0.00234892 4.24143e-08
0 0.0314986 0.00234891 2.10331e-06
-1.35525e-20 -0.0315086 0.00249848 4.85476e-08
0 0.0315086 0.00249848 2.4048e-06
1.35525e-20 0.0316957 0.000127101 2.61391e-06
-1.35525e-20 -0.0316957 0.000127026 1.89121e-07
-1.35525e-20 0.0316993 1.28444e-08 2.60461e-06
0 -0.0316993 1.28328e-08 1.90124e-07
2.71051e-20 -0.0317724 0.000610912 1.02644e-07
-2.71051e-20 0.0317724 0.000610901 1.47872e-06
0 -0.0317679 0.00121736 9.22662e-09
-2.71051e-20 0.0317679 0.00121735 3.25313e-07
0 0.0317537 0.00187034 8.62739e-07
0 -0.0317537 0.00187034 1.65539e-08
4.06576e-20 -0.0317094 0.00253469 4.79506e-08
-2.71051e-20 0.0317094 0.00253469 2.37562e-06
-1.35525e-20 -0.0318341 3.55441e-10 2.06186e-07
0 0.0318342 3.5764e-10 2.6896e-06
-1.8823e-22 -0.0317532 0.00228382 4.58985e-08
0 0.0317532 0.0022838 2.27775e-06
0 -0.0319513 4.55602e-10 2.00019e-07
0 0.0319515 4.57813e-10 2.92936e-06
0 -0.0319524 0.000127644 1.99071e-07
-1.35525e-20 0.0319526 0.000127724 2.95753e-06
-1.35525e-20 0.031883 0.00256626 2.14098e-06
0 -0.031883 0.00256626 4.23652e-08
-4.51751e-21 -0.0319995 0.000914652 3.42002e-08
-9.03502e-21 0.0319996 0.000914645 5.75616e-07
-8.13152e-21 -0.0320112 0.000400526 1.43445e-07
1.0842e-20 0.0320112 0.000400506 2.82877e-06
-1.12938e-21 -0.0320267 0.00227715 3.05285e-08
-2.25875e-21 0.0320267 0.00227715 1.5991e-06
0 0.0320296 0.00251389 1.89283e-06
0 -0.0320296 0.00251388 3.62153e-08
-9.03502e-21 -0.0320975 0.00153751 7.44439e-09
9.03502e-21 0.0320975 0.0015375 3.42192e-07
0 -0.0320426 0.00259527 3.52782e-08
6.77626e-21 0.0320426 0.00259528 1.86286e-06
4.51751e-21 0.0321203 0.00203456 8.22899e-07
4.51751e-21 -0.0321203 0.00203456 1.43698e-08
0 -0.032135 0.0023896 3.34754e-08
0 0.032135 0.0023896 1.76406e-06
0 0.0322923 0.000126396 3.4969e-06
0 -0.0322923 0.000126368 1.50122e-07
-1.35525e-20 0.0323016 2.23509e-09 3.48551e-06
0 -0.0323016 2.23359e-09 1.49565e-07
0 -0.0322106 0.00262564 3.51556e-08
-1.35525e-20 0.0322106 0.00262563 1.82701e-06
0 -0.0322719 0.00254337 3.62063e-08
-1.35525e-20 0.0322719 0.00254337 1.84604e-06
1.35525e-20 -0.032418 2.33105e-09 1.42963e-07
1.35525e-20 0.032418 2.33258e-09 3.53807e-06
2.25875e-21 -0.0324263 0.000612636 8.32192e-08
2.25875e-21 0.0324263 0.000612628 2.07603e-06
-4.51751e-21 0.0324222 0.00112458 4.40044e-07
-1.807e-20 -0.0324222 0.0011246 1.52264e-08
0 0.0324121 0.00187572 7.20595e-07
2.71051e-20 -0.0324121 0.00187572 1.47154e-08
0 -0.0323802 0.00265647 4.59443e-08
1.35525e-20 0.0323802 0.00265646 2.17639e-06
0 0.0324114 0.0022971 1.45798e-06
-1.69407e-21 -0.0324114 0.0022971 2.93765e-08
0 -0.032547 2.20758e-09 1.42981e-07
0 0.032547 2.20888e-09 3.70138e-06
0 -0.0325489 0.000125731 1.4298e-07
1.35525e-20 0.0325489 0.000125761 3.70128e-06
-1.35525e-20 0.0326034 0.00269726 2.07974e-06
0 -0.0326035 0.00269726 4.39976e-08
-1.35525e-20 -0.032737 0.000308379 1.43351e-07
-2.71051e-20 0.032737 0.000308371 3.9027e-06
9.03502e-21 -0.0327282 0.00154847 8.93747e-09
0 0.0327282 0.00154846 3.7771e-07
0 0.0326738 0.00254252 2.12551e-06
-9.03502e-21 -0.0326738 0.00254252 4.52973e-08
9.03502e-21 0.0327075 0.00206802 7.75904e-07
4.51751e-21 -0.0327075 0.00206803 1.62202e-08
-6.77626e-21 -0.0327081 0.00271619 4.65033e-08
0 0.0327081 0.00271619 2.18587e-06
-4.51751e-21 0.0328421 0.000917798 8.67653e-07
0 -0.0328421 0.00091781 3.10904e-08
-1.35525e-20 -0.0328866 1.93643e-09 1.46773e-07
0 0.0328867 1.93676e-09 4.03285e-06
-1.35525e-20 -0.032889 0.00014943 1.46773e-07
1.35525e-20 0.032889 0.00014945 4.03279e-06
1.93608e-21 0.0329824 0.000542139 2.93142e-06
1.54886e-20 -0.0329825 0.000542161 1.05088e-07
-2.71051e-20 -0.0330372 1.79015e-09 1.49276e-07
0 0.0330372 1.79024e-09 4.08192e-06
0 0.0329464 0.00275986 3.00948e-06
2.71051e-20 -0.0329464 0.00275986 6.57198e-08
-2.25875e-22 -0.0329866 0.00235418 3.78513e-08
5.64689e-22 0.0329866 0.00235417 1.80497e-06
-2.71051e-20 0.0330505 0.0012313 4.45895e-07
0 -0.0330505 0.00123132 1.35851e-08
0 0.03302 0.00190093 8.49571e-07
0 -0.03302 0.00190094 1.82385e-08
0 -0.0332006 2.02157e-09 1.41468e-07
0 0.0332007 2.02156e-09 4.27052e-06
-6.77626e-21 -0.0333521 0.000302632 1.31273e-07
0 0.0333521 0.00030262 4.05671e-06
2.25875e-21 0.0333579 0.000916518 9.84951e-07
-4.51751e-21 -0.0333579 0.000916545 3.30977e-08
-3.38813e-21 0.0332515 0.00281589 3.09871e-06
3.38813e-21 -0.0332516 0.00281589 6.2529e-08
4.51751e-21 -0.0333432 0.00156301 9.43959e-09
0 0.0333432 0.00156299 3.93902e-07
0 0.0332953 0.00276465 3.04497e-06
0 -0.0332954 0.00276461 6.06102e-08
-3.72694e-20 0.0333124 0.00282716 3.13715e-06
3.38813e-21 -0.0333125 0.00282717 6.29885e-08
1.12938e-20 0.03334 0.00259894 2.8712e-06
6.77626e-21 -0.03334 0.00259895 5.77048e-08
9.03502e-21 0.0333776 0.00214933 9.35566e-07
1.12938e-20 -0.0333776 0.00214934 1.93366e-08
0 -0.0334909 2.97183e-09 1.47e-07
-1.35525e-20 0.0334909 2.97138e-09 4.53895e-06
0 -0.0336619 3.20036e-09 1.57858e-07
2.71051e-20 0.033662 3.19979e-09 4.57068e-06
0 0.0336674 0.000602348 2.65115e-06
0 -0.0336674 0.000602386 9.09188e-08
0 0.0336288 0.00191783 8.22449e-07
0 -0.0336288 0.00191785 1.67811e-08
2.71051e-20 0.0336642 0.00123333 4.96837e-07
2.71051e-20 -0.0336642 0.00123337 1.46962e-08
-2.71051e-20 0.0335882 0.00287788 3.47945e-06
0 -0.0335883 0.00287789 7.35455e-08
2.71051e-20 0.0336882 0.00242285 2.07404e-06
2.71051e-20 -0.0336882 0.00242287 4.24718e-08
0 -0.0338384 2.82135e-09 1.5301e-07
0 0.0338384 2.82081e-09 4.77332e-06
-1.35525e-20 0.0338118 0.00291884 3.4441e-06
0 -0.0338119 0.00291885 7.43151e-08
-2.25875e-21 -0.0339781 0.000302716 1.41258e-07
2.25875e-21 0.0339781 0.000302698 4.4976e-06
-2.25875e-21 -0.0339808 0.000914847 3.51179e-08
-4.51751e-21 0.0339808 0.000914783 1.10954e-06
0 0.0339744 0.00155885 3.75394e-07
4.51751e-21 -0.0339744 0.0015589 9.11662e-09
-2.03288e-21 0.0339479 0.0026773 3.13506e-06
1.12938e-21 -0.033948 0.00267732 6.77279e-08
0 0.0339878 0.00215892 8.14685e-07
2.25875e-21 -0.0339878 0.00215894 1.60974e-08
-1.35525e-20 0.0341105 1.81896e-09 4.98633e-06
0 -0.0341105 1.81909e-09 1.5579e-07
0 0.034033 0.00295946 3.52561e-06
6.77626e-21 -0.0340333 0.00295951 7.79728e-08
0 -0.0342884 1.43974e-09 1.61737e-07
2.71051e-20 0.0342884 1.43965e-09 4.97493e-06
0 -0.0342943 0.000599028 9.3709e-08
0 0.0342944 0.000598959 2.89918e-06
4.06576e-20 0.0342165 0.00299309 3.6702e-06
1.35525e-20 -0.0342167 0.00299313 8.20649e-08
2.71051e-20 0.0342949 0.00244902 1.90951e-06
2.71051e-20 -0.0342949 0.00244904 4.0015e-08
1.16165e-20 -0.034362 0.00129523 1.26897e-08
-1.16165e-20 0.034362 0.00129516 4.63616e-07
0 -0.0343655 0.00179195 8.13955e-09
-9.68038e-21 0.0343655 0.00179189 4.06275e-07
0 0.0343332 0.00301467 4.118e-06
0 -0.0343333 0.00301469 9.38281e-08
-1.35525e-20 -0.0344682 1.2841e-09 1.6606e-07
2.71051e-20 0.0344682 1.284e-09 5.14998e-06
-4.51751e-21 -0.0345084 0.000909544 3.61392e-08
1.35525e-20 0.0345085 0.000909463 1.15572e-06
4.51751e-21 0.0345181 0.00215903 8.01284e-07
-1.35525e-20 -0.0345181 0.00215907 1.62538e-08
0 -0.0346072 0.000300839 1.57847e-07
-2.25875e-21 0.0346072 0.000300792 4.79377e-06
0 0.0346152 0.0015431 3.14095e-07
2.71051e-20 -0.0346152 0.00154318 7.06704e-09
-4.51751e-22 0.0345577 0.00272973 4.30754e-06
-6.77626e-22 -0.0345578 0.00272972 9.89859e-08
-6.77626e-21 0.0345982 0.00306315 4.32084e-06
0 -0.0345983 0.00306318 9.87841e-08
-1.35525e-20 0.0347357 9.21209e-10 5.30721e-06
-1.35525e-20 -0.0347357 9.21261e-10 1.82256e-07
6.77626e-21 0.0346817 0.0030786 4.14323e-06
-6.77626e-21 -0.0346818 0.00307861 9.40405e-08
0 -0.0349166 7.64663e-10 2.16343e-07
0 0.0349166 7.64607e-10 5.27979e-06
9.03502e-21 -0.0349264 0.000691229 8.63218e-08
9.03502e-21 0.0349264 0.000691147 2.24042e-06
9.03502e-21 0.0349292 0.00121456 6.07332e-07
2.25875e-21 -0.0349292 0.00121466 1.92818e-08
2.25875e-21 0.0349324 0.00185908 4.46473e-07
-2.25875e-21 -0.0349324 0.00185915 8.7601e-09
-3.04932e-20 0.0348918 0.00311689 4.09226e-06
3.38813e-21 -0.0348919 0.00311691 8.86796e-08
-9.03502e-21 0.0349974 0.00246603 1.64717e-06
-4.51751e-21 -0.0349975 0.00246604 3.37342e-08
-1.35525e-20 -0.0350985 7.00968e-10 2.58844e-07
-2.71051e-20 0.0350985 7.00918e-10 5.44683e-06
0 0.0350013 0.00286026 3.5825e-06
-4.51751e-21 -0.0350014 0.00286027 7.78368e-08
6.77626e-21 -0.0352407 0.000295921 2.4847e-07
4.51751e-21 0.0352407 0.000295875 5.0186e-06
0 0.0352487 0.000893704 9.35341e-07
2.71051e-20 -0.0352487 0.000893811 3.66462e-08
3.38813e-20 0.0351346 0.00316138 3.37385e-06
-1.52466e-20 -0.0351347 0.0031614 7.23991e-08
-2.71051e-20 0.0352503 0.00152796 3.48673e-07
2.71051e-20 -0.0352503 0.00152806 8.64822e-09
0 0.0351466 0.00316358 3.35936e-06
0 -0.0351467 0.00316359 7.21248e-08
0 0.0351792 0.00281931 2.67816e-06
-1.35525e-20 -0.0351793 0.00281933 5.69693e-08
1.69407e-21 0.0351514 0.0031503 3.35144e-06
0 -0.0351514 0.0031504 7.20088e-08
0 0.0352563 0.002173 5.12488e-07
0 -0.0352563 0.00217304 7.45423e-09
0 -0.0352268 0.00317818 7.23822e-08
-8.47033e-22 0.0352273 0.00317828 3.32634e-06
-1.35525e-20 0.0353735 5.21769e-10 5.54801e-06
0 -0.0353735 5.21782e-10 2.84663e-07
6.77626e-21 0.0353094 0.00290198 2.66094e-06
1.35525e-20 -0.0353094 0.00290198 5.68343e-08
-2.71051e-20 -0.0355533 4.57347e-10 2.97234e-07
-2.71051e-20 0.0355533 4.57338e-10 5.39022e-06
4.51751e-21 0.0355671 0.001196 6.73644e-07
0 -0.0355671 0.00119611 2.56441e-08
0 0.0355696 0.00184888 4.43865e-07
-2.25875e-21 -0.0355696 0.00184895 8.86839e-09
2.25875e-21 -0.0356125 0.00062238 1.54074e-07
-4.51751e-21 0.0356125 0.0006223 2.95105e-06
1.12938e-20 0.0355744 0.00250526 1.36141e-06
-2.25875e-21 -0.0355744 0.00250528 2.86141e-08
0 -0.0355282 0.0032331 7.04259e-08
-6.77626e-21 0.0355283 0.0032331 3.09739e-06
0 -0.0355416 0.00321426 7.09754e-08
0 0.0355417 0.00321429 3.10836e-06
4.51751e-21 0.0355809 0.00287392 2.54169e-06
-4.51751e-21 -0.0355809 0.00287394 5.81718e-08
-3.38813e-21 0.0355739 0.00316255 2.98069e-06
-3.38813e-21 -0.0355739 0.00316242 6.84004e-08
0 -0.035567 0.00324017 7.45617e-08
6.77626e-21 0.035567 0.00324016 3.21408e-06
0 -0.0357313 4.0682e-10 3.08805e-07
2.71051e-20 0.0357313 4.06801e-10 5.47937e-06
0 0.0356067 0.00321938 3.16117e-06
6.77626e-21 -0.0356068 0.00321935 7.32579e-08
0 0.03562 0.00324983 3.17071e-06
-3.38813e-21 -0.0356201 0.00324986 7.35631e-08
4.51751e-21 -0.0358767 0.000193584 3.16465e-07
-1.35525e-20 0.0358767 0.000193565 5.4853e-06
0 0.035885 0.00087563 9.76052e-07
-2.71051e-20 -0.035885 0.000875722 4.53061e-08
2.71051e-20 0.0358905 0.00150745 4.17831e-07
-2.71051e-20 -0.0358906 0.00150754 1.13213e-08
0 0.035888 0.00216762 4.91767e-07
0 -0.035888 0.00216766 7.98891e-09
0 0.0358662 0.00295245 2.87324e-06
-1.35525e-20 -0.0358662 0.00295245 7.14503e-08
1.35525e-20 0.0360202 2.4784e-10 5.49266e-06
1.35525e-20 -0.0360202 2.47859e-10 3.26758e-07
6.77626e-21 -0.036024 0.00332349 8.91436e-08
0 0.0360241 0.0033235 3.75905e-06
0 -0.0361958 1.9684e-10 3.40872e-07
-2.71051e-20 0.0361958 1.96811e-10 5.28478e-06
6.77626e-21 -0.0362011 0.000563603 1.94917e-07
-2.25875e-21 0.0362011 0.00056354 3.25993e-06
-1.35525e-20 -0.03606 0.0032691 9.09839e-08
-2.71051e-20 0.03606 0.00326916 3.83267e-06
9.03502e-21 0.036206 0.00117906 7.23057e-07
-4.51751e-21 -0.036206 0.00117914 3.02605e-08
0 0.0362044 0.00184432 4.88894e-07
-2.25875e-21 -0.0362045 0.00184437 1.06574e-08
6.77626e-21 0.0361886 0.0025326 1.59879e-06
0 -0.0361886 0.0025326 3.62606e-08
0 0.0361316 0.00334311 4.30691e-06
0 -0.0361316 0.00334312 1.03258e-07
-4.51751e-21 0.0361686 0.00293576 3.1133e-06
-6.77626e-21 -0.0361686 0.00293578 7.43109e-08
-1.35525e-20 0.0361566 0.00314793 3.52054e-06
0 -0.0361566 0.00314778 8.31683e-08
2.71051e-20 -0.0363723 1.67552e-10 3.48391e-07
-2.71051e-20 0.0363723 1.67523e-10 5.33371e-06
0 0.0362561 0.00328629 4.24087e-06
0 -0.0362563 0.00328625 9.79197e-08
-6.77626e-21 0.0363064 0.00337495 4.36014e-06
6.77626e-21 -0.0363066 0.003375 9.90276e-08
9.03502e-21 -0.0365138 0.000190575 3.6142e-07
-9.03502e-21 0.0365138 0.000190566 5.345e-06
2.71051e-20 0.0365218 0.000862039 1.00418e-06
0 -0.0365218 0.000862106 5.04215e-08
2.71051e-20 0.0365244 0.00149871 4.70686e-07
-2.71051e-20 -0.0365244 0.00149876 1.31119e-08
2.71051e-20 0.0365144 0.00218215 5.64244e-07
-2.71051e-20 -0.0365144 0.00218218 9.99937e-09
4.06576e-20 0.0364787 0.00289846 2.99048e-06
0 -0.0364787 0.00289841 7.11701e-08
-1.35525e-20 0.0366527 8.42396e-11 5.36621e-06
1.35525e-20 -0.0366527 8.42454e-11 3.80341e-07
-8.13152e-21 0.036569 0.00323497 4.62423e-06
8.13152e-21 -0.036569 0.00323494 1.04303e-07
1.35525e-20 -0.0365533 0.00341998 1.01311e-07
2.71051e-20 0.0365534 0.00341998 4.60025e-06
6.77626e-21 0.0367898 0.00059899 3.00956e-06
1.807e-20 -0.0367898 0.000599027 2.05614e-07
-2.71051e-20 -0.0368341 5.55828e-11 4.18644e-07
-2.71051e-20 0.0368341 5.55766e-11 5.30519e-06
-4.51751e-21 0.0368407 0.00116982 7.85385e-07
2.25875e-21 -0.0368407 0.00116987 3.53772e-08
-2.25875e-21 0.0368347 0.0018451 5.38215e-07
-4.51751e-21 -0.0368347 0.00184514 1.15188e-08
-2.25875e-21 0.0368044 0.00255426 1.54014e-06
6.77626e-21 -0.0368045 0.00255425 3.21019e-08
-2.71051e-20 0.0367776 0.00346083 5.05528e-06
2.71051e-20 -0.0367778 0.00346085 1.15316e-07
2.71051e-21 -0.0368391 0.00303501 7.13112e-08
-4.06576e-21 0.0368391 0.00303502 3.22066e-06
-1.35525e-20 -0.0370199 4.78266e-11 4.94402e-07
-2.71051e-20 0.0370199 4.78194e-11 5.43028e-06
4.51751e-21 -0.0371489 0.000281532 4.52634e-07
-2.25875e-21 0.0371489 0.000281513 5.00399e-06
0 0.0371548 0.000855733 1.05892e-06
0 -0.0371548 0.000855772 6.20453e-08
0 0.0371549 0.00149544 5.67936e-07
0 -0.0371549 0.00149548 1.50543e-08
0 0.037144 0.00218136 5.37987e-07
2.71051e-20 -0.0371441 0.00218137 7.81395e-09
-3.38813e-20 0.0370561 0.00351158 4.92626e-06
-3.38813e-21 -0.0370564 0.00351163 1.15788e-07
1.35525e-20 -0.03727 2.98601e-11 4.96756e-07
0 0.0372701 2.98577e-11 5.52868e-06
-2.71051e-20 0.0371711 0.00278346 1.05988e-06
-2.71051e-20 -0.0371712 0.00278344 1.71391e-08
1.35525e-20 -0.0371161 0.00352251 1.16253e-07
-1.01644e-20 0.0371162 0.00352254 4.9157e-06
-4.51751e-21 0.0371348 0.00333234 4.68072e-06
9.03502e-21 -0.0371348 0.00333228 1.09662e-07
0 -0.0374605 2.2222e-11 4.49016e-07
-2.71051e-20 0.0374606 2.22185e-11 5.5044e-06
9.03502e-21 -0.0374674 0.000637921 1.75084e-07
-9.03502e-21 0.0374674 0.000637907 2.65009e-06
0 0.0374702 0.00116479 8.61844e-07
-2.25875e-21 -0.0374702 0.00116482 3.75422e-08
0 0.0374664 0.00184005 5.87735e-07
-5.64689e-21 -0.0374664 0.00184006 1.17498e-08
3.38813e-21 0.0374681 0.0024973 7.94592e-07
-1.12938e-21 -0.0374682 0.00249729 1.30638e-08
-6.77626e-21 0.0374674 0.00307432 3.04927e-06
-5.64689e-21 -0.0374674 0.00307432 7.23924e-08
0 0.0374247 0.00357873 4.92209e-06
-1.35525e-20 -0.0374247 0.00357874 1.22288e-07
1.35525e-20 -0.0376529 1.86798e-11 4.12385e-07
-1.35525e-20 0.0376529 1.86765e-11 5.65556e-06
-9.03502e-21 -0.0377742 0.000280176 3.64358e-07
4.51751e-21 0.0377742 0.000280173 5.22152e-06
2.71051e-20 -0.0377819 0.000851964 5.62703e-08
0 0.0377819 0.000851941 1.10544e-06
0 0.0377837 0.0014916 6.62129e-07
2.71051e-20 -0.0377837 0.00149162 1.59166e-08
-6.77626e-21 -0.03766 0.00362143 1.54468e-07
0 0.0376601 0.00362145 5.75207e-06
0 0.0377819 0.00216984 5.76473e-07
-2.71051e-20 -0.0377819 0.00216984 8.31229e-09
0 0.0377772 0.00279747 9.56582e-07
-2.71051e-20 -0.0377773 0.00279747 1.8289e-08
-1.35525e-20 -0.0378849 1.07515e-11 3.92438e-07
4.06576e-20 0.0378849 1.07501e-11 5.7426e-06
-6.77626e-21 0.0377229 0.00353539 5.81996e-06
6.77626e-21 -0.0377229 0.00353515 1.58305e-07
-2.25875e-21 -0.0377798 0.00335648 1.39555e-07
5.64689e-21 0.0377798 0.00335651 5.26091e-06
6.77626e-21 0.0377787 0.00364282 6.04762e-06
0 -0.0377788 0.00364285 1.63334e-07
-2.71051e-20 -0.0380777 7.23339e-12 4.2477e-07
0 0.0380777 7.23213e-12 5.70685e-06
0 -0.0380891 0.000630768 1.5993e-07
0 0.0380891 0.000630766 2.82306e-06
0 -0.0380959 0.00115845 3.70345e-08
0 0.0380959 0.00115844 9.96067e-07
7.90564e-21 0.0380968 0.00183414 7.1251e-07
-2.25875e-21 -0.0380968 0.00183414 1.28967e-08
0 -0.0379953 0.00368205 1.66988e-07
2.71051e-20 0.0379953 0.00368205 6.39355e-06
0 0.0380943 0.00250914 8.69721e-07
-1.12938e-21 -0.0380943 0.00250913 1.53812e-08
0 0.0380786 0.00304222 2.88054e-06
-9.03502e-21 -0.0380786 0.00304218 6.88041e-08
1.35525e-20 -0.0382651 6.08614e-12 4.2905e-07
-2.71051e-20 0.0382652 6.08489e-12 5.82656e-06
-6.77626e-21 -0.0381487 0.00370985 1.93769e-07
6.77626e-21 0.0381488 0.00370987 7.4562e-06
6.77626e-21 -0.0383423 0.000233977 4.11491e-07
0 0.0383424 0.000233978 5.53182e-06
0 -0.0384028 0.00084336 5.76899e-08
2.71051e-20 0.0384028 0.000843355 1.25979e-06
0 0.03841 0.00148269 8.95813e-07
0 -0.03841 0.0014827 1.76177e-08
0 0.0384072 0.00217157 7.11282e-07
2.71051e-20 -0.0384072 0.00217157 9.88986e-09
-3.16226e-21 0.0383454 0.00341258 7.07134e-06
0 -0.0383454 0.00341256 1.79559e-07
0 -0.0385068 3.26132e-12 4.67843e-07
-1.35525e-20 0.0385068 3.26128e-12 5.88015e-06
2.71051e-20 0.0384087 0.00283772 1.21617e-06
0 -0.0384087 0.0028377 2.45952e-08
1.35525e-20 0.0383426 0.00374466 7.83813e-06
-1.35525e-20 -0.0383427 0.00374467 1.98528e-07
1.35525e-20 -0.0384724 0.00376815 1.83365e-07
1.35525e-20 0.0384725 0.00376815 7.40108e-06
0 -0.038689 2.10775e-12 4.79014e-07
0 0.038689 2.10772e-12 5.86401e-06
-4.51751e-21 -0.0387011 0.000532416 2.7954e-07
9.03502e-21 0.0387011 0.000532409 3.76644e-06
2.25875e-21 -0.0387193 0.00114095 4.05903e-08
4.51751e-21 0.0387193 0.00114095 1.18491e-06
1.12938e-21 -0.0387248 0.0018202 1.42514e-08
-3.38813e-21 0.0387248 0.00182019 8.7449e-07
-5.64689e-21 0.0387232 0.00251582 9.6248e-07
2.25875e-21 -0.0387232 0.00251581 1.53403e-08
-2.71051e-20 0.0386563 0.00380883 7.47189e-06
-1.35525e-20 -0.0386564 0.00380883 1.72433e-07
1.35525e-20 -0.0388555 1.85419e-12 5.14834e-07
0 0.0388556 1.85403e-12 5.98215e-06
-1.35525e-20 0.0386904 0.00364444 7.19294e-06
1.35525e-20 -0.0386905 0.0036444 1.67422e-07
1.12938e-21 0.0387735 0.00324347 3.97535e-06
3.95282e-21 -0.0387735 0.00324347 8.88152e-08
-8.13152e-21 -0.0389089 0.000183069 5.27267e-07
-1.0842e-20 0.038909 0.000183082 5.99544e-06
0 -0.0390203 0.000818137 6.68536e-08
-2.71051e-20 0.0390203 0.000818137 1.41898e-06
1.35525e-20 0.0388759 0.00384263 6.38912e-06
6.77626e-21 -0.0388759 0.00384264 1.45697e-07
0 -0.0390392 0.00145468 1.92982e-08
0 0.0390393 0.00145468 1.10478e-06
0 0.0390375 0.00215229 7.90059e-07
2.71051e-20 -0.0390375 0.00215229 1.0384e-08
0 -0.0389282 0.00385221 1.43126e-07
0 0.0389282 0.00385223 6.27563e-06
0 -0.038953 0.00379144 1.41958e-07
3.38813e-21 0.0389531 0.00379134 6.19518e-06
-2.71051e-20 0.0390404 0.00284543 1.11865e-06
2.71051e-20 -0.0390404 0.00284542 1.59488e-08
0 -0.0391597 9.05541e-13 6.69939e-07
0 0.0391598 9.0537e-13 5.64977e-06
1.35525e-20 -0.0391706 0.00011479 6.74307e-07
0 0.0391707 0.000114814 5.63524e-06
0 0.0391098 0.0036138 5.54918e-06
-2.25875e-21 -0.0391098 0.00361378 1.28309e-07
0 -0.0393055 6.51231e-13 7.63913e-07
-1.35525e-20 0.0393056 6.50934e-13 5.28218e-06
3.38813e-21 -0.0393117 0.000500471 4.59774e-07
2.25875e-21 0.0393118 0.000500466 3.44281e-06
-1.12938e-21 -0.0393491 0.00108814 5.95339e-08
3.38813e-21 0.0393492 0.00108814 1.3432e-06
-1.12938e-21 -0.0393637 0.00177668 1.78404e-08
2.25875e-21 0.0393637 0.00177668 1.07364e-06
1.35525e-20 -0.0394217 8.75992e-05 9.43677e-07
0 0.0394218 8.76205e-05 4.97574e-06
-1.35525e-20 -0.0394265 6.04603e-13 9.37534e-07
-1.35525e-20 0.0394267 6.044e-13 4.98876e-06
2.25875e-21 -0.0393554 0.00250019 1.39239e-08
6.77626e-21 0.0393554 0.0025002 1.02536e-06
0 -0.0392485 0.0039119 1.41557e-07
-8.47033e-22 0.039249 0.00391199 5.85986e-06
-3.16226e-21 0.0393554 0.00323491 3.04769e-06
0 -0.0393554 0.0032349 6.82609e-08
1.69407e-21 -0.03933 0.00392844 1.39784e-07
0 0.03933 0.00392844 5.71367e-06
0 -0.0393346 0.0039231 1.40047e-07
0 0.0393346 0.00392312 5.71458e-06
1.69407e-21 -0.0393412 0.00393112 1.4109e-07
0 0.0393412 0.00393111 5.73808e-06
-1.69407e-21 -0.0393435 0.00390963 1.3853e-07
0 0.0393435 0.00390973 5.64524e-06
1.69407e-21 0.039353 0.00392505 5.70906e-06
0 -0.0393531 0.00392504 1.40624e-07
1.69407e-21 0.0393594 0.00393583 5.70296e-06
-1.69407e-21 -0.0393595 0.00393586 1.40582e-07
-2.71051e-20 -0.0396051 0.000230853 1.06432e-06
-2.71051e-20 0.0396052 0.000230855 4.56452e-06
0 -0.0396385 0.000745418 1.20678e-07
0 0.0396385 0.000745416 1.36535e-06
2.71051e-20 -0.0396943 0.00136798 2.97662e-08
2.71051e-20 0.0396943 0.00136799 1.42138e-06
2.71051e-20 0.0396773 0.00211516 1.00218e-06
2.71051e-20 -0.0396773 0.00211516 1.27062e-08
-1.35525e-20 -0.0395841 0.00366052 1.4049e-07
-7.7443e-21 0.0395841 0.00366052 5.27104e-06
2.71051e-20 0.0396652 0.00283591 1.17562e-06
-2.71051e-20 -0.0396652 0.0028359 1.60872e-08
-6.02335e-21 -0.0398974 0.000433621 5.01986e-07
-1.50584e-21 0.0398975 0.000433615 4.25294e-06
0 -0.0397727 0.00404312 1.6105e-07
-1.35525e-20 0.0397728 0.00404312 6.03377e-06
0 -0.0398264 0.00397879 1.66759e-07
0 0.0398264 0.0039788 6.1725e-06
1.05879e-22 -0.0400317 5.26959e-07 6.30892e-07
1.05879e-22 0.0400329 3.79511e-07 5.99876e-06
3.38813e-21 -0.0400248 0.000878079 1.54191e-07
3.57636e-21 0.0400249 0.000878071 3.29919e-06
0 -0.0400178 0.0017144 2.6009e-08
2.35287e-22 0.0400178 0.0017144 1.46354e-06
-2.25875e-21 0.0399831 0.00248337 1.22698e-06
-3.38813e-21 -0.0399831 0.00248337 1.62637e-08
-4.51751e-21 0.0399582 0.00322784 3.13983e-06
0 -0.0399582 0.00322782 7.58193e-08
3.38813e-21 0.0399279 0.00368209 5.30391e-06
-3.38813e-21 -0.0399279 0.00368208 1.43588e-07
1.35525e-20 0.0399097 0.0040785 6.29977e-06
0 -0.0399097 0.0040785 1.72169e-07
0 0.0400592 0.00398574 6.36314e-06
0 -0.0400592 0.00398573 1.78923e-07
0 -0.0403283 0.00130607 3.69612e-08
2.71051e-20 0.0403283 0.00130608 1.84473e-06
0 -0.0403037 0.00209241 1.59477e-08
0 0.0403037 0.00209241 1.40243e-06
2.71051e-20 0.0402835 0.00284207 1.30679e-06
0 -0.0402835 0.00284206 1.93729e-08
2.25875e-21 -0.0403926 0.000332763 3.71189e-07
-7.52918e-22 0.0403926 0.000332742 8.18604e-06
1.35525e-20 0.0402359 0.00359474 5.11023e-06
-1.35525e-20 -0.0402359 0.00359473 1.38731e-07
8.47033e-22 -0.0402066 0.00415491 1.78278e-07
0 0.0402066 0.00415492 6.21676e-06
0 -0.0402147 0.0041461 1.78749e-07
-6.77626e-21 0.0402147 0.00414611 6.22323e-06
1.69407e-21 0.040223 0.00415913 6.26891e-06
0 -0.040223 0.00415913 1.79814e-07
1.35525e-20 0.0403025 0.00393731 6.79039e-06
0 -0.0403025 0.00393731 1.90455e-07
1.35525e-20 0.0405607 2.46968e-14 8.3025e-06
0 -0.0405607 2.44752e-14 4.18279e-07
0 0.0406279 0.00170818 1.85051e-06
0 -0.0406279 0.00170819 2.90378e-08
-4.51751e-22 -0.0406701 0.000834219 1.81706e-07
-3.61401e-21 0.0406701 0.00083421 5.64601e-06
0 -0.0406057 0.00247168 1.67261e-08
3.38813e-21 0.0406057 0.00247169 1.39764e-06
-2.25875e-21 0.0405666 0.00323479 2.98042e-06
-2.25875e-21 -0.0405666 0.00323478 6.45884e-08
0 -0.0407119 1.90384e-14 4.57691e-07
-1.35525e-20 0.040712 1.91278e-14 8.77815e-06
-1.35525e-20 0.0404944 0.00422897 7.46656e-06
1.35525e-20 -0.0404944 0.00422897 2.03086e-07
1.35525e-21 -0.0405858 0.00374196 1.40422e-07
2.25875e-21 0.0405858 0.00374196 5.49955e-06
0 -0.0406597 0.00427138 2.24362e-07