# kMean  POINT_DATA 50532
# x  y  z  kMean
-0.0106418 1.35525e-20 6.54156e-08 7.23767e-09
0.0106418 -1.35525e-20 6.54156e-08 5.69848e-07
-0.0106418 1.69407e-21 0.000314268 8.74123e-09
0.0106418 -5.0822e-21 0.000314344 6.401e-07
-0.0106418 1.69407e-21 0.000346265 8.78438e-09
0.0106418 6.77626e-21 0.000346349 6.51808e-07
-0.0106418 1.35525e-20 0.000664313 8.02518e-09
0.0106418 2.71051e-20 0.000664474 8.08443e-07
0.0106696 -1.69407e-21 0.000329749 6.43038e-07
-0.0106696 0 0.000329666 8.83033e-09
-0.0106418 0 0.000994725 9.84428e-09
0.0106418 -1.86347e-20 0.000994893 1.18805e-06
-0.0106418 0 0.00102871 9.90932e-09
0.0106418 0 0.00102888 1.19714e-06
-0.0106651 0 0.00100861 9.94452e-09
0.0106651 -6.77626e-21 0.00100878 1.2069e-06
-0.0106418 0 0.00135928 9.11696e-09
0.0106418 0 0.00135945 9.90983e-07
-0.0106418 0 0.00170832 1.08419e-08
0.0106418 -8.47033e-21 0.00170841 1.08859e-06
-0.0106418 0 0.00174301 1.09259e-08
0.0106418 0 0.00174309 1.08989e-06
-0.0106634 1.69407e-21 0.0017166 1.09249e-08
0.0106634 -1.35525e-20 0.00171669 1.09274e-06
0.0106417 0 0.002087 1.04586e-06
-0.0106417 0 0.002087 1.11229e-08
0.0108523 -4.06576e-20 6.90498e-08 6.20736e-07
-0.0108523 -2.71051e-20 6.90496e-08 8.49893e-09
-0.0108538 -4.51751e-21 0.000983453 9.47673e-09
0.0108538 -4.51751e-21 0.000983665 1.1073e-06
-0.0109302 1.12938e-21 0.000328472 1.12591e-08
0.0109302 -1.01644e-20 0.000328579 7.45246e-07
-0.010876 6.77626e-21 0.00165245 1.0311e-08
0.010876 -4.51751e-21 0.0016526 1.02178e-06
-0.0110233 0 5.24962e-08 1.59929e-08
0.0110233 -6.77626e-21 5.24948e-08 9.0638e-07
-0.0108444 6.77626e-21 0.00218791 1.3982e-08
0.0108444 -1.35525e-20 0.00218792 1.28958e-06
-0.010932 -6.77626e-21 0.00223158 1.49497e-08
0.0109321 0 0.0022316 1.36519e-06
-0.0109511 6.77626e-21 0.00214941 1.44363e-08
0.0109511 -6.77626e-21 0.00214943 1.32822e-06
-0.0111742 -1.35525e-20 4.6956e-08 2.59754e-08
0.0111742 0 4.69546e-08 1.31381e-06
-0.0111378 9.03502e-21 0.00125156 6.92011e-09
0.0111378 6.77626e-21 0.00125179 6.8191e-07
-0.0111894 -2.25875e-21 0.000675217 1.80911e-08
0.0111894 -5.64689e-21 0.000675418 1.07814e-06
0.0112788 0 0.000114353 1.63763e-06
-0.0112788 0 0.000114331 3.52422e-08
0.0112885 -1.35525e-20 3.37062e-08 1.65741e-06
-0.0112886 1.35525e-20 3.37058e-08 3.57445e-08
-0.0111945 0 0.00167213 6.79527e-09
0.0111945 0 0.00167231 6.25747e-07
-0.011163 1.12938e-21 0.00198697 1.30353e-08
0.011163 6.77626e-21 0.00198706 1.19954e-06
-0.011131 0 0.00233069 1.62657e-08
0.0111311 -2.71051e-20 0.00233071 1.45551e-06
0.0114369 0 0.000317029 2.12407e-06
-0.0114369 2.71051e-20 0.000316923 4.77786e-08
-0.011421 0 0.000929721 5.3319e-09
0.011421 -2.71051e-20 0.000929939 3.20541e-07
-0.0114038 0 0.0015068 2.53656e-09
0.0114039 0 0.00150698 2.09965e-07
-0.0113457 -6.77626e-21 0.00243757 2.00202e-08
0.0113458 -6.77626e-21 0.00243761 1.73412e-06
0.0116363 -1.35525e-20 1.34764e-08 2.57989e-06
-0.0116364 0 1.34773e-08 5.38359e-08
0.0116375 -1.35525e-20 9.54413e-05 2.58805e-06
-0.0116375 1.35525e-20 9.54289e-05 5.39002e-08
-0.0114304 6.77626e-21 0.00247976 2.01947e-08
0.0114304 6.77626e-21 0.00247975 1.7659e-06
-0.0115075 -7.90564e-21 0.00225285 1.80141e-08
0.0115075 1.12938e-21 0.00225289 1.58363e-06
0.01173 0 3.26074e-09 2.78967e-06
-0.0117301 0 3.25931e-09 5.53329e-08
-0.0117195 -2.25875e-21 0.000610218 3.17726e-08
0.0117195 4.51751e-21 0.000610384 1.62224e-06
-0.0117028 4.51751e-21 0.00122422 4.65874e-09
0.0117029 -4.51751e-21 0.00122442 3.04225e-07
0.0118194 0 8.96942e-05 2.99709e-06
-0.0118195 1.35525e-20 8.96941e-05 5.73125e-08
0.0118199 -1.35525e-20 3.03241e-09 3.00088e-06
-0.01182 1.35525e-20 3.03105e-09 5.7345e-08
-0.0116772 -2.25875e-21 0.0018372 6.81267e-09
0.0116772 -2.25875e-21 0.00183732 6.2828e-07
-0.0116033 0 0.0025659 1.81884e-08
0.0116034 0 0.00256591 1.66985e-06
0.0120204 0 0.000307092 3.49912e-06
-0.0120205 0 0.000307025 6.4044e-08
-0.0117486 -1.35525e-20 0.00263818 1.94735e-08
0.0117487 1.35525e-20 0.00263823 1.80641e-06
-0.0120156 -2.71051e-20 0.000916995 8.67989e-09
0.0120156 0 0.000917127 4.94102e-07
-0.0118319 0 0.00229967 1.41728e-08
0.011832 -7.52918e-21 0.00229972 1.32236e-06
-0.0117787 -1.35525e-20 0.00256194 1.92733e-08
0.0117789 0 0.00256195 1.78769e-06
-0.0119887 -2.71051e-20 0.00155402 2.20521e-09
0.0119887 0 0.00155414 1.98159e-07
-0.012032 0 0.00210266 3.87407e-09
0.0120321 0 0.00210273 4.40521e-07
0.0122392 1.35525e-20 1.95038e-09 3.85159e-06
-0.0122392 1.35525e-20 1.9503e-09 6.55852e-08
0.0122409 0 8.16586e-05 3.85263e-06
-0.012241 -1.35525e-20 8.16739e-05 6.55991e-08
-0.0119871 -2.71051e-20 0.00253932 1.87376e-08
0.0119872 0 0.00253936 1.78556e-06
0.012321 0 1.7426e-09 3.97771e-06
-0.0123211 -1.35525e-20 1.74255e-09 6.68035e-08
-0.0120125 0 0.00276933 2.45729e-08
0.0120125 0 0.00276934 2.21982e-06
-0.0123328 -6.77626e-21 0.000603507 3.84228e-08
0.0123328 1.12938e-21 0.000603593 2.30649e-06
-0.0120726 2.71051e-20 0.00270723 2.49452e-08
0.0120726 0 0.00270723 2.24755e-06
-0.0123288 4.51751e-21 0.00123238 6.08041e-09
0.0123288 2.25875e-21 0.00123249 4.00621e-07
0.0124027 -1.35525e-20 1.58622e-09 4.11105e-06
-0.0124028 0 1.58612e-09 6.755e-08
0.012405 1.35525e-20 7.77801e-05 4.10908e-06
-0.0124051 0 7.78041e-05 6.75397e-08
-0.0123347 -1.12938e-21 0.00185416 3.5525e-09
0.0123347 -9.03502e-21 0.00185424 3.40127e-07
-0.0121506 -1.35525e-20 0.00283805 2.85434e-08
0.0121507 -1.35525e-20 0.00283809 2.5103e-06
-0.0123065 4.51751e-21 0.0024016 1.70914e-08
0.0123065 -1.12938e-21 0.00240165 1.53682e-06
-0.0122685 0 0.00289771 3.67729e-08
0.0122687 -2.71051e-20 0.00289778 3.11373e-06
-0.0123168 1.35525e-20 0.00277206 3.48405e-08
0.012317 0 0.00277207 2.97275e-06
0.0126427 -2.71051e-20 0.000300463 4.47801e-06
-0.0126427 0 0.00030044 6.9115e-08
-0.0126591 -5.42101e-20 0.000913397 1.02439e-08
0.0126591 0 0.000913462 6.70242e-07
-0.0126619 0 0.00155273 3.09671e-09
0.0126619 0 0.00155279 2.34921e-07
-0.0125265 2.71051e-20 0.00271714 3.94656e-08
0.0125266 0 0.00271717 3.31949e-06
0.012467 1.35525e-20 0.00299777 3.42635e-06
-0.012467 0 0.0029978 4.09952e-08
-0.0126644 0 0.00218642 5.07118e-09
0.0126645 0 0.00218646 4.81613e-07
-0.0128706 6.77626e-21 4.59712e-10 7.3008e-08
0.0128706 0 4.5966e-10 4.66099e-06
-0.0128741 -6.77626e-21 6.76228e-05 7.30168e-08
0.0128742 0 6.7603e-05 4.66108e-06
-0.0125737 1.35525e-20 0.00289896 4.02527e-08
0.0125738 1.35525e-20 0.00289883 3.37367e-06
0.0129417 0 3.22157e-10 4.70532e-06
-0.0129417 -1.35525e-20 3.22157e-10 7.36625e-08
-0.0126 0 0.00306523 3.89379e-08
0.0126002 2.71051e-20 0.00306527 3.28262e-06
-0.0129729 1.12938e-21 0.00059327 4.30105e-08
0.0129729 -1.12938e-21 0.000593302 2.7437e-06
0.0130096 6.77626e-21 3.00396e-10 4.75932e-06
-0.0130097 6.77626e-21 3.00386e-10 7.41789e-08
0.0130125 1.35525e-20 6.19132e-05 4.75808e-06
-0.0130126 6.77626e-21 6.19358e-05 7.41738e-08
-0.0129929 -5.64689e-21 0.00122118 7.67209e-09
0.0129929 -3.38813e-21 0.00122122 5.1721e-07
-0.0127134 1.35525e-20 0.00312239 4.0662e-08
0.0127137 1.35525e-20 0.00312249 3.34075e-06
-0.01275 -1.35525e-20 0.00301608 4.01475e-08
0.0127503 0 0.00301608 3.3139e-06
-0.0129974 0 0.0018788 3.9064e-09
0.0129974 -4.51751e-21 0.00187883 3.80048e-07
-0.0129624 2.71051e-21 0.00258482 1.99636e-08
0.0129624 0 0.00258484 1.77441e-06
-0.0129341 0 0.00296493 3.94025e-08
0.0129342 0 0.00296496 3.27724e-06
0.0132745 2.71051e-20 0.0002907 4.94203e-06
-0.0132746 -2.71051e-20 0.000290689 7.82675e-08
-0.0133098 0 0.000892095 1.29292e-08
0.0133098 -2.71051e-20 0.000892117 7.90711e-07
-0.012963 -1.35525e-20 0.00324868 3.834e-08
0.012963 6.77626e-21 0.00324866 3.26309e-06
-0.013014 1.35525e-20 0.00319464 3.77549e-08
0.013014 0 0.00319458 3.23734e-06
-0.0133312 0 0.00153426 4.2951e-09
0.0133312 -2.71051e-20 0.00153429 3.64634e-07
-0.0130336 -1.35525e-20 0.0032843 3.57352e-08
0.0130336 -1.35525e-20 0.00328432 3.14859e-06
-0.0133255 0 0.00221292 3.18369e-09
0.0133255 -2.71051e-20 0.00221294 4.37813e-07
-0.0130971 -1.35525e-20 0.00331613 3.60453e-08
0.0130973 0 0.00331619 3.20337e-06
-0.0131128 0 0.00327471 3.59731e-08
0.013113 -1.35525e-20 0.00327473 3.1954e-06
-0.0135215 6.77626e-21 4.3748e-11 1.06828e-07
0.0135215 0 4.37385e-11 4.84604e-06
-0.013525 6.77626e-21 4.46932e-05 1.06913e-07
0.013525 0 4.46658e-05 4.84538e-06
-0.0132202 -7.52918e-22 0.00300115 2.66992e-08
0.0132202 1.50584e-21 0.00300118 2.43819e-06
0.0135708 0 2.74197e-11 4.8223e-06
-0.0135708 0 2.74177e-11 1.11029e-07
0.0136155 0 2.60842e-11 4.80688e-06
-0.0136156 0 2.60813e-11 1.16834e-07
0.0136174 0 3.86608e-05 4.8068e-06
-0.0136174 -6.77626e-21 3.8686e-05 1.16774e-07
0.0136131 1.12938e-21 0.000567022 2.86968e-06
-0.0136131 2.25875e-21 0.000567013 6.61946e-08
-0.0133844 2.71051e-20 0.00278358 7.55357e-09
0.0133844 2.71051e-20 0.0027836 9.33929e-07
-0.0136536 -1.12938e-21 0.00118311 1.23717e-08
0.0136536 2.25875e-21 0.00118312 6.80048e-07
-0.013358 5.42101e-20 0.00322889 3.29515e-08
0.0133581 0 0.00322892 3.08054e-06
-0.0136672 2.25875e-21 0.00185452 4.74523e-09
0.0136672 0 0.00185453 4.65374e-07
-0.0134205 0 0.00347805 4.46472e-08
0.0134205 0 0.00347806 3.89358e-06
-0.0134524 -1.35525e-20 0.00343732 4.49318e-08
0.0134524 0 0.0034373 3.91394e-06
0.0139 5.42101e-20 0.000270261 4.70534e-06
-0.0139 -2.71051e-20 0.000270258 1.45841e-07
-0.0136757 -5.64689e-22 0.00251333 5.76932e-09
0.0136758 5.64689e-22 0.00251333 6.78904e-07
-0.0134923 0 0.00351398 4.80217e-08
0.0134924 0 0.00351402 4.13559e-06
0.0139532 2.71051e-20 0.000842552 9.40579e-07
-0.0139533 2.71051e-20 0.000842543 2.43087e-08
-0.0136464 2.25875e-21 0.00307167 2.85634e-08
0.0136464 -1.69407e-21 0.00307169 2.56783e-06
-0.0135604 6.77626e-21 0.00354803 5.61776e-08
0.0135605 0 0.00354808 4.68849e-06
-0.013594 -1.35525e-20 0.00346729 5.43991e-08
0.0135942 0 0.00346729 4.56719e-06
-0.0139955 -5.42101e-20 0.00147861 7.69042e-09
0.0139955 0 0.00147861 6.11762e-07
-0.0139995 -2.71051e-20 0.00216677 3.86993e-09
0.0139995 0 0.00216677 4.50214e-07
0.0141777 0 1.47672e-12 4.39755e-06
-0.0141778 0 1.47736e-12 2.94495e-07
0.0141788 0 1.24877e-05 4.39721e-06
-0.0141788 0 1.25188e-05 2.94615e-07
0.0141923 -1.69407e-21 1.02421e-12 4.38275e-06
-0.0141924 -1.69407e-21 1.02371e-12 3.04209e-07
0.0142041 1.69407e-21 9.46673e-06 4.36849e-06
-0.0142042 1.69407e-21 9.49024e-06 3.195e-07
0.0142051 1.69407e-21 1.00933e-12 4.36847e-06
-0.0142052 1.69407e-21 1.0088e-12 3.19553e-07
0.0142399 6.21157e-22 0.000511 2.97022e-06
-0.01424 -1.12938e-22 0.000510993 1.84229e-07
-0.0138496 0 0.00338143 6.35762e-08
0.0138496 -2.71051e-20 0.00338145 5.21222e-06
-0.0139916 0 0.00283636 8.2456e-09
0.0139916 0 0.00283638 8.6165e-07
0.0138218 0 0.0036788 5.35007e-06
-0.0138218 0 0.0036788 6.55981e-08
0.0143102 0 0.00109467 1.21285e-06
-0.0143107 5.64689e-22 0.00109732 3.02263e-08
0.0143533 0 7.65942e-13 5.00085e-06
-0.0138932 -1.35525e-20 0.003605 6.48159e-08
0.0138932 2.71051e-20 0.00360498 5.29928e-06
-0.0143537 1.69407e-21 7.6493e-13 3.25353e-07
-0.0139058 1.35525e-20 0.00372075 6.30555e-08
0.0139058 0 0.00372076 5.20571e-06
-0.0143406 1.97641e-21 0.0017773 8.48078e-09
0.0143406 -8.47033e-22 0.0017773 7.83908e-07
0.014476 -2.71051e-20 0.000224596 4.06074e-06
-0.014476 2.71051e-20 0.000224595 4.55935e-07
-0.0139821 0 0.00376078 6.50916e-08
0.0139821 0 0.0037608 5.24865e-06
-0.0140113 1.35525e-20 0.00368378 6.45495e-08
0.0140114 0 0.00368378 5.22362e-06
-0.0143224 -1.12938e-21 0.0024986 6.0192e-09
0.0143224 5.64689e-22 0.0024986 7.40973e-07
0.0145821 2.71051e-20 0.000746673 1.76427e-06
-0.0145821 0 0.000746674 6.69209e-08
-0.014272 9.03502e-22 0.00323782 3.20693e-08
0.014272 2.25875e-22 0.00323783 2.87238e-06
-0.0142274 -2.71051e-20 0.00361851 6.30707e-08
0.0142274 2.71051e-20 0.00361852 5.16495e-06
0.0146963 -3.76459e-22 0.000425142 5.06482e-06
-0.0146963 0 0.000425143 2.82042e-07
0.0146847 -2.71051e-20 0.00134649 1.34558e-06
-0.0146847 -2.71051e-20 0.00134648 1.61705e-08
0.0147679 0 2.54299e-05 6.43335e-06
-0.014768 0 2.54068e-05 3.69557e-07
0.0147705 0 9.11081e-14 6.4289e-06
-0.0147705 -6.77626e-21 9.09544e-14 3.69268e-07
0.0148059 -6.77626e-21 6.68338e-15 6.71055e-06
-0.0148059 0 6.6647e-15 3.80231e-07
0.014659 5.42101e-20 0.00210817 7.61057e-07
-0.014659 5.42101e-20 0.00210817 6.56868e-09
0.0142867 0 0.00391566 5.02121e-06
-0.0142867 0 0.00391568 5.96407e-08
0.0143137 6.77626e-21 0.00388599 4.99956e-06
-0.0143137 6.77626e-21 0.00388604 5.91499e-08
-0.0148347 6.77626e-21 4.55241e-05 3.83118e-07
0.0148347 0 4.55572e-05 7.078e-06
-0.0148462 6.77626e-21 5.73722e-15 3.82896e-07
0.0148462 0 5.75032e-15 7.08784e-06
0.0143218 6.77626e-21 0.00393378 4.90642e-06
-0.0143218 -6.77626e-21 0.00393377 5.72708e-08
-0.014352 6.77626e-21 0.00395515 5.69034e-08
0.014352 0 0.00395518 4.86633e-06
-0.0143641 0 0.00393216 5.69166e-08
0.0143642 0 0.00393215 4.87146e-06
-0.0146351 0 0.00283847 5.4617e-09
0.0146351 0 0.00283847 8.90742e-07
0.0144996 0 0.0036695 3.85233e-06
-0.0144996 0 0.0036695 4.26343e-08
0.0145103 0 0.00366655 3.79764e-06
-0.0145087 -8.47033e-22 0.0036755 4.18116e-08
0.0150122 0 0.00033015 9.20802e-06
-0.0150123 2.71051e-20 0.000330154 3.2143e-07
-0.0145871 -8.47033e-22 0.00370013 4.14918e-08
0.0145874 8.47033e-22 0.00370026 3.79047e-06
-0.0146767 -2.71051e-20 0.00345539 1.17433e-08
0.0146767 0 0.00345539 1.59802e-06
-0.0150078 -2.25875e-22 0.00170826 1.7441e-08
0.0150078 1.12938e-22 0.00170826 1.61453e-06
0.0150925 -3.61401e-21 0.000854675 5.99211e-06
-0.0150925 0 0.000854681 1.30156e-07
0.0146273 2.71051e-20 0.00391102 4.68171e-06
-0.0146273 -5.42101e-20 0.00391104 5.14136e-08
-0.0149891 -1.12938e-21 0.00242101 8.75599e-09
0.0149891 -7.90564e-22 0.00242101 1.05296e-06
-0.0149587 -2.82344e-22 0.00315968 1.04805e-08
0.0149587 -1.69407e-21 0.00315968 1.29239e-06
0.0147021 6.77626e-21 0.00420296 5.3874e-06
-0.0147022 0 0.00420304 6.21036e-08
0.0152975 6.77626e-21 8.17497e-05 1.1059e-05
-0.0152975 6.77626e-21 8.17234e-05 2.79302e-07
0.0147325 0 0.00417583 5.41268e-06
-0.0147325 1.35525e-20 0.00417593 6.22972e-08
0.015314 0 2.17543e-15 1.10418e-05
-0.015314 6.77626e-21 2.16401e-15 2.7981e-07
0.0147476 0 0.00423512 5.53383e-06
-0.0147477 -1.35525e-20 0.00423519 6.3891e-08
0.0147781 -6.77626e-21 0.0042567 5.46299e-06
-0.0147782 0 0.00425676 6.23685e-08
0.0147931 0 0.00422599 5.47331e-06
-0.0147932 1.35525e-20 0.00422607 6.24725e-08
-0.0153882 0 1.37339e-16 2.56136e-07
0.0153882 0 1.36947e-16 1.14391e-05
-0.0154218 -6.77626e-21 0.000114883 2.36853e-07
0.0154219 0 0.000114923 1.20158e-05
0.0149639 1.50584e-21 0.00384032 3.76525e-06
-0.0149639 0 0.00384035 4.03783e-08
-0.0154554 -6.77626e-21 2.28913e-16 2.35768e-07
0.0154555 0 2.27201e-16 1.20301e-05
0.0148469 -6.77626e-21 0.00430538 5.60408e-06
-0.014847 0 0.00430541 6.32564e-08
0.0154606 0 0.00140662 3.19152e-06
-0.0154606 2.71051e-20 0.00140663 3.31509e-08
-0.0152778 5.42101e-20 0.00281389 8.52126e-09
0.0152778 2.71051e-20 0.00281389 9.96437e-07
0.0154333 0 0.00193357 1.92083e-06
-0.0154334 2.71051e-20 0.00193357 1.79676e-08
0.0156222 0 0.000480035 1.45126e-05
-0.0156222 2.71051e-20 0.000480033 1.81677e-07
0.0152556 -2.71051e-20 0.00350081 1.19448e-06
-0.0152556 0 0.00350083 1.02124e-08
0.0150547 -6.77626e-21 0.00445243 6.34779e-06
-0.0150548 1.35525e-20 0.00445248 7.07108e-08
-0.0157277 -6.77626e-21 1.66304e-16 2.19364e-07
0.0157278 6.77626e-21 1.64963e-16 1.38936e-05
0.0151605 -2.82344e-22 0.00422314 6.3427e-06
-0.0151606 8.47033e-22 0.00422318 7.05626e-08
0.0156637 2.71051e-20 0.00166709 3.31808e-06
-0.0156638 -1.35525e-20 0.00166709 3.00808e-08
0.0156161 7.90564e-22 0.00242548 1.87664e-06
-0.0156161 9.03502e-22 0.00242548 1.78264e-08
0.0157781 -5.64689e-22 0.000921688 1.00616e-05
-0.0157781 -3.76459e-22 0.000921689 1.18575e-07
0.0155829 5.64689e-22 0.00315322 1.37454e-06
-0.0155829 1.12938e-21 0.00315322 1.32476e-08
0.0152442 6.77626e-21 0.00458652 6.22387e-06
-0.0152443 -1.35525e-20 0.00458661 7.26895e-08
0.0159534 0 3.82779e-05 1.56323e-05
-0.0159534 0 3.82942e-05 1.94239e-07
0.015843 2.71051e-20 0.00192286 3.16662e-06
-0.015843 2.71051e-20 0.00192287 2.64874e-08
0.0159594 6.77626e-21 2.87967e-17 1.56373e-05
-0.0159594 0 2.85098e-17 1.94292e-07
0.0159064 0 0.00142306 5.04126e-06
-0.0159064 2.71051e-20 0.00142306 4.33881e-08
0.0155142 -1.12938e-21 0.0038846 2.96967e-06
-0.0155143 -3.38813e-21 0.00388461 3.16577e-08
0.0153266 0 0.00464484 6.24745e-06
-0.0153267 0 0.00464492 7.29773e-08
0.01535 1.35525e-20 0.00461636 6.27494e-06
-0.0153501 0 0.00461645 7.3472e-08
0.0153665 0 0.00467311 6.51143e-06
-0.0153666 0 0.00467318 7.80464e-08
0.0160927 2.71051e-20 0.000505095 1.67369e-05
-0.0160927 0 0.000505084 2.0659e-07
0.0154309 0 0.00471865 7.00523e-06
-0.015431 0 0.00471871 8.68623e-08
-0.0161373 1.35525e-20 9.1179e-18 2.05095e-07
0.0161375 0 9.37167e-18 1.63213e-05
0.0154621 1.35525e-20 0.00464665 6.9029e-06
-0.0154622 1.35525e-20 0.00464672 8.4964e-08
0.0155559 7.05861e-23 0.004333 4.95654e-06
-0.0155559 -1.41172e-22 0.00433301 5.68019e-08
0.015933 0 0.00276856 1.95015e-06
-0.015933 -2.71051e-20 0.00276856 2.1002e-08
0.015876 -2.71051e-20 0.003495 1.39029e-06
-0.0158761 -2.71051e-20 0.003495 1.36884e-08
0.0163022 1.41172e-22 0.00169287 5.0311e-06
-0.0163022 1.41172e-22 0.00169287 4.80318e-08
0.0158806 2.71051e-20 0.00413138 1.77029e-06
-0.0158806 0 0.00413139 1.61405e-08
0.0157465 0 0.00463069 7.06491e-06
-0.0157465 2.71051e-20 0.00463071 8.99148e-08
-0.0156845 0 0.00489813 9.40399e-08
0.0156845 -1.35525e-20 0.00489813 7.3676e-06
-0.0164402 -1.35525e-20 0.000192225 2.25102e-07
0.0164404 2.71051e-20 0.000191942 1.77547e-05
-0.0164598 0 2.18492e-18 2.24735e-07
0.01646 1.35525e-20 2.26278e-18 1.77306e-05
0.0163055 3.38813e-21 0.0022924 3.51836e-06
-0.0163055 -3.38813e-21 0.0022924 3.94331e-08
-0.0157621 0 0.00483924 9.28715e-08
0.0157621 0 0.00483928 7.30081e-06
0.0164587 6.77626e-21 0.00103728 1.22489e-05
-0.0164587 0 0.00103727 1.47778e-07
0.0162201 1.12938e-22 0.00310508 2.26003e-06
-0.0162201 4.51751e-22 0.00310507 3.10222e-08
-0.0157673 -1.35525e-20 0.00495672 9.12792e-08
0.0157673 0 0.0049567 7.24718e-06
-0.0165551 -1.35525e-20 1.82789e-18 2.33691e-07
0.0165551 1.35525e-20 1.92031e-18 1.80241e-05
0.0158425 0 0.00500992 7.40016e-06
-0.0158425 0 0.00500996 9.56188e-08
0.0158774 -1.35525e-20 0.00492682 7.34106e-06
-0.0158774 -1.35525e-20 0.00492681 9.44165e-08
0.0161859 -5.64689e-22 0.00381857 1.73387e-06
-0.0161859 -5.64689e-22 0.00381858 2.21677e-08
0.0166927 1.35525e-20 0.00010156 1.8999e-05
-0.016693 -1.35525e-20 0.000101746 2.43827e-07
0.0166939 -1.35525e-20 -1.9608e-18 1.89984e-05
-0.0166942 -1.35525e-20 -2.00257e-18 2.43819e-07
0.0161388 0 0.00451634 4.26544e-06
-0.0161388 -1.807e-21 0.00451636 5.0271e-08
0.0165511 0 0.00276281 3.36529e-06
-0.0165511 0 0.00276281 4.78599e-08
0.0160804 0 0.00488846 7.3515e-06
-0.0160804 0 0.00488847 9.30013e-08
-0.0165195 -2.71051e-20 0.00345967 3.90991e-08
0.0165195 0 0.00345967 2.04891e-06
-0.0160928 6.77626e-21 0.00518707 9.37851e-08
0.0160929 6.77626e-21 0.00518708 7.44986e-06
-0.0161329 0 0.00514907 9.29099e-08
0.0161329 6.77626e-21 0.0051491 7.41721e-06
0.0161377 6.77626e-21 0.0052188 7.28833e-06
-0.0161377 6.77626e-21 0.00521882 9.02618e-08
0.0164853 2.71051e-20 0.00415086 1.7426e-06
-0.0164853 0 0.00415087 2.08055e-08
0.0161812 6.77626e-21 0.00524954 7.27136e-06
-0.0161812 0 0.00524959 9.0899e-08
0.0162 0 0.00521528 7.27369e-06
-0.0162 0 0.0052153 9.06892e-08
0.0169483 0 0.00175217 6.77461e-06
-0.0169483 -1.0842e-19 0.00175218 7.45352e-08
-0.0168946 -1.41172e-22 0.00247384 7.65827e-08
0.0168959 -4.23516e-22 0.002475 4.85051e-06
0.0170685 -1.0842e-19 0.00054239 2.08327e-05
-0.0170686 0 0.000542388 2.76707e-07
0.0163681 4.23516e-22 0.00495113 5.78288e-06
-0.0163681 7.05861e-22 0.00495117 6.82356e-08
0.0168537 0 0.00309993 3.61883e-06
-0.0168537 -5.64689e-22 0.00309993 7.26015e-08
0.0165271 -2.71051e-20 0.00473652 2.63633e-06
-0.0165271 0 0.00473653 2.16632e-08
0.0168198 1.69407e-21 0.00379491 2.49864e-06
-0.0168198 -1.12938e-21 0.00379491 5.43444e-08
0.0164532 0 0.00518912 7.30417e-06
-0.0164532 2.71051e-20 0.00518915 8.76556e-08
0.0164986 1.35525e-20 0.00547422 8.30119e-06
-0.0164987 -1.35525e-20 0.00547423 1.10225e-07
0.0168074 5.64689e-22 0.00445444 2.21877e-06
-0.0168075 -1.69407e-21 0.00445445 3.29017e-08
0.0165401 0 0.00543898 8.35594e-06
-0.0165402 0 0.00543895 1.10911e-07
0.0171982 -5.42101e-20 0.00274291 5.26197e-06
-0.0171982 -2.71051e-20 0.00274291 1.04787e-07
0.0165561 0 0.00551492 8.5933e-06
-0.0165563 0 0.00551497 1.15674e-07
0.0171475 2.71051e-20 0.00343444 3.78317e-06
-0.0171475 -2.71051e-20 0.00343445 9.79094e-08
0.0165953 0 0.0055426 8.49917e-06
-0.0165954 0 0.00554269 1.12603e-07
0.0166161 0 0.00550297 8.51745e-06
-0.0166163 0 0.00550301 1.1284e-07
-0.0168033 6.27432e-22 0.0051158 7.53627e-08
0.0168033 1.8823e-22 0.00511579 5.86283e-06
0.0166836 -6.77626e-21 0.00560513 8.82281e-06
-0.0166839 6.77626e-21 0.00560526 1.17316e-07
0.0171381 0 0.00410855 2.43626e-06
-0.0171381 -2.71051e-20 0.00410855 5.97991e-08
0.0176356 0 5.15824e-05 2.23197e-05
-0.0176356 6.77626e-21 5.15782e-05 3.0078e-07
0.0176365 0 -8.77031e-19 2.23205e-05
-0.0176365 0 -8.88931e-19 3.00795e-07
0.0176257 1.12938e-21 0.00114318 1.6115e-05
-0.0176257 -2.25875e-21 0.00114318 2.29397e-07
0.017701 0 -1.21685e-20 2.24951e-05
-0.017701 -6.77626e-21 -1.22041e-20 3.03445e-07
-0.0177564 0 5.70417e-05 3.05817e-07
0.0177564 0 5.70455e-05 2.26676e-05
-0.0174948 -7.76447e-22 0.00304301 1.46493e-07
0.0174948 2.11758e-22 0.00304301 5.77151e-06
0.0171005 2.71051e-20 0.0047873 2.04975e-06
-0.0171005 -2.71051e-20 0.00478732 3.19049e-08
-0.01776 6.77626e-21 -1.01851e-20 3.05819e-07
0.01776 6.77626e-21 -1.01509e-20 2.26686e-05
-0.0176226 -2.82344e-22 0.00231708 1.64009e-07
0.0176226 -2.82344e-22 0.00231708 7.87799e-06
0.0168649 6.77626e-21 0.00573339 9.86462e-06
-0.0168651 -2.03288e-20 0.00573345 1.33598e-07
0.0169917 0 0.00554745 1.00832e-05
-0.0169917 0 0.00554751 1.36701e-07
0.0175403 0 0.00368249 4.36901e-06
-0.0175404 -5.64689e-22 0.0036825 1.32548e-07
0.0174309 -2.25875e-21 0.00445118 2.78075e-06
-0.0174309 0 0.00445119 7.76589e-08
0.0170276 1.35525e-20 0.00584853 9.63788e-06
-0.0170277 1.35525e-20 0.00584855 1.48919e-07
0.0173593 -6.77626e-21 0.00515918 4.52447e-06
-0.0173594 1.12938e-21 0.00515919 7.41483e-08
0.0171314 0 0.00592202 9.70367e-06
-0.0171315 0 0.00592208 1.55123e-07
0.0171627 1.35525e-20 0.00588617 9.74487e-06
-0.0171628 0 0.00588621 1.56658e-07
0.017182 0 0.0059579 1.016e-05
-0.0171821 1.35525e-20 0.00595797 1.73097e-07
0.017769 0 0.00410416 4.31346e-06
-0.017769 -2.71051e-20 0.00410417 1.492e-07
0.0182634 5.42101e-20 0.000578938 2.4105e-05
-0.0182635 5.42101e-20 0.000578947 3.29143e-07
0.0173982 0 0.00561201 7.58402e-06
-0.0173983 0 0.00561204 1.25927e-07
0.0172647 0 0.00601703 1.10818e-05
-0.0172648 1.35525e-20 0.00601711 2.08012e-07
0.0173075 0 0.00592612 1.08744e-05
-0.0173076 0 0.00592617 1.9994e-07
0.0182204 0 0.00175681 1.21744e-05
-0.0182204 0 0.0017568 2.28424e-07
0.0177285 0 0.00478171 2.36264e-06
-0.0177285 -2.71051e-20 0.00478172 7.11462e-08
0.0181282 5.42101e-20 0.00306192 8.66607e-06
-0.0181282 -5.42101e-20 0.00306192 2.83325e-07
0.0181211 -1.41172e-22 0.00374048 6.1805e-06
-0.0181211 0 0.00374049 2.3963e-07
0.0177324 0 0.00540773 2.31985e-06
-0.0177324 0 0.00540774 4.5222e-08
0.0174848 0 0.00617228 1.13094e-05
-0.0174849 0 0.00617231 2.36233e-07
0.0175758 0 0.00590988 1.09412e-05
-0.0175758 0 0.00590991 2.25532e-07
0.0180729 0 0.00442474 4.14555e-06
-0.0180729 0 0.00442474 1.71443e-07
0.0175825 0 0.00610033 1.11178e-05
-0.0175826 1.35525e-20 0.00610035 2.32989e-07
0.0175873 1.35525e-20 0.00624642 1.10115e-05
-0.0175873 -1.35525e-20 0.00624645 2.29207e-07
0.018047 -1.69407e-21 0.00508938 2.70066e-06
-0.018047 -5.64689e-22 0.00508939 9.51835e-08
0.017673 0 0.00632952 1.11403e-05
-0.017673 0 0.00632955 2.41381e-07
0.0177234 1.35525e-20 0.00621991 1.09825e-05
-0.0177235 1.35525e-20 0.00621994 2.37068e-07
-0.0188362 0 3.90757e-05 5.27968e-07
0.0188362 -6.77626e-21 3.90717e-05 2.61613e-05
-0.0188376 0 -1.40466e-21 5.27736e-07
0.0188376 0 -1.40183e-21 2.61584e-05
0.0184191 0 0.00406131 6.17615e-06
-0.0184191 2.71051e-20 0.00406131 2.67962e-07
0.0188782 -6.77626e-21 -3.17074e-23 2.62996e-05
-0.0188782 -6.77626e-21 -3.33102e-23 5.38963e-07
0.0188457 5.64689e-22 0.00115779 2.07591e-05
-0.0188458 5.64689e-22 0.00115779 5.04613e-07
0.017989 -1.807e-21 0.0057961 5.99653e-06
-0.017989 -3.16226e-21 0.00579612 1.30717e-07
0.0189173 -6.77626e-21 3.90264e-05 2.64293e-05
-0.0189173 6.77626e-21 3.90289e-05 5.47944e-07
0.0189184 0 -3.96181e-23 2.64297e-05
-0.0189184 6.77626e-21 -4.11348e-23 5.4797e-07
0.0188016 2.82344e-22 0.00239367 1.28786e-05
-0.0188016 -2.82344e-22 0.00239367 5.04951e-07
0.0179168 0 0.00619825 1.07853e-05
-0.0179168 0 0.00619827 2.36505e-07
0.0178342 -1.35525e-20 0.00647801 1.08146e-05
-0.0178343 1.35525e-20 0.00647804 2.47181e-07
0.0183812 0 0.00473969 3.74461e-06
-0.0183812 -2.71051e-20 0.0047397 1.96404e-07
0.0179161 0 0.00640623 1.05966e-05
-0.0179162 -1.35525e-20 0.00640625 2.44347e-07
0.0179071 0 0.00654731 9.87139e-06
-0.0179072 0 0.00654734 2.30569e-07
0.0187899 0 0.00359346 8.29675e-06
-0.0187899 0 0.00359346 4.48955e-07
0.0183614 0 0.0054084 2.43876e-06
-0.0183614 0 0.00540841 7.37419e-08
0.0179797 0 0.00661793 1.01511e-05
-0.0179798 -2.71051e-20 0.00661795 2.56393e-07
0.0180436 0 0.00652843 1.00727e-05
-0.0180436 0 0.00652846 2.5147e-07
0.0187173 4.23516e-22 0.00436434 5.67964e-06
-0.0187173 8.47033e-22 0.00436435 3.29665e-07
0.018177 0 0.00625306 7.7328e-06
-0.0181771 -1.50584e-21 0.00625307 1.82739e-07
0.0181271 -2.71051e-20 0.00676141 9.80487e-06
-0.0181271 1.35525e-20 0.00676144 2.55457e-07
0.0183874 0 0.00602483 2.58821e-06
-0.0183874 2.71051e-20 0.00602484 5.46038e-08
0.0182482 0 0.0065139 9.542e-06
-0.0182482 2.71051e-20 0.00651392 2.50434e-07
0.0187359 5.64689e-22 0.00501818 3.68937e-06
-0.0187359 -7.05861e-23 0.00501818 2.20731e-07
0.0182333 -1.35525e-20 0.00669842 9.63402e-06
-0.0182333 0 0.00669844 2.49827e-07
0.0182171 0 0.00684895 9.53625e-06
-0.0182171 1.35525e-20 0.00684896 2.36089e-07
0.0194643 0 0.000581958 2.85151e-05
-0.0194643 0 0.000581952 7.48956e-07
0.0194401 -5.42101e-20 0.00177497 1.80154e-05
-0.0194401 0 0.00177498 7.10865e-07
0.0186825 2.25875e-21 0.00571617 2.64594e-06
-0.0186825 1.12938e-21 0.00571618 9.90855e-08
0.018308 0 0.00693721 9.8266e-06
-0.018308 0 0.00693723 2.40251e-07
0.018365 1.35525e-20 0.0068251 9.64591e-06
-0.018365 0 0.00682512 2.37663e-07
-0.0191534 -2.71051e-20 0.00414674 5.3425e-07
0.0191534 -2.71051e-20 0.00414674 7.4256e-06
-0.0194225 -5.42101e-20 0.00303969 7.89723e-07
0.0194225 0 0.00303969 1.24158e-05
0.01915 5.42101e-20 0.0045832 5.27844e-06
-0.01915 -2.71051e-20 0.0045832 4.38478e-07
0.0186305 2.71051e-21 0.00640892 5.34657e-06
-0.0186305 1.807e-21 0.00640893 1.35622e-07
-0.0193877 0 0.00369517 6.6451e-07
0.0193894 0 0.00369516 9.04632e-06
0.0185455 2.71051e-20 0.00680227 9.40152e-06
-0.0185455 0 0.00680229 2.29201e-07
0.019012 -2.71051e-20 0.00537772 3.34385e-06
-0.019012 -5.42101e-20 0.00537773 2.0263e-07
0.0184497 -2.71051e-20 0.00707478 9.55858e-06
-0.0184497 1.35525e-20 0.0070748 2.37076e-07
0.018538 1.35525e-20 0.00700334 9.32331e-06
-0.018538 0 0.00700336 2.33869e-07
0.0193613 -1.35525e-20 0.00436274 6.48156e-06
-0.0193613 -1.35525e-20 0.00436274 5.6678e-07
0.0185249 0 0.00714775 8.56047e-06
-0.0185249 -1.35525e-20 0.00714777 2.18477e-07
0.0189858 0 0.0060364 2.23613e-06
-0.0189858 0 0.00603641 7.02739e-08
-0.018601 -1.35525e-20 0.00722166 2.42073e-07
0.018601 -2.71051e-20 0.00722164 8.93586e-06
0.0186688 0 0.00713001 8.83706e-06
-0.0186688 -2.71051e-20 0.00713003 2.37694e-07
-0.0193578 -2.82344e-22 0.00503068 3.99852e-07
0.0193578 1.97641e-21 0.00503068 4.49195e-06
0.0195829 0 0.00413333 7.2856e-06
-0.0195829 -2.71051e-20 0.00413333 6.84153e-07
0.0188026 0 0.00685904 6.73113e-06
-0.0188026 1.50584e-21 0.00685905 1.74222e-07
-0.0200409 0 2.97512e-05 1.66353e-06
0.0200409 0 2.97461e-05 3.30821e-05
-0.0200414 3.38813e-21 5.66129e-24 1.66315e-06
0.0200414 0 5.71142e-24 3.308e-05
0.020072 0 -1.77282e-25 3.3305e-05
-0.020072 0 -1.62872e-25 1.70566e-06
0.0200566 -2.25875e-21 0.00116432 2.74336e-05
-0.0200566 1.69407e-21 0.00116432 1.52527e-06
0.0195648 2.71051e-20 0.00457553 5.99295e-06
-0.0195648 0 0.00457553 6.31198e-07
0.020102 -3.38813e-21 2.93822e-05 3.35048e-05
-0.020102 0 2.93878e-05 1.74395e-06
0.0201024 3.38813e-21 -1.89409e-25 3.35052e-05
-0.0201024 0 -1.75447e-25 1.74405e-06
-0.0187405 0 0.00735704 2.36754e-07
0.0187405 1.35525e-20 0.00735703 8.69909e-06
0.0193209 5.64689e-22 0.0056892 3.14117e-06
-0.0193209 2.25875e-21 0.00568921 2.15486e-07
0.0190162 2.71051e-20 0.00663679 2.165e-06
-0.0190162 2.71051e-20 0.00663679 5.23192e-08
-0.0188683 -2.71051e-20 0.0071162 2.34202e-07
0.0188683 0 0.00711619 8.39941e-06
0.0200437 -1.69407e-21 0.0023892 1.72374e-05
-0.0200437 -1.12938e-21 0.0023892 1.31282e-06
-0.0188522 0 0.00729487 2.30549e-07
0.0188522 2.71051e-20 0.00729486 8.52706e-06
-0.0188339 -1.35525e-20 0.00744773 2.14538e-07
0.018834 0 0.00744773 8.4341e-06
0.0193083 -1.69407e-21 0.00633277 2.26071e-06
-0.0193083 1.69407e-21 0.00633278 8.97672e-08
0.0196626 0 0.00533599 4.28215e-06
-0.0196626 0 0.00533599 4.10861e-07
-0.0189282 0 0.00753925 2.14743e-07
0.0189282 -1.35525e-20 0.00753925 8.74132e-06
-0.018987 -1.35525e-20 0.00742573 2.13184e-07
0.018987 0 0.00742572 8.55892e-06
-0.0200608 -1.12938e-21 0.00364085 1.06678e-06
0.0200608 1.12938e-21 0.00364085 9.92884e-06
0.020005 0 0.0043449 6.8884e-06
-0.020005 0 0.00434489 8.19758e-07
0.0192547 -2.25875e-21 0.0070165 4.65276e-06
-0.0192547 2.71051e-21 0.00701651 1.22409e-07
0.0196313 2.71051e-20 0.00599689 2.72763e-06
-0.0196313 -2.71051e-20 0.0059969 1.82324e-07
-0.0191651 -2.71051e-20 0.00740552 2.02415e-07
0.0191651 2.71051e-20 0.00740552 8.36164e-06
-0.0190667 0 0.00767367 2.06003e-07
0.0190667 -1.35525e-20 0.00767366 8.52105e-06
-0.0191579 -1.35525e-20 0.00760271 2.02258e-07
0.0191579 1.35525e-20 0.0076027 8.2928e-06
0.0191443 2.71051e-20 0.00774906 7.5725e-06
-0.0191443 0 0.00774906 1.85401e-07
-0.0200588 3.38813e-21 0.00492596 6.56153e-07
0.0200588 6.77626e-21 0.00492596 5.37215e-06