# omega  POINT_DATA 33247
# x  y  z  omega
1.35525e-20 -0.0292381 8.09214e-08 1323.74
-1.35525e-20 0.0292381 8.09214e-08 1324.15
0 0.0292381 0.000233485 1275.43
0 -0.0292381 0.000233515 1275
3.38813e-21 0.0292381 0.000430835 1382.04
3.38813e-21 -0.0292381 0.000430882 1381.63
-6.77626e-21 0.029238 0.000663804 1786.6
0 -0.029238 0.000663883 1786.23
0 0.029238 0.00090804 2100.46
0 -0.029238 0.000908135 2100.17
3.38813e-21 0.029238 0.00111509 2277.08
0 -0.029238 0.00111514 2276.81
6.77626e-21 0.0292379 0.00135916 2537.82
-1.35525e-20 -0.029238 0.00135924 2537.59
3.38813e-21 0.0292379 0.00161398 2678.07
3.38813e-21 -0.029238 0.00161406 2678.02
6.77626e-21 0.0292379 0.00183191 2488.53
3.38813e-21 -0.0292379 0.00183193 2488.55
6.77626e-21 0.0292379 0.002087 1762.65
-6.77626e-21 -0.0292379 0.002087 1762.84
6.77626e-21 0.0293159 0.000332872 1307
1.35525e-20 -0.0293159 0.000332922 1306.53
-1.01644e-20 0.0293201 0.00100469 2327.57
0 -0.0293201 0.0010048 2327.23
0 -0.0293199 0.00170033 2894.81
0 0.0293199 0.00170027 2894.89
0 0.0294721 0.000122228 1455.95
1.35525e-20 -0.0294721 0.000122259 1455.41
-1.35525e-20 0.0294728 7.47971e-08 1460.06
0 -0.0294728 7.47973e-08 1459.52
0 0.0294797 0.000527865 1845.49
1.35525e-20 -0.0294797 0.000527979 1844.99
0 0.0294753 0.0007964 2254.17
0 -0.0294753 0.000796545 2253.7
0 0.0294755 0.00118677 2840.78
-2.03288e-20 -0.0294755 0.00118694 2840.35
-6.77626e-21 0.0294683 0.00147423 3077.05
1.35525e-20 -0.0294683 0.00147436 3076.73
6.77626e-21 0.0294625 0.00186313 2486.72
-1.35525e-20 -0.0294625 0.00186321 2486.87
2.71051e-20 -0.029578 6.6417e-08 1433.64
0 0.029578 6.64162e-08 1434.35
1.35525e-20 -0.0295009 0.00213468 1572.99
-6.77626e-21 0.0295009 0.00213468 1572.45
1.35525e-20 0.029587 0.000650923 1859.53
-2.71051e-20 -0.029587 0.000651142 1850.9
1.35525e-20 0.0295378 0.00203788 1836.47
0 -0.0295378 0.00203791 1836.97
0 0.0295841 0.00130575 2590.71
-1.35525e-20 -0.0295841 0.001306 2570.54
0 0.0295849 0.00192062 1955.99
6.77626e-21 -0.0295849 0.00192072 1940.61
0 0.029649 0.00216152 1848.88
0 -0.029649 0.00216153 1849.23
0 0.0297926 0.000963737 2992.1
4.51751e-22 -0.0297926 0.000964021 2988.8
0 0.0298094 7.62576e-08 1729.28
0 -0.0298094 7.62593e-08 1728.56
-2.25875e-22 -0.0298204 0.000317605 1694.14
6.77626e-22 0.0298204 0.000317475 1695.45
4.96926e-21 0.0297852 0.00156831 3583.41
-3.16226e-21 -0.0297852 0.00156853 3577.67
5.64689e-22 0.0297946 0.00197119 2008.29
0 -0.0297946 0.00197126 2008.89
0 -0.0298851 8.57398e-08 1645.17
6.77626e-21 0.0298851 8.57415e-08 1645.85
6.77626e-21 0.0298185 0.00219226 1519.27
-6.77626e-21 -0.0298186 0.00219226 1520.02
0 -0.0299229 0.00221118 1650.77
-1.35525e-20 0.0299229 0.00221118 1650.47
0 -0.0300583 1.01025e-07 1268.52
0 0.0300583 1.01025e-07 1269.29
-9.03502e-21 0.030042 0.00125425 1746.72
-9.03502e-21 -0.0300421 0.00125455 1739.46
2.90411e-21 0.030023 0.00171056 1792.13
0 -0.0300231 0.00171076 1786.42
9.03502e-21 0.0300766 0.000656709 1403.13
-1.35525e-20 -0.0300766 0.000656982 1401.14
0 0.0301411 0.00011795 1220.74
1.35525e-20 -0.0301411 0.000118016 1220.05
0 0.0301431 9.36971e-08 1220.46
-6.77626e-21 -0.0301431 9.3695e-08 1219.77
0 -0.0300722 0.00223824 1191.91
-1.35525e-20 0.0300722 0.00223824 1191.47
1.35525e-20 -0.0302709 0.000327948 1109.53
0 0.0302709 0.000327843 1110.08
0 0.0302588 0.000959241 1360.12
0 -0.0302588 0.000959456 1356.03
0 0.0302233 0.00199378 1220.92
-2.25875e-21 -0.0302233 0.00199385 1221.22
0 0.0302514 0.00155263 1524.16
0 -0.0302514 0.00155281 1522.58
0 0.0303943 0.00229664 1208.86
-6.77626e-21 -0.0303944 0.00229665 1209.12
0 -0.0305071 4.03816e-05 1012.7
3.38813e-21 0.0305071 4.03474e-05 1013.16
0 -0.0305084 2.78803e-08 1012.22
0 0.0305085 2.78785e-08 1012.69
0 -0.0305355 2.44804e-08 984.453
3.38813e-21 0.0305355 2.44805e-08 984.933
6.77626e-21 0.030464 0.00230926 1267.16
-6.77626e-21 -0.030464 0.00230927 1267.34
3.38813e-21 0.0305559 2.56048e-08 978.588
-3.38813e-21 -0.0305559 2.56052e-08 978.117
3.38813e-21 0.0305566 2.16906e-05 978.567
-3.38813e-21 -0.0305566 2.17043e-05 978.096
-2.82344e-22 -0.0305496 0.000656519 972.399
2.11758e-22 0.0305496 0.000656265 975.764
1.8823e-22 0.0305132 0.00170673 1112.85
-5.64689e-22 -0.0305132 0.00170684 1110.85
7.90564e-22 0.0305476 0.0012451 1026.8
5.64689e-22 -0.0305476 0.00124527 1022.09
-6.77626e-21 -0.030501 0.00231597 1205.15
0 0.030501 0.00231597 1204.97
-3.38813e-21 0.0306237 3.57384e-08 975.683
0 -0.0306238 3.57449e-08 975.214
3.38813e-21 -0.0306099 0.00219282 1104.64
3.38813e-21 0.03061 0.00219278 1104.48
0 -0.0307226 0.00235616 1172.39
-3.38813e-21 0.0307226 0.00235617 1172.32
0 -0.0308383 0.000320955 879.081
2.71051e-20 0.0308384 0.000320914 879.45
5.64689e-21 0.0308116 0.00198362 892.014
-1.12938e-21 -0.0308116 0.00198366 891.174
0 -0.0309907 0.00101963 594.102
2.71051e-21 0.0309907 0.00101953 615.28
4.51751e-21 0.0309922 0.00150601 617.573
-4.51751e-21 -0.0309923 0.00150608 596.617
-1.35525e-20 0.0310395 9.17131e-08 903.941
2.71051e-20 -0.0310395 9.1716e-08 903.559
0 0.0310416 0.000119385 901.052
0 -0.0310416 0.000119381 900.668
-6.77626e-21 -0.030965 0.0024001 1131.37
6.77626e-21 0.030965 0.0024001 1131.44
0 -0.030982 0.00237275 1116.11
-6.77626e-21 0.030982 0.00237274 1116.19
0 0.0310105 0.00240831 1131.61
0 -0.0310105 0.00240831 1131.51
0 0.0310179 0.00233593 1033.75
2.03288e-20 -0.0310179 0.00233593 1032.74
0 -0.0311223 0.000639295 710.389
0 0.0311223 0.000639241 730.821
0 0.0310526 0.00237695 1095.95
-6.77626e-21 -0.0310526 0.00237695 1095.84
0 -0.0311459 9.7154e-08 939.083
-1.35525e-20 0.0311459 9.7152e-08 939.456
0 0.031071 0.00241925 1103.8
6.77626e-21 -0.031071 0.00241926 1103.67
2.71051e-20 0.0312091 0.00177617 895.949
2.71051e-20 -0.0312091 0.0017762 864.906
2.71051e-20 0.0312491 0.00122874 696.358
0 -0.0312491 0.00122879 655.051
0 -0.0312858 8.40769e-08 918.851
-1.35525e-20 0.0312858 8.40688e-08 919.238
0 -0.0312917 0.000133801 917.417
0 0.0312917 0.000133814 917.809
2.25875e-21 0.0313889 0.00201505 775.254
2.25875e-21 -0.0313889 0.00201507 771.558
0 0.0313959 0.00247812 1164.84
0 -0.0313959 0.00247812 1164.6
4.51751e-21 -0.0314932 0.000408813 818.611
-9.03502e-21 0.0314932 0.000408772 827.213
-4.51751e-21 -0.0315059 0.00091593 401.531
0 0.0315059 0.000915908 421.797
0 0.0314281 0.00241767 1163.42
-1.35525e-20 -0.0314281 0.00241768 1163.18
-4.51751e-21 0.0315016 0.00151821 412.945
0 -0.0315016 0.00151824 390.943
2.71051e-20 -0.0314985 0.00234892 1038.24
0 0.0314986 0.00234891 1041.84
-1.35525e-20 -0.0315086 0.00249848 1281.96
0 0.0315086 0.00249848 1282.23
1.35525e-20 0.0316957 0.000127101 863.079
-1.35525e-20 -0.0316957 0.000127026 862.697
-1.35525e-20 0.0316993 1.28444e-08 863.188
0 -0.0316993 1.28328e-08 862.809
2.71051e-20 -0.0317724 0.000610912 585.806
-2.71051e-20 0.0317724 0.000610901 597.701
0 -0.0317679 0.00121736 342.777
-2.71051e-20 0.0317679 0.00121735 364.722
0 0.0317537 0.00187034 716.534
0 -0.0317537 0.00187034 697.079
4.06576e-20 -0.0317094 0.00253469 1453.29
-2.71051e-20 0.0317094 0.00253469 1453.57
-1.35525e-20 -0.0318341 3.55441e-10 864.24
0 0.0318342 3.5764e-10 864.591
-1.8823e-22 -0.0317532 0.00228382 1365.69
0 0.0317532 0.0022838 1366.12
0 -0.0319513 4.55602e-10 850.283
0 0.0319515 4.57813e-10 850.65
0 -0.0319524 0.000127644 849.543
-1.35525e-20 0.0319526 0.000127724 849.914
-1.35525e-20 0.031883 0.00256626 1773.4
0 -0.031883 0.00256626 1773.16
-4.51751e-21 -0.0319995 0.000914652 300.079
-9.03502e-21 0.0319996 0.000914645 314.595
-8.13152e-21 -0.0320112 0.000400526 756.27
1.0842e-20 0.0320112 0.000400506 761.011
-1.12938e-21 -0.0320267 0.00227715 1466.55
-2.25875e-21 0.0320267 0.00227715 1486.86
0 0.0320296 0.00251389 2120.62
0 -0.0320296 0.00251388 2120.42
-9.03502e-21 -0.0320975 0.00153751 276.797
9.03502e-21 0.0320975 0.0015375 292.412
0 -0.0320426 0.00259527 2248.31
6.77626e-21 0.0320426 0.00259528 2248.51
4.51751e-21 0.0321203 0.00203456 720.173
4.51751e-21 -0.0321203 0.00203456 666.369
0 -0.032135 0.0023896 2162.37
0 0.032135 0.0023896 2162.57
0 0.0322923 0.000126396 822.139
0 -0.0322923 0.000126368 821.682
-1.35525e-20 0.0323016 2.23509e-09 822.018
0 -0.0323016 2.23359e-09 821.563
0 -0.0322106 0.00262564 2320.05
-1.35525e-20 0.0322106 0.00262563 2320.27
0 -0.0322719 0.00254337 2201.75
-1.35525e-20 0.0322719 0.00254337 2201.97
1.35525e-20 -0.032418 2.33105e-09 827.42
1.35525e-20 0.032418 2.33258e-09 827.878
2.25875e-21 -0.0324263 0.000612636 513.596
2.25875e-21 0.0324263 0.000612628 519.435
-4.51751e-21 0.0324222 0.00112458 205
-1.807e-20 -0.0324222 0.0011246 193.901
0 0.0324121 0.00187572 547.12
2.71051e-20 -0.0324121 0.00187572 531.454
0 -0.0323802 0.00265647 1833.35
1.35525e-20 0.0323802 0.00265646 1833.64
0 0.0324114 0.0022971 1396.59
-1.69407e-21 -0.0324114 0.0022971 1381.47
0 -0.032547 2.20758e-09 835.605
0 0.032547 2.20888e-09 836.085
0 -0.0325489 0.000125731 835.602
1.35525e-20 0.0325489 0.000125761 836.081
-1.35525e-20 0.0326034 0.00269726 1964.5
0 -0.0326035 0.00269726 1964.17
-1.35525e-20 -0.032737 0.000308379 842.061
-2.71051e-20 0.032737 0.000308371 842.572
9.03502e-21 -0.0327282 0.00154847 219.328
0 0.0327282 0.00154846 234.133
0 0.0326738 0.00254252 1839.47
-9.03502e-21 -0.0326738 0.00254252 1839.16
9.03502e-21 0.0327075 0.00206802 536.281
4.51751e-21 -0.0327075 0.00206803 526.351
-6.77626e-21 -0.0327081 0.00271619 1916.18
0 0.0327081 0.00271619 1916.49
-4.51751e-21 0.0328421 0.000917798 243.429
0 -0.0328421 0.00091781 233.578
-1.35525e-20 -0.0328866 1.93643e-09 852.354
0 0.0328867 1.93676e-09 852.89
-1.35525e-20 -0.032889 0.00014943 852.353
1.35525e-20 0.032889 0.00014945 852.889
1.93608e-21 0.0329824 0.000542139 630.97
1.54886e-20 -0.0329825 0.000542161 626.695
-2.71051e-20 -0.0330372 1.79015e-09 855.396
0 0.0330372 1.79024e-09 855.951
0 0.0329464 0.00275986 1448.51
2.71051e-20 -0.0329464 0.00275986 1448.18
-2.25875e-22 -0.0329866 0.00235418 1154.1
5.64689e-22 0.0329866 0.00235417 1160.95
-2.71051e-20 0.0330505 0.0012313 173.652
0 -0.0330505 0.00123132 160.88
0 0.03302 0.00190093 438.128
0 -0.03302 0.00190094 427.533
0 -0.0332006 2.02157e-09 859.924
0 0.0332007 2.02156e-09 860.509
-6.77626e-21 -0.0333521 0.000302632 795.333
0 0.0333521 0.00030262 797.061
2.25875e-21 0.0333579 0.000916518 238.222
-4.51751e-21 -0.0333579 0.000916545 228.374
-3.38813e-21 0.0332515 0.00281589 1669.12
3.38813e-21 -0.0332516 0.00281589 1668.94
4.51751e-21 -0.0333432 0.00156301 173.658
0 0.0333432 0.00156299 190.868
0 0.0332953 0.00276465 1703.09
0 -0.0332954 0.00276461 1702.96
-3.72694e-20 0.0333124 0.00282716 1673.08
3.38813e-21 -0.0333125 0.00282717 1672.91
1.12938e-20 0.03334 0.00259894 1618.26
6.77626e-21 -0.03334 0.00259895 1617.08
9.03502e-21 0.0333776 0.00214933 503.686
1.12938e-20 -0.0333776 0.00214934 483.321
0 -0.0334909 2.97183e-09 867.25
-1.35525e-20 0.0334909 2.97138e-09 867.878
0 -0.0336619 3.20036e-09 872.02
2.71051e-20 0.033662 3.19979e-09 872.658
0 0.0336674 0.000602348 524.014
0 -0.0336674 0.000602386 518.312
0 0.0336288 0.00191783 376.984
0 -0.0336288 0.00191785 361.235
2.71051e-20 0.0336642 0.00123333 150.442
2.71051e-20 -0.0336642 0.00123337 137.738
-2.71051e-20 0.0335882 0.00287788 1471.04
0 -0.0335883 0.00287789 1470.77
2.71051e-20 0.0336882 0.00242285 1068.1
2.71051e-20 -0.0336882 0.00242287 1055.45
0 -0.0338384 2.82135e-09 873.048
0 0.0338384 2.82081e-09 873.703
-1.35525e-20 0.0338118 0.00291884 1376.14
0 -0.0338119 0.00291885 1375.88
-2.25875e-21 -0.0339781 0.000302716 804.704
2.25875e-21 0.0339781 0.000302698 806.365
-2.25875e-21 -0.0339808 0.000914847 221.143
-4.51751e-21 0.0339808 0.000914783 230.004
0 0.0339744 0.00155885 151.85
4.51751e-21 -0.0339744 0.0015589 138.237
-2.03288e-21 0.0339479 0.0026773 1377.69
1.12938e-21 -0.033948 0.00267732 1376.77
0 0.0339878 0.00215892 413.593
2.25875e-21 -0.0339878 0.00215894 408.574
-1.35525e-20 0.0341105 1.81896e-09 878.083
0 -0.0341105 1.81909e-09 877.347
0 0.034033 0.00295946 1353.01
6.77626e-21 -0.0340333 0.00295951 1352.64
0 -0.0342884 1.43974e-09 885.935
2.71051e-20 0.0342884 1.43965e-09 886.729
0 -0.0342943 0.000599028 523.586
0 0.0342944 0.000598959 528.746
4.06576e-20 0.0342165 0.00299309 1412.13
1.35525e-20 -0.0342167 0.00299313 1411.61
2.71051e-20 0.0342949 0.00244902 949.181
2.71051e-20 -0.0342949 0.00244904 933.213
1.16165e-20 -0.034362 0.00129523 110.869
-1.16165e-20 0.034362 0.00129516 122.292
0 -0.0343655 0.00179195 150.209
-9.68038e-21 0.0343655 0.00179189 168.189
0 0.0343332 0.00301467 1157.39
0 -0.0343333 0.00301469 1156.98
-1.35525e-20 -0.0344682 1.2841e-09 889.619
2.71051e-20 0.0344682 1.284e-09 890.479
-4.51751e-21 -0.0345084 0.000909544 215.477
1.35525e-20 0.0345085 0.000909463 224.057
4.51751e-21 0.0345181 0.00215903 345.504
-1.35525e-20 -0.0345181 0.00215907 332.899
0 -0.0346072 0.000300839 821.858
-2.25875e-21 0.0346072 0.000300792 823.662
0 0.0346152 0.0015431 99.1678
2.71051e-20 -0.0346152 0.00154318 86.2467
-4.51751e-22 0.0345577 0.00272973 961.138
-6.77626e-22 -0.0345578 0.00272972 960.006
-6.77626e-21 0.0345982 0.00306315 1169.18
0 -0.0345983 0.00306318 1168.63
-1.35525e-20 0.0347357 9.21209e-10 904.913
-1.35525e-20 -0.0347357 9.21261e-10 903.987
6.77626e-21 0.0346817 0.0030786 1309.34
-6.77626e-21 -0.0346818 0.00307861 1308.73
0 -0.0349166 7.64663e-10 923.917
0 0.0349166 7.64607e-10 924.844
9.03502e-21 -0.0349264 0.000691229 390.504
9.03502e-21 0.0349264 0.000691147 397.342
9.03502e-21 0.0349292 0.00121456 127.708
2.25875e-21 -0.0349292 0.00121466 116.887
2.25875e-21 0.0349324 0.00185908 146.821
-2.25875e-21 -0.0349324 0.00185915 134.662
-3.04932e-20 0.0348918 0.00311689 1521.91
3.38813e-21 -0.0348919 0.00311691 1521.28
-9.03502e-21 0.0349974 0.00246603 720.256
-4.51751e-21 -0.0349975 0.00246604 697.625
-1.35525e-20 -0.0350985 7.00968e-10 931.15
-2.71051e-20 0.0350985 7.00918e-10 932.081
0 0.0350013 0.00286026 1489.62
-4.51751e-21 -0.0350014 0.00286027 1486.85
6.77626e-21 -0.0352407 0.000295921 856.706
4.51751e-21 0.0352407 0.000295875 858.681
0 0.0352487 0.000893704 162.388
2.71051e-20 -0.0352487 0.000893811 152.23
3.38813e-20 0.0351346 0.00316138 2008.87
-1.52466e-20 -0.0351347 0.0031614 2008.56
-2.71051e-20 0.0352503 0.00152796 87.8325
2.71051e-20 -0.0352503 0.00152806 76.9361
0 0.0351466 0.00316358 2014.89
0 -0.0351467 0.00316359 2014.55
0 0.0351792 0.00281931 1549.72
-1.35525e-20 -0.0351793 0.00281933 1531.96
1.69407e-21 0.0351514 0.0031503 2011.26
0 -0.0351514 0.0031504 2010.94
0 0.0352563 0.002173 170.651
0 -0.0352563 0.00217304 161.78
0 -0.0352268 0.00317818 2021.65
-8.47033e-22 0.0352273 0.00317828 2022.04
-1.35525e-20 0.0353735 5.21769e-10 949.728
0 -0.0353735 5.21782e-10 948.793
6.77626e-21 0.0353094 0.00290198 1781.15
1.35525e-20 -0.0353094 0.00290198 1762.83
-2.71051e-20 -0.0355533 4.57347e-10 982.655
-2.71051e-20 0.0355533 4.57338e-10 983.575
4.51751e-21 0.0355671 0.001196 127.098
0 -0.0355671 0.00119611 115.096
0 0.0355696 0.00184888 122.401
-2.25875e-21 -0.0355696 0.00184895 110.357
2.25875e-21 -0.0356125 0.00062238 520.446
-4.51751e-21 0.0356125 0.0006223 527.511
1.12938e-20 0.0355744 0.00250526 604.046
-2.25875e-21 -0.0355744 0.00250528 581.203
0 -0.0355282 0.0032331 2131.39
-6.77626e-21 0.0355283 0.0032331 2131.54
0 -0.0355416 0.00321426 2104.86
0 0.0355417 0.00321429 2105.06
4.51751e-21 0.0355809 0.00287392 1445.1
-4.51751e-21 -0.0355809 0.00287394 1431.24
-3.38813e-21 0.0355739 0.00316255 1912.81
-3.38813e-21 -0.0355739 0.00316242 1907.77
0 -0.035567 0.00324017 2011.74
6.77626e-21 0.035567 0.00324016 2012.12
0 -0.0357313 4.0682e-10 986.827
2.71051e-20 0.0357313 4.06801e-10 987.746
0 0.0356067 0.00321938 2031.18
6.77626e-21 -0.0356068 0.00321935 2030.85
0 0.03562 0.00324983 2033.75
-3.38813e-21 -0.0356201 0.00324986 2033.41
4.51751e-21 -0.0358767 0.000193584 995.089
-1.35525e-20 0.0358767 0.000193565 996.001
0 0.035885 0.00087563 171.972
-2.71051e-20 -0.035885 0.000875722 158.24
2.71051e-20 0.0358905 0.00150745 83.2596
-2.71051e-20 -0.0358906 0.00150754 70.0058
0 0.035888 0.00216762 142.856
0 -0.035888 0.00216766 126.801
0 0.0358662 0.00295245 1351.31
-1.35525e-20 -0.0358662 0.00295245 1347.82
1.35525e-20 0.0360202 2.4784e-10 1006.14
1.35525e-20 -0.0360202 2.47859e-10 1005.24
6.77626e-21 -0.036024 0.00332349 1772.45
0 0.0360241 0.0033235 1772.69
0 -0.0361958 1.9684e-10 1051.83
-2.71051e-20 0.0361958 1.96811e-10 1052.7
6.77626e-21 -0.0362011 0.000563603 603.39
-2.25875e-21 0.0362011 0.00056354 610.718
-1.35525e-20 -0.03606 0.0032691 1724.96
-2.71051e-20 0.03606 0.00326916 1725.26
9.03502e-21 0.036206 0.00117906 129.154
-4.51751e-21 -0.036206 0.00117914 115.043
0 0.0362044 0.00184432 109.863
-2.25875e-21 -0.0362045 0.00184437 93.1797
6.77626e-21 0.0361886 0.0025326 461.193
0 -0.0361886 0.0025326 444.823
0 0.0361316 0.00334311 1556.36
0 -0.0361316 0.00334312 1555.85
-4.51751e-21 0.0361686 0.00293576 1143.78
-6.77626e-21 -0.0361686 0.00293578 1136.78
-1.35525e-20 0.0361566 0.00314793 1394.76
0 -0.0361566 0.00314778 1390.19
2.71051e-20 -0.0363723 1.67552e-10 1037.52
-2.71051e-20 0.0363723 1.67523e-10 1038.36
0 0.0362561 0.00328629 1645.87
0 -0.0362563 0.00328625 1645.49
-6.77626e-21 0.0363064 0.00337495 1674.35
6.77626e-21 -0.0363066 0.003375 1674.01
9.03502e-21 -0.0365138 0.000190575 1042.51
-9.03502e-21 0.0365138 0.000190566 1043.34
2.71051e-20 0.0365218 0.000862039 177.631
0 -0.0365218 0.000862106 163.041
2.71051e-20 0.0365244 0.00149871 80.6128
-2.71051e-20 -0.0365244 0.00149876 65.4376
2.71051e-20 0.0365144 0.00218215 129.983
-2.71051e-20 -0.0365144 0.00218218 106.791
4.06576e-20 0.0364787 0.00289846 776.019
0 -0.0364787 0.00289841 759.942
-1.35525e-20 0.0366527 8.42396e-11 1050.96
1.35525e-20 -0.0366527 8.42454e-11 1050.15
-8.13152e-21 0.036569 0.00323497 1608.79
8.13152e-21 -0.036569 0.00323494 1608.38
1.35525e-20 -0.0365533 0.00341998 1730.14
2.71051e-20 0.0365534 0.00341998 1730.58
6.77626e-21 0.0367898 0.00059899 573.843
1.807e-20 -0.0367898 0.000599027 564.814
-2.71051e-20 -0.0368341 5.55828e-11 1106.33
-2.71051e-20 0.0368341 5.55766e-11 1107.13
-4.51751e-21 0.0368407 0.00116982 130.572
2.25875e-21 -0.0368407 0.00116987 115.178
-2.25875e-21 0.0368347 0.0018451 98.8948
-4.51751e-21 -0.0368347 0.00184514 81.2658
-2.25875e-21 0.0368044 0.00255426 400.622
6.77626e-21 -0.0368045 0.00255425 378.791
-2.71051e-20 0.0367776 0.00346083 1592.2
2.71051e-20 -0.0367778 0.00346085 1591.58
2.71051e-21 -0.0368391 0.00303501 1163.19
-4.06576e-21 0.0368391 0.00303502 1177.38
-1.35525e-20 -0.0370199 4.78266e-11 1067.37
-2.71051e-20 0.0370199 4.78194e-11 1068.16
4.51751e-21 -0.0371489 0.000281532 974.829
-2.25875e-21 0.0371489 0.000281513 977.131
0 0.0371548 0.000855733 181.478
0 -0.0371548 0.000855772 165.478
0 0.0371549 0.00149544 78.1655
0 -0.0371549 0.00149548 62.2402
0 0.037144 0.00218136 105.345
2.71051e-20 -0.0371441 0.00218137 88.5947
-3.38813e-20 0.0370561 0.00351158 1458.2
-3.38813e-21 -0.0370564 0.00351163 1457.4
1.35525e-20 -0.03727 2.98601e-11 1074.31
0 0.0372701 2.98577e-11 1075.06
-2.71051e-20 0.0371711 0.00278346 354.236
-2.71051e-20 -0.0371712 0.00278344 310.114
1.35525e-20 -0.0371161 0.00352251 1469.31
-1.01644e-20 0.0371162 0.00352254 1470.19
-4.51751e-21 0.0371348 0.00333234 1603.21
9.03502e-21 -0.0371348 0.00333228 1602.46
0 -0.0374605 2.2222e-11 1138.69
-2.71051e-20 0.0374606 2.22185e-11 1139.42
9.03502e-21 -0.0374674 0.000637921 471.204
-9.03502e-21 0.0374674 0.000637907 484.073
0 0.0374702 0.00116479 132.278
-2.25875e-21 -0.0374702 0.00116482 115.074
0 0.0374664 0.00184005 88.6648
-5.64689e-21 -0.0374664 0.00184006 71.6349
3.38813e-21 0.0374681 0.0024973 204.95
-1.12938e-21 -0.0374682 0.00249729 181.333
-6.77626e-21 0.0374674 0.00307432 1023.99
-5.64689e-21 -0.0374674 0.00307432 1012.29
0 0.0374247 0.00357873 1604.43
-1.35525e-20 -0.0374247 0.00357874 1603.71
1.35525e-20 -0.0376529 1.86798e-11 1084.8
-1.35525e-20 0.0376529 1.86765e-11 1085.48
-9.03502e-21 -0.0377742 0.000280176 991.884
4.51751e-21 0.0377742 0.000280173 994.211
2.71051e-20 -0.0377819 0.000851964 167.235
0 0.0377819 0.000851941 187.073
0 0.0377837 0.0014916 76.9215
2.71051e-20 -0.0377837 0.00149162 59.8586
-6.77626e-21 -0.03766 0.00362143 1090.27
0 0.0376601 0.00362145 1090.76
0 0.0377819 0.00216984 94.0469
-2.71051e-20 -0.0377819 0.00216984 75.3411
0 0.0377772 0.00279747 239.657
-2.71051e-20 -0.0377773 0.00279747 228.735
-1.35525e-20 -0.0378849 1.07515e-11 1092.61
4.06576e-20 0.0378849 1.07501e-11 1093.29
-6.77626e-21 0.0377229 0.00353539 1015.13
6.77626e-21 -0.0377229 0.00353515 1014.41
-2.25875e-21 -0.0377798 0.00335648 1119.57
5.64689e-21 0.0377798 0.00335651 1121.57
6.77626e-21 0.0377787 0.00364282 1037.73
0 -0.0377788 0.00364285 1037.06
-2.71051e-20 -0.0380777 7.23339e-12 1161.27
0 0.0380777 7.23213e-12 1161.98
0 -0.0380891 0.000630768 484.472
0 0.0380891 0.000630766 497.575
0 -0.0380959 0.00115845 115.412
0 0.0380959 0.00115844 133.338
7.90564e-21 0.0380968 0.00183414 82.9468
-2.25875e-21 -0.0380968 0.00183414 64.5341
0 -0.0379953 0.00368205 1195.66
2.71051e-20 0.0379953 0.00368205 1196.46
0 0.0380943 0.00250914 162.965
-1.12938e-21 -0.0380943 0.00250913 144.792
0 0.0380786 0.00304222 674.749
-9.03502e-21 -0.0380786 0.00304218 665.397
1.35525e-20 -0.0382651 6.08614e-12 1110.04
-2.71051e-20 0.0382652 6.08489e-12 1110.77
-6.77626e-21 -0.0381487 0.00370985 949.261
6.77626e-21 0.0381488 0.00370987 949.973
6.77626e-21 -0.0383423 0.000233977 1051.45
0 0.0383424 0.000233978 1053.28
0 -0.0384028 0.00084336 170.389
2.71051e-20 0.0384028 0.000843355 187.227
0 0.03841 0.00148269 76.4661
0 -0.03841 0.0014827 58.3717
0 0.0384072 0.00217157 84.845
2.71051e-20 -0.0384072 0.00217157 64.8053
-3.16226e-21 0.0383454 0.00341258 895.974
0 -0.0383454 0.00341256 892.857
0 -0.0385068 3.26132e-12 1132.84
-1.35525e-20 0.0385068 3.26128e-12 1133.57
2.71051e-20 0.0384087 0.00283772 218.226
0 -0.0384087 0.0028377 196.157
1.35525e-20 0.0383426 0.00374466 992.659
-1.35525e-20 -0.0383427 0.00374467 991.943
1.35525e-20 -0.0384724 0.00376815 1204.56
1.35525e-20 0.0384725 0.00376815 1205.45
0 -0.038689 2.10775e-12 1215.1
0 0.038689 2.10772e-12 1215.83
-4.51751e-21 -0.0387011 0.000532416 688.923
9.03502e-21 0.0387011 0.000532409 700.21
2.25875e-21 -0.0387193 0.00114095 117.554
4.51751e-21 0.0387193 0.00114095 137.425
1.12938e-21 -0.0387248 0.0018202 58.8188
-3.38813e-21 0.0387248 0.00182019 76.3864
-5.64689e-21 0.0387232 0.00251582 137.022
2.25875e-21 -0.0387232 0.00251581 120.274
-2.71051e-20 0.0386563 0.00380883 1407.63
-1.35525e-20 -0.0386564 0.00380883 1406.85
1.35525e-20 -0.0388555 1.85419e-12 1189.38
0 0.0388556 1.85403e-12 1190.13
-1.35525e-20 0.0386904 0.00364444 1411.81
1.35525e-20 -0.0386905 0.0036444 1411.05
1.12938e-21 0.0387735 0.00324347 861.548
3.95282e-21 -0.0387735 0.00324347 840.624
-8.13152e-21 -0.0389089 0.000183069 1192.06
-1.0842e-20 0.038909 0.000183082 1192.8
0 -0.0390203 0.000818137 178.425
-2.71051e-20 0.0390203 0.000818137 206.154
1.35525e-20 0.0388759 0.00384263 1862.81
6.77626e-21 -0.0388759 0.00384264 1862.19
0 -0.0390392 0.00145468 57.3754
0 0.0390393 0.00145468 74.4791
0 0.0390375 0.00215229 70.2554
2.71051e-20 -0.0390375 0.00215229 55.0259
0 -0.0389282 0.00385221 1895.93
0 0.0389282 0.00385223 1896.65
0 -0.038953 0.00379144 1880.35
3.38813e-21 0.0389531 0.00379134 1881.05
-2.71051e-20 0.0390404 0.00284543 161.967
2.71051e-20 -0.0390404 0.00284542 153.094
0 -0.0391597 9.05541e-13 1281.39
0 0.0391598 9.0537e-13 1282.03
1.35525e-20 -0.0391706 0.00011479 1282.91
0 0.0391707 0.000114814 1283.55
0 0.0391098 0.0036138 1697.44
-2.25875e-21 -0.0391098 0.00361378 1686.98
0 -0.0393055 6.51231e-13 1398.56
-1.35525e-20 0.0393056 6.50934e-13 1399.13
3.38813e-21 -0.0393117 0.000500471 800.023
2.25875e-21 0.0393118 0.000500466 800.971
-1.12938e-21 -0.0393491 0.00108814 131.118
3.38813e-21 0.0393492 0.00108814 142.631
-1.12938e-21 -0.0393637 0.00177668 55.9594
2.25875e-21 0.0393637 0.00177668 73.489
1.35525e-20 -0.0394217 8.75992e-05 1429.32
0 0.0394218 8.76205e-05 1429.82
-1.35525e-20 -0.0394265 6.04603e-13 1425.54
-1.35525e-20 0.0394267 6.044e-13 1426.04
2.25875e-21 -0.0393554 0.00250019 95.2349
6.77626e-21 0.0393554 0.0025002 108.568
0 -0.0392485 0.0039119 1930.4
-8.47033e-22 0.039249 0.00391199 1931.12
-3.16226e-21 0.0393554 0.00323491 697.014
0 -0.0393554 0.0032349 673.298
1.69407e-21 -0.03933 0.00392844 1963.81
0 0.03933 0.00392844 1964.35
0 -0.0393346 0.0039231 1954.93
0 0.0393346 0.00392312 1955.52
1.69407e-21 -0.0393412 0.00393112 1932.68
0 0.0393412 0.00393111 1933.38
-1.69407e-21 -0.0393435 0.00390963 1904.07
0 0.0393435 0.00390973 1906.3
1.69407e-21 0.039353 0.00392505 1934.99
0 -0.0393531 0.00392504 1934.3
1.69407e-21 0.0393594 0.00393583 1935.46
-1.69407e-21 -0.0393595 0.00393586 1934.78
-2.71051e-20 -0.0396051 0.000230853 1512.9
-2.71051e-20 0.0396052 0.000230855 1513.29
0 -0.0396385 0.000745418 219.069
0 0.0396385 0.000745416 195.071
2.71051e-20 -0.0396943 0.00136798 63.437
2.71051e-20 0.0396943 0.00136799 87.0639
2.71051e-20 0.0396773 0.00211516 63.1225
2.71051e-20 -0.0396773 0.00211516 48.574
-1.35525e-20 -0.0395841 0.00366052 1333.72
-7.7443e-21 0.0395841 0.00366052 1340.85
2.71051e-20 0.0396652 0.00283591 131.99
-2.71051e-20 -0.0396652 0.0028359 116.428
-6.02335e-21 -0.0398974 0.000433621 877.968
-1.50584e-21 0.0398975 0.000433615 873.687
0 -0.0397727 0.00404312 1660.79
-1.35525e-20 0.0397728 0.00404312 1661.45
0 -0.0398264 0.00397879 1585.09
0 0.0398264 0.0039788 1585.79
1.05879e-22 -0.0400317 5.26959e-07 1177.05
1.05879e-22 0.0400329 3.79511e-07 1177.81
3.38813e-21 -0.0400248 0.000878079 295.133
3.57636e-21 0.0400249 0.000878071 302.269
0 -0.0400178 0.0017144 59.3405
2.35287e-22 0.0400178 0.0017144 77.6074
-2.25875e-21 0.0399831 0.00248337 93.9827
-3.38813e-21 -0.0399831 0.00248337 77.5685
-4.51751e-21 0.0399582 0.00322784 450.36
0 -0.0399582 0.00322782 438.101
3.38813e-21 0.0399279 0.00368209 1079.81
-3.38813e-21 -0.0399279 0.00368208 1075.41
1.35525e-20 0.0399097 0.0040785 1529.54
0 -0.0399097 0.0040785 1528.82
0 0.0400592 0.00398574 1405.58
0 -0.0400592 0.00398573 1404.81
0 -0.0403283 0.00130607 66.3414
2.71051e-20 0.0403283 0.00130608 86.771
0 -0.0403037 0.00209241 44.1845
0 0.0403037 0.00209241 59.7154
2.71051e-20 0.0402835 0.00284207 116.312
0 -0.0402835 0.00284206 95.5965
2.25875e-21 -0.0403926 0.000332763 798.877
-7.52918e-22 0.0403926 0.000332742 800.506
1.35525e-20 0.0402359 0.00359474 696.193
-1.35525e-20 -0.0402359 0.00359473 693.795
8.47033e-22 -0.0402066 0.00415491 1390.8
0 0.0402066 0.00415492 1391.56
0 -0.0402147 0.0041461 1382.54
-6.77626e-21 0.0402147 0.00414611 1383.31
1.69407e-21 0.040223 0.00415913 1380.3
0 -0.040223 0.00415913 1379.52
1.35525e-20 0.0403025 0.00393731 1324.43
0 -0.0403025 0.00393731 1323.62
1.35525e-20 0.0405607 2.46968e-14 929.226
0 -0.0405607 2.44752e-14 928.33
0 0.0406279 0.00170818 72.9257
0 -0.0406279 0.00170819 55.1991
-4.51751e-22 -0.0406701 0.000834219 306.179
-3.61401e-21 0.0406701 0.00083421 321.567
0 -0.0406057 0.00247168 64.1342
3.38813e-21 0.0406057 0.00247169 81.642
-2.25875e-21 0.0405666 0.00323479 372.789
-2.25875e-21 -0.0405666 0.00323478 352.693
0 -0.0407119 1.90384e-14 955.581
-1.35525e-20 0.040712 1.91278e-14 956.527
-1.35525e-20 0.0404944 0.00422897 1345.89
1.35525e-20 -0.0404944 0.00422897 1344.96
1.35525e-21 -0.0405858 0.00374196 987.314
2.25875e-21 0.0405858 0.00374196 999.61
0 -0.0406597 0.00427138 1139.58
0 0.0406597 0.00427138 1140.59
1.35525e-20 -0.0408969 1.55715e-14 882.845
0 0.0408971 1.56359e-14 883.912
2.71051e-20 -0.0409487 0.00130372 69.022
0 0.0409487 0.00130372 88.3177
2.71051e-20 -0.0409201 0.0020848 39.5657
0 0.0409201 0.0020848 55.2908
-4.51751e-22 -0.0410086 0.000322017 758.742
4.51751e-22 0.0410086 0.000322026 760.673
5.42101e-20 -0.0409146 0.0028276 73.7494
2.71051e-20 0.0409146 0.0028276 92.1216
-1.12938e-21 -0.0408447 0.00406283 1170.48
-5.64689e-21 0.0408447 0.00406283 1171.52
6.77626e-21 0.0408408 0.00431796 1149.16
0 -0.0408408 0.00431797 1148.11
2.71051e-20 0.0409362 0.00347657 340.129
0 -0.0409362 0.00347657 283.274
-1.35525e-20 0.0411094 7.75655e-15 874.142
0 -0.0411094 7.73129e-15 872.98
0 -0.0409874 0.00435557 1397.41
0 0.0409874 0.00435557 1398.44
-5.64689e-23 0.0412469 0.00170094 70.9068
4.51751e-22 -0.0412469 0.00170094 53.0731
0 -0.0413012 4.34563e-15 946.84
2.71051e-20 0.0413013 4.34595e-15 948.007
4.51751e-21 -0.0413202 0.000890383 295.31
-1.807e-21 0.0413202 0.000890378 314.797
7.26028e-22 0.0412697 0.00242851 78.0138
2.42009e-22 -0.0412697 0.00242851 59.5882
-1.12938e-21 0.0412342 0.00316541 193.173
3.38813e-21 -0.0412342 0.0031654 159.944
-1.35525e-20 -0.0411644 0.00440118 1548.19
2.03288e-20 0.0411644 0.00440117 1549.22
-2.71051e-20 0.0412011 0.00424423 1612.36
1.35525e-20 -0.0412011 0.00424423 1611.37
3.76459e-22 -0.0412617 0.00386066 1052.79
7.52918e-22 0.0412617 0.00386065 1081
0 -0.0415153 3.77728e-15 823.171
6.77626e-21 0.0415154 3.77853e-15 824.368
2.01675e-22 -0.0416023 0.000359253 701.894
-1.6134e-22 0.0416024 0.000359417 704.176
-2.37169e-20 0.041381 0.00445698 1956.16
-1.01644e-20 -0.041381 0.00445698 1955.26
5.42101e-20 0.0415425 0.00282192 83.0074
2.71051e-20 -0.0415425 0.00282192 62.4943
-1.35525e-20 0.0416467 3.22341e-15 819.224
-6.77626e-21 -0.0416467 3.22129e-15 817.981
0 0.0414294 0.00446946 1978.57
0 -0.0414294 0.00446946 1977.68
0 -0.0416572 0.00147076 56.4802
0 0.0416573 0.00147076 76.9785
0 0.041459 0.00440816 1978.07
0 -0.041459 0.00440816 1977.19
-2.71051e-20 0.0415524 0.00348663 229.084
-2.71051e-20 -0.0415525 0.00348663 197.536
5.42101e-20 -0.0416533 0.00196587 43.9115
-2.71051e-20 0.0416533 0.00196586 61.0785
0 0.0416194 0.00422689 1857.2
2.25875e-21 -0.0416194 0.00422689 1848.03
2.71051e-20 -0.0418805 2.71793e-15 909.211
-1.35525e-20 0.0418805 2.7212e-15 910.619
0 -0.0418773 0.000883306 305.504
4.70574e-22 0.0418773 0.000883282 327.482
-1.69407e-21 0.0416456 0.00452513 1965.78
-1.69407e-21 -0.0416456 0.00452514 1964.94
0 -0.0418628 0.00171416 50.1616
0 0.0418628 0.00171416 67.9229
1.12938e-21 -0.0418731 0.00245819 51.0868
1.97641e-21 0.0418731 0.00245819 69.713
1.12938e-21 0.0418583 0.00315862 137.404
-2.25875e-21 -0.0418584 0.00315862 115.879
4.51751e-21 0.0418665 0.00386141 811.57
2.71051e-21 -0.0418666 0.00386141 784.474