# p  POINT_DATA 50532
# x  y  z  p
-0.0106418 1.35525e-20 6.54156e-08 0.015394
0.0106418 -1.35525e-20 6.54156e-08 -0.00920409
-0.0106418 1.69407e-21 0.000314268 0.0153942
0.0106418 -5.0822e-21 0.000314344 -0.00920313
-0.0106418 1.69407e-21 0.000346265 0.0153942
0.0106418 6.77626e-21 0.000346349 -0.00920316
-0.0106418 1.35525e-20 0.000664313 0.015394
0.0106418 2.71051e-20 0.000664474 -0.00920421
0.0106696 -1.69407e-21 0.000329749 -0.00920278
-0.0106696 0 0.000329666 0.0153942
-0.0106418 0 0.000994725 0.0153941
0.0106418 -1.86347e-20 0.000994893 -0.00920172
-0.0106418 0 0.00102871 0.0153941
0.0106418 0 0.00102888 -0.00920172
-0.0106651 0 0.00100861 0.0153941
0.0106651 -6.77626e-21 0.00100878 -0.00920127
-0.0106418 0 0.00135928 0.015394
0.0106418 0 0.00135945 -0.00920398
-0.0106418 0 0.00170832 0.0153942
0.0106418 -8.47033e-21 0.00170841 -0.00920081
-0.0106418 0 0.00174301 0.0153942
0.0106418 0 0.00174309 -0.00920086
-0.0106634 1.69407e-21 0.0017166 0.0153942
0.0106634 -1.35525e-20 0.00171669 -0.00920031
0.0106417 0 0.002087 -0.00920509
-0.0106417 0 0.002087 0.015394
0.0108523 -4.06576e-20 6.90498e-08 -0.00920136
-0.0108523 -2.71051e-20 6.90496e-08 0.0153944
-0.0108538 -4.51751e-21 0.000983453 0.0153944
0.0108538 -4.51751e-21 0.000983665 -0.00919974
-0.0109302 1.12938e-21 0.000328472 0.0153945
0.0109302 -1.01644e-20 0.000328579 -0.00920056
-0.010876 6.77626e-21 0.00165245 0.0153945
0.010876 -4.51751e-21 0.0016526 -0.00919895
-0.0110233 0 5.24962e-08 0.0153946
0.0110233 -6.77626e-21 5.24948e-08 -0.00920024
-0.0108444 6.77626e-21 0.00218791 0.0153942
0.0108444 -1.35525e-20 0.00218792 -0.0092021
-0.010932 -6.77626e-21 0.00223158 0.0153942
0.0109321 0 0.0022316 -0.00920119
-0.0109511 6.77626e-21 0.00214941 0.0153943
0.0109511 -6.77626e-21 0.00214943 -0.00920061
-0.0111742 -1.35525e-20 4.6956e-08 0.0153946
0.0111742 0 4.69546e-08 -0.00920021
-0.0111378 9.03502e-21 0.00125156 0.0153946
0.0111378 6.77626e-21 0.00125179 -0.00919924
-0.0111894 -2.25875e-21 0.000675217 0.0153946
0.0111894 -5.64689e-21 0.000675418 -0.00919931
0.0112788 0 0.000114353 -0.00919892
-0.0112788 0 0.000114331 0.0153948
0.0112885 -1.35525e-20 3.37062e-08 -0.00919904
-0.0112886 1.35525e-20 3.37058e-08 0.0153948
-0.0111945 0 0.00167213 0.0153946
0.0111945 0 0.00167231 -0.00920016
-0.011163 1.12938e-21 0.00198697 0.0153946
0.011163 6.77626e-21 0.00198706 -0.00919867
-0.011131 0 0.00233069 0.0153945
0.0111311 -2.71051e-20 0.00233071 -0.00919973
0.0114369 0 0.000317029 -0.00919792
-0.0114369 2.71051e-20 0.000316923 0.015395
-0.011421 0 0.000929721 0.0153948
0.011421 -2.71051e-20 0.000929939 -0.0091989
-0.0114038 0 0.0015068 0.0153948
0.0114039 0 0.00150698 -0.00919873
-0.0113457 -6.77626e-21 0.00243757 0.0153952
0.0113458 -6.77626e-21 0.00243761 -0.00919133
0.0116363 -1.35525e-20 1.34764e-08 -0.00919582
-0.0116364 0 1.34773e-08 0.0153952
0.0116375 -1.35525e-20 9.54413e-05 -0.00919563
-0.0116375 1.35525e-20 9.54289e-05 0.0153952
-0.0114304 6.77626e-21 0.00247976 0.0153953
0.0114304 6.77626e-21 0.00247975 -0.00919079
-0.0115075 -7.90564e-21 0.00225285 0.0153954
0.0115075 1.12938e-21 0.00225289 -0.0091911
0.01173 0 3.26074e-09 -0.00919487
-0.0117301 0 3.25931e-09 0.0153953
-0.0117195 -2.25875e-21 0.000610218 0.0153952
0.0117195 4.51751e-21 0.000610384 -0.00919499
-0.0117028 4.51751e-21 0.00122422 0.0153952
0.0117029 -4.51751e-21 0.00122442 -0.00919558
0.0118194 0 8.96942e-05 -0.00919376
-0.0118195 1.35525e-20 8.96941e-05 0.0153953
0.0118199 -1.35525e-20 3.03241e-09 -0.00919378
-0.01182 1.35525e-20 3.03105e-09 0.0153953
-0.0116772 -2.25875e-21 0.0018372 0.0153951
0.0116772 -2.25875e-21 0.00183732 -0.00919639
-0.0116033 0 0.0025659 0.0153953
0.0116034 0 0.00256591 -0.00919434
0.0120204 0 0.000307092 -0.00919132
-0.0120205 0 0.000307025 0.0153956
-0.0117486 -1.35525e-20 0.00263818 0.0153954
0.0117487 1.35525e-20 0.00263823 -0.0091941
-0.0120156 -2.71051e-20 0.000916995 0.0153955
0.0120156 0 0.000917127 -0.00919216
-0.0118319 0 0.00229967 0.0153955
0.011832 -7.52918e-21 0.00229972 -0.00919367
-0.0117787 -1.35525e-20 0.00256194 0.0153954
0.0117789 0 0.00256195 -0.0091935
-0.0119887 -2.71051e-20 0.00155402 0.0153955
0.0119887 0 0.00155414 -0.00919312
-0.012032 0 0.00210266 0.0153953
0.0120321 0 0.00210273 -0.00919804
0.0122392 1.35525e-20 1.95038e-09 -0.00918909
-0.0122392 1.35525e-20 1.9503e-09 0.0153958
0.0122409 0 8.16586e-05 -0.00918905
-0.012241 -1.35525e-20 8.16739e-05 0.0153958
-0.0119871 -2.71051e-20 0.00253932 0.0153955
0.0119872 0 0.00253936 -0.00919362
0.012321 0 1.7426e-09 -0.00918831
-0.0123211 -1.35525e-20 1.74255e-09 0.0153959
-0.0120125 0 0.00276933 0.0153955
0.0120125 0 0.00276934 -0.0091927
-0.0123328 -6.77626e-21 0.000603507 0.0153959
0.0123328 1.12938e-21 0.000603593 -0.0091883
-0.0120726 2.71051e-20 0.00270723 0.0153956
0.0120726 0 0.00270723 -0.00919193
-0.0123288 4.51751e-21 0.00123238 0.0153959
0.0123288 2.25875e-21 0.00123249 -0.00918866
0.0124027 -1.35525e-20 1.58622e-09 -0.0091874
-0.0124028 0 1.58612e-09 0.015396
0.012405 1.35525e-20 7.77801e-05 -0.00918739
-0.0124051 0 7.78041e-05 0.015396
-0.0123347 -1.12938e-21 0.00185416 0.0153958
0.0123347 -9.03502e-21 0.00185424 -0.00919037
-0.0121506 -1.35525e-20 0.00283805 0.0153957
0.0121507 -1.35525e-20 0.00283809 -0.00919104
-0.0123065 4.51751e-21 0.0024016 0.0153958
0.0123065 -1.12938e-21 0.00240165 -0.00919028
-0.0122685 0 0.00289771 0.0153959
0.0122687 -2.71051e-20 0.00289778 -0.00918683
-0.0123168 1.35525e-20 0.00277206 0.015396
0.012317 0 0.00277207 -0.00918682
0.0126427 -2.71051e-20 0.000300463 -0.009185
-0.0126427 0 0.00030044 0.0153962
-0.0126591 -5.42101e-20 0.000913397 0.0153962
0.0126591 0 0.000913462 -0.00918461
-0.0126619 0 0.00155273 0.0153963
0.0126619 0 0.00155279 -0.00918471
-0.0125265 2.71051e-20 0.00271714 0.0153962
0.0125266 0 0.00271717 -0.00918408
0.012467 1.35525e-20 0.00299777 -0.0091838
-0.012467 0 0.0029978 0.0153962
-0.0126644 0 0.00218642 0.0153963
0.0126645 0 0.00218646 -0.00918535
-0.0128706 6.77626e-21 4.59712e-10 0.0153965
0.0128706 0 4.5966e-10 -0.00918265
-0.0128741 -6.77626e-21 6.76228e-05 0.0153965
0.0128742 0 6.7603e-05 -0.00918262
-0.0125737 1.35525e-20 0.00289896 0.0153964
0.0125738 1.35525e-20 0.00289883 -0.0091829
0.0129417 0 3.22157e-10 -0.00918198
-0.0129417 -1.35525e-20 3.22157e-10 0.0153966
-0.0126 0 0.00306523 0.0153963
0.0126002 2.71051e-20 0.00306527 -0.00918474
-0.0129729 1.12938e-21 0.00059327 0.0153966
0.0129729 -1.12938e-21 0.000593302 -0.00918156
0.0130096 6.77626e-21 3.00396e-10 -0.00918121
-0.0130097 6.77626e-21 3.00386e-10 0.0153967
0.0130125 1.35525e-20 6.19132e-05 -0.0091812
-0.0130126 6.77626e-21 6.19358e-05 0.0153967
-0.0129929 -5.64689e-21 0.00122118 0.0153966
0.0129929 -3.38813e-21 0.00122122 -0.00918147
-0.0127134 1.35525e-20 0.00312239 0.0153967
0.0127137 1.35525e-20 0.00312249 -0.00918046
-0.01275 -1.35525e-20 0.00301608 0.0153967
0.0127503 0 0.00301608 -0.00918029
-0.0129974 0 0.0018788 0.0153966
0.0129974 -4.51751e-21 0.00187883 -0.00918216
-0.0129624 2.71051e-21 0.00258482 0.0153966
0.0129624 0 0.00258484 -0.0091833
-0.0129341 0 0.00296493 0.015397
0.0129342 0 0.00296496 -0.00917808
0.0132745 2.71051e-20 0.0002907 -0.00917858
-0.0132746 -2.71051e-20 0.000290689 0.015397
-0.0133098 0 0.000892095 0.0153969
0.0133098 -2.71051e-20 0.000892117 -0.00917802
-0.012963 -1.35525e-20 0.00324868 0.0153969
0.012963 6.77626e-21 0.00324866 -0.00917985
-0.013014 1.35525e-20 0.00319464 0.015397
0.013014 0 0.00319458 -0.00917967
-0.0133312 0 0.00153426 0.0153969
0.0133312 -2.71051e-20 0.00153429 -0.00917848
-0.0130336 -1.35525e-20 0.0032843 0.0153969
0.0130336 -1.35525e-20 0.00328432 -0.00918171
-0.0133255 0 0.00221292 0.0153969
0.0133255 -2.71051e-20 0.00221294 -0.00918022
-0.0130971 -1.35525e-20 0.00331613 0.0153969
0.0130973 0 0.00331619 -0.00918178
-0.0131128 0 0.00327471 0.015397
0.013113 -1.35525e-20 0.00327473 -0.00918145
-0.0135215 6.77626e-21 4.3748e-11 0.0153976
0.0135215 0 4.37385e-11 -0.00917632
-0.013525 6.77626e-21 4.46932e-05 0.0153976
0.013525 0 4.46658e-05 -0.0091763
-0.0132202 -7.52918e-22 0.00300115 0.015397
0.0132202 1.50584e-21 0.00300118 -0.00918297
0.0135708 0 2.74197e-11 -0.00917595
-0.0135708 0 2.74177e-11 0.0153978
0.0136155 0 2.60842e-11 -0.00917552
-0.0136156 0 2.60813e-11 0.0153979
0.0136174 0 3.86608e-05 -0.00917551
-0.0136174 -6.77626e-21 3.8686e-05 0.0153979
0.0136131 1.12938e-21 0.000567022 -0.00917565
-0.0136131 2.25875e-21 0.000567013 0.0153975
-0.0133844 2.71051e-20 0.00278358 0.0153967
0.0133844 2.71051e-20 0.0027836 -0.00918952
-0.0136536 -1.12938e-21 0.00118311 0.0153972
0.0136536 2.25875e-21 0.00118312 -0.00917505
-0.013358 5.42101e-20 0.00322889 0.0153971
0.0133581 0 0.00322892 -0.00918173
-0.0136672 2.25875e-21 0.00185452 0.0153973
0.0136672 0 0.00185453 -0.00917632
-0.0134205 0 0.00347805 0.0153972
0.0134205 0 0.00347806 -0.00917971
-0.0134524 -1.35525e-20 0.00343732 0.0153973
0.0134524 0 0.0034373 -0.00917925
0.0139 5.42101e-20 0.000270261 -0.00917299
-0.0139 -2.71051e-20 0.000270258 0.0153985
-0.0136757 -5.64689e-22 0.00251333 0.0153973
0.0136758 5.64689e-22 0.00251333 -0.00917959
-0.0134923 0 0.00351398 0.0153973
0.0134924 0 0.00351402 -0.00917842
0.0139532 2.71051e-20 0.000842552 -0.00917309
-0.0139533 2.71051e-20 0.000842543 0.0153975
-0.0136464 2.25875e-21 0.00307167 0.0153974
0.0136464 -1.69407e-21 0.00307169 -0.00917881
-0.0135604 6.77626e-21 0.00354803 0.0153975
0.0135605 0 0.00354808 -0.00917507
-0.013594 -1.35525e-20 0.00346729 0.0153976
0.0135942 0 0.00346729 -0.00917517
-0.0139955 -5.42101e-20 0.00147861 0.0153977
0.0139955 0 0.00147861 -0.00917079
-0.0139995 -2.71051e-20 0.00216677 0.0153976
0.0139995 0 0.00216677 -0.00917585
0.0141777 0 1.47672e-12 -0.00916718
-0.0141778 0 1.47736e-12 0.0153989
0.0141788 0 1.24877e-05 -0.00916717
-0.0141788 0 1.25188e-05 0.0153989
0.0141923 -1.69407e-21 1.02421e-12 -0.00916691
-0.0141924 -1.69407e-21 1.02371e-12 0.0153989
0.0142041 1.69407e-21 9.46673e-06 -0.00916667
-0.0142042 1.69407e-21 9.49024e-06 0.0153989
0.0142051 1.69407e-21 1.00933e-12 -0.00916667
-0.0142052 1.69407e-21 1.0088e-12 0.0153989
0.0142399 6.21157e-22 0.000511 -0.00916832
-0.01424 -1.12938e-22 0.000510993 0.0153983
-0.0138496 0 0.00338143 0.0153979
0.0138496 -2.71051e-20 0.00338145 -0.00917135
-0.0139916 0 0.00283636 0.0153979
0.0139916 0 0.00283638 -0.00917256
0.0138218 0 0.0036788 -0.00917015
-0.0138218 0 0.0036788 0.0153981
0.0143102 0 0.00109467 -0.00916637
-0.0143107 5.64689e-22 0.00109732 0.015398
0.0143533 0 7.65942e-13 -0.00916474
-0.0138932 -1.35525e-20 0.003605 0.0153982
0.0138932 2.71051e-20 0.00360498 -0.00916963
-0.0143537 1.69407e-21 7.6493e-13 0.0153987
-0.0139058 1.35525e-20 0.00372075 0.0153982
0.0139058 0 0.00372076 -0.00917123
-0.0143406 1.97641e-21 0.0017773 0.0153981
0.0143406 -8.47033e-22 0.0017773 -0.00916824
0.014476 -2.71051e-20 0.000224596 -0.00916074
-0.014476 2.71051e-20 0.000224595 0.0153993
-0.0139821 0 0.00376078 0.0153985
0.0139821 0 0.0037608 -0.00916765
-0.0140113 1.35525e-20 0.00368378 0.0153985
0.0140114 0 0.00368378 -0.00916761
-0.0143224 -1.12938e-21 0.0024986 0.0153981
0.0143224 5.64689e-22 0.0024986 -0.00917249
0.0145821 2.71051e-20 0.000746673 -0.0091678
-0.0145821 0 0.000746674 0.0153978
-0.014272 9.03502e-22 0.00323782 0.0153984
0.014272 2.25875e-22 0.00323783 -0.00917172
-0.0142274 -2.71051e-20 0.00361851 0.0153989
0.0142274 2.71051e-20 0.00361852 -0.00916503
0.0146963 -3.76459e-22 0.000425142 -0.00916157
-0.0146963 0 0.000425143 0.0153982
0.0146847 -2.71051e-20 0.00134649 -0.00915425
-0.0146847 -2.71051e-20 0.00134648 0.0153988
0.0147679 0 2.54299e-05 -0.00915885
-0.014768 0 2.54068e-05 0.0153984
0.0147705 0 9.11081e-14 -0.00915884
-0.0147705 -6.77626e-21 9.09544e-14 0.0153984
0.0148059 -6.77626e-21 6.68338e-15 -0.0091588
-0.0148059 0 6.6647e-15 0.0153982
0.014659 5.42101e-20 0.00210817 -0.00917082
-0.014659 5.42101e-20 0.00210817 0.0153983
0.0142867 0 0.00391566 -0.0091679
-0.0142867 0 0.00391568 0.0153989
0.0143137 6.77626e-21 0.00388599 -0.00916789
-0.0143137 6.77626e-21 0.00388604 0.0153989
-0.0148347 6.77626e-21 4.55241e-05 0.0153983
0.0148347 0 4.55572e-05 -0.00915781
-0.0148462 6.77626e-21 5.73722e-15 0.0153983
0.0148462 0 5.75032e-15 -0.00915775
0.0143218 6.77626e-21 0.00393378 -0.00916941
-0.0143218 -6.77626e-21 0.00393377 0.0153988
-0.014352 6.77626e-21 0.00395515 0.0153988
0.014352 0 0.00395518 -0.00917062
-0.0143641 0 0.00393216 0.0153988
0.0143642 0 0.00393215 -0.00917025
-0.0146351 0 0.00283847 0.0153985
0.0146351 0 0.00283847 -0.00917055
0.0144996 0 0.0036695 -0.00917148
-0.0144996 0 0.0036695 0.0153989
0.0145103 0 0.00366655 -0.00917181
-0.0145087 -8.47033e-22 0.0036755 0.0153988
0.0150122 0 0.00033015 -0.00915615
-0.0150123 2.71051e-20 0.000330154 0.0153974
-0.0145871 -8.47033e-22 0.00370013 0.015399
0.0145874 8.47033e-22 0.00370026 -0.00917126
-0.0146767 -2.71051e-20 0.00345539 0.0153986
0.0146767 0 0.00345539 -0.00918004
-0.0150078 -2.25875e-22 0.00170826 0.0153988
0.0150078 1.12938e-22 0.00170826 -0.00915687
0.0150925 -3.61401e-21 0.000854675 -0.00915536
-0.0150925 0 0.000854681 0.0153985
0.0146273 2.71051e-20 0.00391102 -0.00917024
-0.0146273 -5.42101e-20 0.00391104 0.015399
-0.0149891 -1.12938e-21 0.00242101 0.0153989
0.0149891 -7.90564e-22 0.00242101 -0.0091609
-0.0149587 -2.82344e-22 0.00315968 0.0153991
0.0149587 -1.69407e-21 0.00315968 -0.00916678
0.0147021 6.77626e-21 0.00420296 -0.00917137
-0.0147022 0 0.00420304 0.0153993
0.0152975 6.77626e-21 8.17497e-05 -0.00914842
-0.0152975 6.77626e-21 8.17234e-05 0.0153983
0.0147325 0 0.00417583 -0.00917083
-0.0147325 1.35525e-20 0.00417593 0.0153993
0.015314 0 2.17543e-15 -0.0091484
-0.015314 6.77626e-21 2.16401e-15 0.0153983
0.0147476 0 0.00423512 -0.00916913
-0.0147477 -1.35525e-20 0.00423519 0.0153995
0.0147781 -6.77626e-21 0.0042567 -0.00916862
-0.0147782 0 0.00425676 0.0153996
0.0147931 0 0.00422599 -0.00916849
-0.0147932 1.35525e-20 0.00422607 0.0153996
-0.0153882 0 1.37339e-16 0.0153983
0.0153882 0 1.36947e-16 -0.00914813
-0.0154218 -6.77626e-21 0.000114883 0.0153986
0.0154219 0 0.000114923 -0.00914475
0.0149639 1.50584e-21 0.00384032 -0.00916833
-0.0149639 0 0.00384035 0.0153995
-0.0154554 -6.77626e-21 2.28913e-16 0.0153986
0.0154555 0 2.27201e-16 -0.00914455
0.0148469 -6.77626e-21 0.00430538 -0.00916884
-0.014847 0 0.00430541 0.0153997
0.0154606 0 0.00140662 -0.00916491
-0.0154606 2.71051e-20 0.00140663 0.0153986
-0.0152778 5.42101e-20 0.00281389 0.0153994
0.0152778 2.71051e-20 0.00281389 -0.00915927
0.0154333 0 0.00193357 -0.00914057
-0.0154334 2.71051e-20 0.00193357 0.0153993
0.0156222 0 0.000480035 -0.0091362
-0.0156222 2.71051e-20 0.000480033 0.0153995
0.0152556 -2.71051e-20 0.00350081 -0.00915782
-0.0152556 0 0.00350083 0.0153999
0.0150547 -6.77626e-21 0.00445243 -0.00917605
-0.0150548 1.35525e-20 0.00445248 0.0153996
-0.0157277 -6.77626e-21 1.66304e-16 0.0153989
0.0157278 6.77626e-21 1.64963e-16 -0.0091425
0.0151605 -2.82344e-22 0.00422314 -0.00917678
-0.0151606 8.47033e-22 0.00422318 0.0153995
0.0156637 2.71051e-20 0.00166709 -0.00914957
-0.0156638 -1.35525e-20 0.00166709 0.0153993
0.0156161 7.90564e-22 0.00242548 -0.00914727
-0.0156161 9.03502e-22 0.00242548 0.0153997
0.0157781 -5.64689e-22 0.000921688 -0.00914695
-0.0157781 -3.76459e-22 0.000921689 0.0153993
0.0155829 5.64689e-22 0.00315322 -0.00915385
-0.0155829 1.12938e-21 0.00315322 0.0154
0.0152442 6.77626e-21 0.00458652 -0.00916254
-0.0152443 -1.35525e-20 0.00458661 0.0154006
0.0159534 0 3.82779e-05 -0.00913886
-0.0159534 0 3.82942e-05 0.0153994
0.015843 2.71051e-20 0.00192286 -0.00914423
-0.015843 2.71051e-20 0.00192287 0.0153995
0.0159594 6.77626e-21 2.87967e-17 -0.00913888
-0.0159594 0 2.85098e-17 0.0153994
0.0159064 0 0.00142306 -0.00915468
-0.0159064 2.71051e-20 0.00142306 0.0153991
0.0155142 -1.12938e-21 0.0038846 -0.00915866
-0.0155143 -3.38813e-21 0.00388461 0.0154005
0.0153266 0 0.00464484 -0.00915861
-0.0153267 0 0.00464492 0.0154009
0.01535 1.35525e-20 0.00461636 -0.00915843
-0.0153501 0 0.00461645 0.0154009
0.0153665 0 0.00467311 -0.00915952
-0.0153666 0 0.00467318 0.0154009
0.0160927 2.71051e-20 0.000505095 -0.00914158
-0.0160927 0 0.000505084 0.0153992
0.0154309 0 0.00471865 -0.00915476
-0.015431 0 0.00471871 0.0154012
-0.0161373 1.35525e-20 9.1179e-18 0.0153993
0.0161375 0 9.37167e-18 -0.00914002
0.0154621 1.35525e-20 0.00464665 -0.00915518
-0.0154622 1.35525e-20 0.00464672 0.0154012
0.0155559 7.05861e-23 0.004333 -0.00915997
-0.0155559 -1.41172e-22 0.00433301 0.0154009
0.015933 0 0.00276856 -0.00914548
-0.015933 -2.71051e-20 0.00276856 0.0154001
0.015876 -2.71051e-20 0.003495 -0.00915197
-0.0158761 -2.71051e-20 0.003495 0.0154006
0.0163022 1.41172e-22 0.00169287 -0.00914486
-0.0163022 1.41172e-22 0.00169287 0.0153999
0.0158806 2.71051e-20 0.00413138 -0.00915339
-0.0158806 0 0.00413139 0.0154014
0.0157465 0 0.00463069 -0.00915294
-0.0157465 2.71051e-20 0.00463071 0.0154016
-0.0156845 0 0.00489813 0.0154019
0.0156845 -1.35525e-20 0.00489813 -0.0091493
-0.0164402 -1.35525e-20 0.000192225 0.0153991
0.0164404 2.71051e-20 0.000191942 -0.00914287
-0.0164598 0 2.18492e-18 0.0153991
0.01646 1.35525e-20 2.26278e-18 -0.00914281
0.0163055 3.38813e-21 0.0022924 -0.00914492
-0.0163055 -3.38813e-21 0.0022924 0.0154003
-0.0157621 0 0.00483924 0.015402
0.0157621 0 0.00483928 -0.00914895
0.0164587 6.77626e-21 0.00103728 -0.00914579
-0.0164587 0 0.00103727 0.0153994
0.0162201 1.12938e-22 0.00310508 -0.00914831
-0.0162201 4.51751e-22 0.00310507 0.0154006
-0.0157673 -1.35525e-20 0.00495672 0.0154019
0.0157673 0 0.0049567 -0.00915171
-0.0165551 -1.35525e-20 1.82789e-18 0.0153989
0.0165551 1.35525e-20 1.92031e-18 -0.00914542
0.0158425 0 0.00500992 -0.00914556
-0.0158425 0 0.00500996 0.0154023
0.0158774 -1.35525e-20 0.00492682 -0.00914591
-0.0158774 -1.35525e-20 0.00492681 0.0154023
0.0161859 -5.64689e-22 0.00381857 -0.00915048
-0.0161859 -5.64689e-22 0.00381858 0.0154012
0.0166927 1.35525e-20 0.00010156 -0.0091433
-0.016693 -1.35525e-20 0.000101746 0.0153991
0.0166939 -1.35525e-20 -1.9608e-18 -0.00914331
-0.0166942 -1.35525e-20 -2.00257e-18 0.0153991
0.0161388 0 0.00451634 -0.00915162
-0.0161388 -1.807e-21 0.00451636 0.015402
0.0165511 0 0.00276281 -0.0091478
-0.0165511 0 0.00276281 0.0154006
0.0160804 0 0.00488846 -0.00914223
-0.0160804 0 0.00488847 0.0154028
-0.0165195 -2.71051e-20 0.00345967 0.0154013
0.0165195 0 0.00345967 -0.00914875
-0.0160928 6.77626e-21 0.00518707 0.0154027
0.0160929 6.77626e-21 0.00518708 -0.00914507
-0.0161329 0 0.00514907 0.0154027
0.0161329 6.77626e-21 0.0051491 -0.00914525
0.0161377 6.77626e-21 0.0052188 -0.00914858
-0.0161377 6.77626e-21 0.00521882 0.0154026
0.0164853 2.71051e-20 0.00415086 -0.00914765
-0.0164853 0 0.00415087 0.0154016
0.0161812 6.77626e-21 0.00524954 -0.00915078
-0.0161812 0 0.00524959 0.0154025
0.0162 0 0.00521528 -0.00915009
-0.0162 0 0.0052153 0.0154026
0.0169483 0 0.00175217 -0.00914374
-0.0169483 -1.0842e-19 0.00175218 0.0154004
-0.0168946 -1.41172e-22 0.00247384 0.0154006
0.0168959 -4.23516e-22 0.002475 -0.00914107
0.0170685 -1.0842e-19 0.00054239 -0.00914669
-0.0170686 0 0.000542388 0.0153988
0.0163681 4.23516e-22 0.00495113 -0.00915111
-0.0163681 7.05861e-22 0.00495117 0.0154027
0.0168537 0 0.00309993 -0.00914344
-0.0168537 -5.64689e-22 0.00309993 0.0154013
0.0165271 -2.71051e-20 0.00473652 -0.00916238
-0.0165271 0 0.00473653 0.0154025
0.0168198 1.69407e-21 0.00379491 -0.0091454
-0.0168198 -1.12938e-21 0.00379491 0.0154019
0.0164532 0 0.00518912 -0.00914995
-0.0164532 2.71051e-20 0.00518915 0.0154028
0.0164986 1.35525e-20 0.00547422 -0.00915115
-0.0164987 -1.35525e-20 0.00547423 0.0154025
0.0168074 5.64689e-22 0.00445444 -0.00914688
-0.0168075 -1.69407e-21 0.00445445 0.0154023
0.0165401 0 0.00543898 -0.00915023
-0.0165402 0 0.00543895 0.0154025
0.0171982 -5.42101e-20 0.00274291 -0.00913267
-0.0171982 -2.71051e-20 0.00274291 0.0154004
0.0165561 0 0.00551492 -0.00914772
-0.0165563 0 0.00551497 0.0154026
0.0171475 2.71051e-20 0.00343444 -0.00914434
-0.0171475 -2.71051e-20 0.00343445 0.0154026
0.0165953 0 0.0055426 -0.00914737
-0.0165954 0 0.00554269 0.0154026
0.0166161 0 0.00550297 -0.0091471
-0.0166163 0 0.00550301 0.0154026
-0.0168033 6.27432e-22 0.0051158 0.0154026
0.0168033 1.8823e-22 0.00511579 -0.00914872
0.0166836 -6.77626e-21 0.00560513 -0.00914719
-0.0166839 6.77626e-21 0.00560526 0.0154025
0.0171381 0 0.00410855 -0.009141
-0.0171381 -2.71051e-20 0.00410855 0.0154023
0.0176356 0 5.15824e-05 -0.00914268
-0.0176356 6.77626e-21 5.15782e-05 0.0153987
0.0176365 0 -8.77031e-19 -0.00914268
-0.0176365 0 -8.88931e-19 0.0153987
0.0176257 1.12938e-21 0.00114318 -0.00914053
-0.0176257 -2.25875e-21 0.00114318 0.0153997
0.017701 0 -1.21685e-20 -0.009142
-0.017701 -6.77626e-21 -1.22041e-20 0.0153988
-0.0177564 0 5.70417e-05 0.0153987
0.0177564 0 5.70455e-05 -0.0091417
-0.0174948 -7.76447e-22 0.00304301 0.0154013
0.0174948 2.11758e-22 0.00304301 -0.00913817
0.0171005 2.71051e-20 0.0047873 -0.00913579
-0.0171005 -2.71051e-20 0.00478732 0.0154028
-0.01776 6.77626e-21 -1.01851e-20 0.0153987
0.01776 6.77626e-21 -1.01509e-20 -0.00914167
-0.0176226 -2.82344e-22 0.00231708 0.0154007
0.0176226 -2.82344e-22 0.00231708 -0.00913672
0.0168649 6.77626e-21 0.00573339 -0.00915345
-0.0168651 -2.03288e-20 0.00573345 0.0154019
0.0169917 0 0.00554745 -0.00915495
-0.0169917 0 0.00554751 0.0154019
0.0175403 0 0.00368249 -0.00914041
-0.0175404 -5.64689e-22 0.0036825 0.0154023
0.0174309 -2.25875e-21 0.00445118 -0.00913783
-0.0174309 0 0.00445119 0.0154025
0.0170276 1.35525e-20 0.00584853 -0.00914106
-0.0170277 1.35525e-20 0.00584855 0.0154022
0.0173593 -6.77626e-21 0.00515918 -0.00913889
-0.0173594 1.12938e-21 0.00515919 0.0154024
0.0171314 0 0.00592202 -0.00913524
-0.0171315 0 0.00592208 0.0154023
0.0171627 1.35525e-20 0.00588617 -0.00913497
-0.0171628 0 0.00588621 0.0154023
0.017182 0 0.0059579 -0.00913714
-0.0171821 1.35525e-20 0.00595797 0.0154018
0.017769 0 0.00410416 -0.00913677
-0.017769 -2.71051e-20 0.00410417 0.0154027
0.0182634 5.42101e-20 0.000578938 -0.00913772
-0.0182635 5.42101e-20 0.000578947 0.0153987
0.0173982 0 0.00561201 -0.00913822
-0.0173983 0 0.00561204 0.0154022
0.0172647 0 0.00601703 -0.00912771
-0.0172648 1.35525e-20 0.00601711 0.0154023
0.0173075 0 0.00592612 -0.00912872
-0.0173076 0 0.00592617 0.0154023
0.0182204 0 0.00175681 -0.0091338
-0.0182204 0 0.0017568 0.015401
0.0177285 0 0.00478171 -0.00913748
-0.0177285 -2.71051e-20 0.00478172 0.0154024
0.0181282 5.42101e-20 0.00306192 -0.00913861
-0.0181282 -5.42101e-20 0.00306192 0.0154011
0.0181211 -1.41172e-22 0.00374048 -0.00914035
-0.0181211 0 0.00374049 0.0153999
0.0177324 0 0.00540773 -0.00913256
-0.0177324 0 0.00540774 0.0154022
0.0174848 0 0.00617228 -0.00912348
-0.0174849 0 0.00617231 0.0154012
0.0175758 0 0.00590988 -0.00912841
-0.0175758 0 0.00590991 0.0154022
0.0180729 0 0.00442474 -0.00913985
-0.0180729 0 0.00442474 0.0154007
0.0175825 0 0.00610033 -0.00912375
-0.0175826 1.35525e-20 0.00610035 0.015401
0.0175873 1.35525e-20 0.00624642 -0.00912885
-0.0175873 -1.35525e-20 0.00624645 0.0153997
0.018047 -1.69407e-21 0.00508938 -0.00913969
-0.018047 -5.64689e-22 0.00508939 0.0154009
0.017673 0 0.00632952 -0.00911455
-0.017673 0 0.00632955 0.0153991
0.0177234 1.35525e-20 0.00621991 -0.00911665
-0.0177235 1.35525e-20 0.00621994 0.0153993
-0.0188362 0 3.90757e-05 0.0153985
0.0188362 -6.77626e-21 3.90717e-05 -0.00913275
-0.0188376 0 -1.40466e-21 0.0153985
0.0188376 0 -1.40183e-21 -0.00913274
0.0184191 0 0.00406131 -0.00914441
-0.0184191 2.71051e-20 0.00406131 0.0153971
0.0188782 -6.77626e-21 -3.17074e-23 -0.00913231
-0.0188782 -6.77626e-21 -3.33102e-23 0.0153985
0.0188457 5.64689e-22 0.00115779 -0.00913164
-0.0188458 5.64689e-22 0.00115779 0.0153991
0.017989 -1.807e-21 0.0057961 -0.00913243
-0.017989 -3.16226e-21 0.00579612 0.0153997
0.0189173 -6.77626e-21 3.90264e-05 -0.00913195
-0.0189173 6.77626e-21 3.90289e-05 0.0153985
0.0189184 0 -3.96181e-23 -0.00913194
-0.0189184 6.77626e-21 -4.11348e-23 0.0153985
0.0188016 2.82344e-22 0.00239367 -0.00913253
-0.0188016 -2.82344e-22 0.00239367 0.0153987
0.0179168 0 0.00619825 -0.00911444
-0.0179168 0 0.00619827 0.0153983
0.0178342 -1.35525e-20 0.00647801 -0.00911604
-0.0178343 1.35525e-20 0.00647804 0.015398
0.0183812 0 0.00473969 -0.0091407
-0.0183812 -2.71051e-20 0.0047397 0.0154007
0.0179161 0 0.00640623 -0.00911834
-0.0179162 -1.35525e-20 0.00640625 0.0153981
0.0179071 0 0.00654731 -0.00913282
-0.0179072 0 0.00654734 0.0153975
0.0187899 0 0.00359346 -0.00914186
-0.0187899 0 0.00359346 0.0153963
0.0183614 0 0.0054084 -0.00914798
-0.0183614 0 0.00540841 0.0153982
0.0179797 0 0.00661793 -0.00912687
-0.0179798 -2.71051e-20 0.00661795 0.0153981
0.0180436 0 0.00652843 -0.00912686
-0.0180436 0 0.00652846 0.0153981
0.0187173 4.23516e-22 0.00436434 -0.00914178
-0.0187173 8.47033e-22 0.00436435 0.0153971
0.018177 0 0.00625306 -0.00912915
-0.0181771 -1.50584e-21 0.00625307 0.0153979
0.0181271 -2.71051e-20 0.00676141 -0.00912854
-0.0181271 1.35525e-20 0.00676144 0.015397
0.0183874 0 0.00602483 -0.00913717
-0.0183874 2.71051e-20 0.00602484 0.0153976
0.0182482 0 0.0065139 -0.0091334
-0.0182482 2.71051e-20 0.00651392 0.0153979
0.0187359 5.64689e-22 0.00501818 -0.00914086
-0.0187359 -7.05861e-23 0.00501818 0.0153972
0.0182333 -1.35525e-20 0.00669842 -0.00912893
-0.0182333 0 0.00669844 0.0153967
0.0182171 0 0.00684895 -0.00913265
-0.0182171 1.35525e-20 0.00684896 0.0153952
0.0194643 0 0.000581958 -0.00912717
-0.0194643 0 0.000581952 0.0153983
0.0194401 -5.42101e-20 0.00177497 -0.00912772
-0.0194401 0 0.00177498 0.0153985
0.0186825 2.25875e-21 0.00571617 -0.0091445
-0.0186825 1.12938e-21 0.00571618 0.0153963
0.018308 0 0.00693721 -0.00911843
-0.018308 0 0.00693723 0.0153943
0.018365 1.35525e-20 0.0068251 -0.00912097
-0.018365 0 0.00682512 0.0153946
-0.0191534 -2.71051e-20 0.00414674 0.0153928
0.0191534 -2.71051e-20 0.00414674 -0.00915177
-0.0194225 -5.42101e-20 0.00303969 0.0153942
0.0194225 0 0.00303969 -0.00912975
0.01915 5.42101e-20 0.0045832 -0.00913325
-0.01915 -2.71051e-20 0.0045832 0.0153941
0.0186305 2.71051e-21 0.00640892 -0.00913599
-0.0186305 1.807e-21 0.00640893 0.0153952
-0.0193877 0 0.00369517 0.0153914
0.0193894 0 0.00369516 -0.00914031
0.0185455 2.71051e-20 0.00680227 -0.00911929
-0.0185455 0 0.00680229 0.0153935
0.019012 -2.71051e-20 0.00537772 -0.00914484
-0.019012 -5.42101e-20 0.00537773 0.0153952
0.0184497 -2.71051e-20 0.00707478 -0.00911853
-0.0184497 1.35525e-20 0.0070748 0.0153936
0.018538 1.35525e-20 0.00700334 -0.00912094
-0.018538 0 0.00700336 0.0153936
0.0193613 -1.35525e-20 0.00436274 -0.00913632
-0.0193613 -1.35525e-20 0.00436274 0.0153915
0.0185249 0 0.00714775 -0.00913448
-0.0185249 -1.35525e-20 0.00714777 0.0153933
0.0189858 0 0.0060364 -0.0091484
-0.0189858 0 0.00603641 0.015394
-0.018601 -1.35525e-20 0.00722166 0.0153942
0.018601 -2.71051e-20 0.00722164 -0.00912799
0.0186688 0 0.00713001 -0.00912831
-0.0186688 -2.71051e-20 0.00713003 0.0153941
-0.0193578 -2.82344e-22 0.00503068 0.0153922
0.0193578 1.97641e-21 0.00503068 -0.00913546
0.0195829 0 0.00413333 -0.00914178
-0.0195829 -2.71051e-20 0.00413333 0.0153865
0.0188026 0 0.00685904 -0.00913142
-0.0188026 1.50584e-21 0.00685905 0.0153935
-0.0200409 0 2.97512e-05 0.0153982
0.0200409 0 2.97461e-05 -0.00912229
-0.0200414 3.38813e-21 5.66129e-24 0.0153982
0.0200414 0 5.71142e-24 -0.00912229
0.020072 0 -1.77282e-25 -0.00912203
-0.020072 0 -1.62872e-25 0.0153982
0.0200566 -2.25875e-21 0.00116432 -0.0091228
-0.0200566 1.69407e-21 0.00116432 0.0153966
0.0195648 2.71051e-20 0.00457553 -0.00912335
-0.0195648 0 0.00457553 0.0153914
0.020102 -3.38813e-21 2.93822e-05 -0.00912178
-0.020102 0 2.93878e-05 0.0153982
0.0201024 3.38813e-21 -1.89409e-25 -0.00912178
-0.0201024 0 -1.75447e-25 0.0153982
-0.0187405 0 0.00735704 0.0153934
0.0187405 1.35525e-20 0.00735703 -0.00912815
0.0193209 5.64689e-22 0.0056892 -0.00914604
-0.0193209 2.25875e-21 0.00568921 0.0153921
0.0190162 2.71051e-20 0.00663679 -0.00913954
-0.0190162 2.71051e-20 0.00663679 0.0153929
-0.0188683 -2.71051e-20 0.0071162 0.0153943
0.0188683 0 0.00711619 -0.0091329
0.0200437 -1.69407e-21 0.0023892 -0.00912594
-0.0200437 -1.12938e-21 0.0023892 0.0153902
-0.0188522 0 0.00729487 0.0153932
0.0188522 2.71051e-20 0.00729486 -0.00912854
-0.0188339 -1.35525e-20 0.00744773 0.0153916
0.018834 0 0.00744773 -0.00913218
0.0193083 -1.69407e-21 0.00633277 -0.00914592
-0.0193083 1.69407e-21 0.00633278 0.0153919
0.0196626 0 0.00533599 -0.00914142
-0.0196626 0 0.00533599 0.0153883
-0.0189282 0 0.00753925 0.0153908
0.0189282 -1.35525e-20 0.00753925 -0.00911887
-0.018987 -1.35525e-20 0.00742573 0.0153911
0.018987 0 0.00742572 -0.00912124
-0.0200608 -1.12938e-21 0.00364085 0.0153829
0.0200608 1.12938e-21 0.00364085 -0.00913257
0.020005 0 0.0043449 -0.0091301
-0.020005 0 0.00434489 0.0153838
0.0192547 -2.25875e-21 0.0070165 -0.00913586
-0.0192547 2.71051e-21 0.00701651 0.0153914
0.0196313 2.71051e-20 0.00599689 -0.00914886
-0.0196313 -2.71051e-20 0.0059969 0.0153906
-0.0191651 -2.71051e-20 0.00740552 0.0153899
0.0191651 2.71051e-20 0.00740552 -0.00911942
-0.0190667 0 0.00767367 0.0153902
0.0190667 -1.35525e-20 0.00767366 -0.00911856
-0.0191579 -1.35525e-20 0.00760271 0.0153903
0.0191579 1.35525e-20 0.0076027 -0.00912071
0.0191443 2.71051e-20 0.00774906 -0.009133
-0.0191443 0 0.00774906 0.0153901
-0.0200588 3.38813e-21 0.00492596 0.015385
0.0200588 6.77626e-21 0.00492596 -0.00912887
0.0206698 5.42101e-20 0.000582859 -0.00911702
-0.0206698 -5.42101e-20 0.000582861 0.0153981
0.0196174 -2.71051e-20 0.00664555 -0.00914743
-0.0196174 0 0.00664556 0.0153901
0.0206614 0 0.00177612 -0.00911927
-0.0206614 0 0.00177612 0.0153913
0.0199641 -1.41172e-22 0.0056435 -0.00913753
-0.0199641 1.41172e-22 0.0056435 0.0153871
0.0192228 -2.71051e-20 0.00782518 -0.00912735
-0.0192228 0 0.00782519 0.0153911
0.0192911 0 0.00773354 -0.00912752
-0.0192911 2.71051e-20 0.00773354 0.015391
-0.0194228 -1.50584e-21 0.00746617 0.0153903
0.0194228 -6.02335e-21 0.00746617 -0.00913024
0.0206623 0 0.00301958 -0.00912684
-0.0206623 -1.0842e-19 0.00301958 0.0153768
0.0196377 -2.71051e-20 0.0072485 -0.00913776