# U  POINT_DATA 33247
# x  y  z  U_x  U_y  U_z
1.35525e-20 -0.0292381 8.09214e-08 0 0 0
-1.35525e-20 0.0292381 8.09214e-08 0 0 0
0 0.0292381 0.000233485 0 0 0
0 -0.0292381 0.000233515 0 0 0
3.38813e-21 0.0292381 0.000430835 0 0 0
3.38813e-21 -0.0292381 0.000430882 0 0 0
-6.77626e-21 0.029238 0.000663804 0 0 0
0 -0.029238 0.000663883 0 0 0
0 0.029238 0.00090804 0 0 0
0 -0.029238 0.000908135 0 0 0
3.38813e-21 0.029238 0.00111509 0 0 0
0 -0.029238 0.00111514 0 0 0
6.77626e-21 0.0292379 0.00135916 0 0 0
-1.35525e-20 -0.029238 0.00135924 0 0 0
3.38813e-21 0.0292379 0.00161398 0 0 0
3.38813e-21 -0.029238 0.00161406 0 0 0
6.77626e-21 0.0292379 0.00183191 0 0 0
3.38813e-21 -0.0292379 0.00183193 0 0 0
6.77626e-21 0.0292379 0.002087 0 0 0
-6.77626e-21 -0.0292379 0.002087 0 0 0
6.77626e-21 0.0293159 0.000332872 -0.000119496 0.000341107 1.00772e-06
1.35525e-20 -0.0293159 0.000332922 1.79793e-07 -1.29252e-06 -6.48061e-08
-1.01644e-20 0.0293201 0.00100469 -0.000267933 0.000710631 5.26735e-06
0 -0.0293201 0.0010048 3.45667e-05 -8.69171e-05 -1.0798e-08
0 -0.0293199 0.00170033 3.60152e-05 -9.30634e-05 -4.52613e-06
0 0.0293199 0.00170027 -0.000250884 0.000665157 -2.79031e-05
0 0.0294721 0.000122228 -0.000359259 0.00102552 3.02966e-06
1.35525e-20 -0.0294721 0.000122259 5.40545e-07 -3.88593e-06 -1.94838e-07
-1.35525e-20 0.0294728 7.47971e-08 0 0 0
0 -0.0294728 7.47973e-08 0 0 0
0 0.0294797 0.000527865 -0.000370735 0.00105828 3.12644e-06
1.35525e-20 -0.0294797 0.000527979 5.57812e-07 -4.01006e-06 -2.01062e-07
0 0.0294753 0.0007964 -0.000773757 0.00205221 1.52114e-05
0 -0.0294753 0.000796545 9.98403e-05 -0.000251046 -3.11883e-08
0 0.0294755 0.00118677 -0.000774927 0.00205531 1.52344e-05
-2.03288e-20 -0.0294755 0.00118694 9.99903e-05 -0.000251423 -3.12351e-08
-6.77626e-21 0.0294683 0.00147423 -0.000705094 0.00186938 -7.84199e-05
1.35525e-20 -0.0294683 0.00147436 0.000101233 -0.000261587 -1.27222e-05
6.77626e-21 0.0294625 0.00186313 -0.000687523 0.0018228 -7.64658e-05
-1.35525e-20 -0.0294625 0.00186321 9.87114e-05 -0.00025507 -1.24053e-05
2.71051e-20 -0.029578 6.6417e-08 0 0 0
0 0.029578 6.64162e-08 0 0 0
1.35525e-20 -0.0295009 0.00213468 0 0 0
-6.77626e-21 0.0295009 0.00213468 0 0 0
1.35525e-20 0.029587 0.000650923 -0.000896021 0.00223009 3.27761e-05
-2.71051e-20 -0.029587 0.000651142 7.5326e-05 -0.000188922 3.66634e-06
1.35525e-20 0.0295378 0.00203788 -0.000721522 0.0016169 -0.000112231
0 -0.0295378 0.00203791 9.43345e-05 -0.000210355 -1.49186e-05
0 0.0295841 0.00130575 -0.00124679 0.00318805 -2.88373e-05
-1.35525e-20 -0.0295841 0.001306 0.000152204 -0.000398869 -4.51457e-06
0 0.0295849 0.00192062 -0.00110176 0.0027322 -0.000152189
6.77626e-21 -0.0295849 0.00192072 0.000141478 -0.00035907 -1.64764e-05
0 0.029649 0.00216152 0 0 0
0 -0.029649 0.00216153 0 0 0
0 0.0297926 0.000963737 -0.0017566 0.00486316 -4.12711e-05
4.51751e-22 -0.0297926 0.000964021 0.000195136 -0.000565126 -1.03179e-06
0 0.0298094 7.62576e-08 0 0 0
0 -0.0298094 7.62593e-08 0 0 0
-2.25875e-22 -0.0298204 0.000317605 1.59885e-05 -4.43594e-05 -2.25032e-07
6.77626e-22 0.0298204 0.000317475 -0.000841261 0.00241972 -4.15233e-05
4.96926e-21 0.0297852 0.00156831 -0.00168144 0.00467297 -9.49203e-05
-3.16226e-21 -0.0297852 0.00156853 0.000216392 -0.000609356 -6.47069e-06
5.64689e-22 0.0297946 0.00197119 -0.0011406 0.00297379 -0.000124935
0 -0.0297946 0.00197126 0.000146045 -0.00039857 -1.01286e-05
0 -0.0298851 8.57398e-08 0 0 0
6.77626e-21 0.0298851 8.57415e-08 0 0 0
6.77626e-21 0.0298185 0.00219226 0 0 0
-6.77626e-21 -0.0298186 0.00219226 0 0 0
0 -0.0299229 0.00221118 0 0 0
-1.35525e-20 0.0299229 0.00221118 0 0 0
0 -0.0300583 1.01025e-07 0 0 0
0 0.0300583 1.01025e-07 0 0 0
-9.03502e-21 0.030042 0.00125425 -0.00252087 0.00681109 -2.42456e-05
-9.03502e-21 -0.0300421 0.00125455 0.00031006 -0.00084245 -1.45562e-06
2.90411e-21 0.030023 0.00171056 -0.00221234 0.00601143 -0.000108638
0 -0.0300231 0.00171076 0.000288699 -0.000788137 -4.35331e-06
9.03502e-21 0.0300766 0.000656709 -0.00195447 0.00528924 4.92767e-06
-1.35525e-20 -0.0300766 0.000656982 0.000167326 -0.000459706 5.64797e-07
0 0.0301411 0.00011795 -0.000340161 0.000938343 1.33297e-06
1.35525e-20 -0.0301411 0.000118016 2.53661e-06 -5.51573e-06 8.53023e-07
0 0.0301431 9.36971e-08 0 0 0
-6.77626e-21 -0.0301431 9.3695e-08 0 0 0
0 -0.0300722 0.00223824 0 0 0
-1.35525e-20 0.0300722 0.00223824 0 0 0
1.35525e-20 -0.0302709 0.000327948 5.50335e-06 -1.24462e-05 1.72288e-06
0 0.0302709 0.000327843 -0.00127791 0.00350172 -5.45843e-06
0 0.0302588 0.000959241 -0.00279067 0.00759719 -2.47633e-05
0 -0.0302588 0.000959456 0.000321942 -0.00086112 2.13347e-07
0 0.0302233 0.00199378 -0.00168324 0.00466611 3.34657e-05
-2.25875e-21 -0.0302233 0.00199385 0.000231601 -0.000639204 1.27711e-05
0 0.0302514 0.00155263 -0.00287295 0.00786877 3.50743e-05
0 -0.0302514 0.00155281 0.000371429 -0.00100306 1.09808e-05
0 0.0303943 0.00229664 0 0 0
-6.77626e-21 -0.0303944 0.00229665 0 0 0
0 -0.0305071 4.03816e-05 8.68041e-07 -1.88751e-06 2.91909e-07
3.38813e-21 0.0305071 4.03474e-05 -0.000116372 0.000321014 4.5602e-07
0 -0.0305084 2.78803e-08 0 0 0
0 0.0305085 2.78785e-08 0 0 0
0 -0.0305355 2.44804e-08 0 0 0
3.38813e-21 0.0305355 2.44805e-08 0 0 0
6.77626e-21 0.030464 0.00230926 0 0 0
-6.77626e-21 -0.030464 0.00230927 0 0 0
3.38813e-21 0.0305559 2.56048e-08 0 0 0
-3.38813e-21 -0.0305559 2.56052e-08 0 0 0
3.38813e-21 0.0305566 2.16906e-05 -7.82337e-05 0.000201378 -4.76278e-06
-3.38813e-21 -0.0305566 2.17043e-05 2.86044e-07 -8.94673e-07 -1.73588e-07
-2.82344e-22 -0.0305496 0.000656519 0.000197657 -0.000534309 3.18321e-06
2.11758e-22 0.0305496 0.000656265 -0.00242426 0.00662328 -2.09363e-05
1.8823e-22 0.0305132 0.00170673 -0.00295066 0.00808388 3.03979e-05
-5.64689e-22 -0.0305132 0.00170684 0.000391733 -0.00105967 6.7027e-06
7.90564e-22 0.0305476 0.0012451 -0.00343259 0.009384 4.79168e-06
5.64689e-22 -0.0305476 0.00124527 0.000421663 -0.00114009 6.19409e-06
-6.77626e-21 -0.030501 0.00231597 0 0 0
0 0.030501 0.00231597 0 0 0
-3.38813e-21 0.0306237 3.57384e-08 0 0 0
0 -0.0306238 3.57449e-08 0 0 0
3.38813e-21 -0.0306099 0.00219282 0.000135613 -0.000363549 1.29939e-06
3.38813e-21 0.03061 0.00219278 -0.000962912 0.00261978 -1.84034e-08
0 -0.0307226 0.00235616 0 0 0
-3.38813e-21 0.0307226 0.00235617 0 0 0
0 -0.0308383 0.000320955 3.46766e-06 -9.35901e-06 -3.42366e-06
2.71051e-20 0.0308384 0.000320914 -0.00165609 0.00455829 -1.38619e-05
5.64689e-21 0.0308116 0.00198362 -0.00252545 0.00689973 8.71127e-07
-1.12938e-21 -0.0308116 0.00198366 0.0003525 -0.000949327 3.28992e-06
0 -0.0309907 0.00101963 0.000477996 -0.00131926 9.50606e-06
2.71051e-21 0.0309907 0.00101953 -0.00410084 0.0112216 -2.65635e-05
4.51751e-21 0.0309922 0.00150601 -0.00444073 0.0121193 -3.07292e-05
-4.51751e-21 -0.0309923 0.00150608 0.000577677 -0.00157423 -8.91796e-06
-1.35525e-20 0.0310395 9.17131e-08 0 0 0
2.71051e-20 -0.0310395 9.1716e-08 0 0 0
0 0.0310416 0.000119385 -0.000754832 0.00213542 1.06936e-05
0 -0.0310416 0.000119381 1.07474e-06 -2.39298e-06 -1.51153e-06
-6.77626e-21 -0.030965 0.0024001 0 0 0
6.77626e-21 0.030965 0.0024001 0 0 0
0 -0.030982 0.00237275 4.63353e-05 -0.000118361 -1.12556e-06
-6.77626e-21 0.030982 0.00237274 -0.000307583 0.000832926 -1.15951e-05
0 0.0310105 0.00240831 0 0 0
0 -0.0310105 0.00240831 0 0 0
0 0.0310179 0.00233593 -0.000534463 0.00146487 -6.18649e-06
2.03288e-20 -0.0310179 0.00233593 7.4648e-05 -0.000199483 -1.48346e-06
0 -0.0311223 0.000639295 0.000280988 -0.000752523 8.02399e-06
0 0.0311223 0.000639241 -0.00324405 0.00868489 4.38145e-05
0 0.0310526 0.00237695 -0.000464867 0.00120154 -2.34312e-05
-6.77626e-21 -0.0310526 0.00237695 6.9144e-05 -0.000166695 -3.82024e-06
0 -0.0311459 9.7154e-08 0 0 0
-1.35525e-20 0.0311459 9.7152e-08 0 0 0
0 0.031071 0.00241925 0 0 0
6.77626e-21 -0.031071 0.00241926 0 0 0
2.71051e-20 0.0312091 0.00177617 -0.00402881 0.0107014 -0.00020561
2.71051e-20 -0.0312091 0.0017762 0.000552452 -0.00144424 -3.11981e-05
2.71051e-20 0.0312491 0.00122874 -0.00472443 0.012615 -5.26774e-05
0 -0.0312491 0.00122879 0.000595514 -0.00158004 -1.20628e-05
0 -0.0312858 8.40769e-08 0 0 0
-1.35525e-20 0.0312858 8.40688e-08 0 0 0
0 -0.0312917 0.000133801 1.14216e-06 -2.42714e-06 2.06744e-06
0 0.0312917 0.000133814 -0.000983238 0.00265572 1.68655e-05
2.25875e-21 0.0313889 0.00201505 -0.00348573 0.00979949 -0.000147435
2.25875e-21 -0.0313889 0.00201507 0.00048804 -0.00134042 -2.43449e-05
0 0.0313959 0.00247812 0 0 0
0 -0.0313959 0.00247812 0 0 0
4.51751e-21 -0.0314932 0.000408813 0.000107321 -0.000274547 5.18043e-06
-9.03502e-21 0.0314932 0.000408772 -0.00256521 0.00676101 3.63911e-05
-4.51751e-21 -0.0315059 0.00091593 0.000529781 -0.00145664 -2.03531e-05
0 0.0315059 0.000915908 -0.00469714 0.0128837 1.85273e-06
0 0.0314281 0.00241767 -0.000790525 0.00204326 -3.98457e-05
-1.35525e-20 -0.0314281 0.00241768 0.000117561 -0.000283419 -6.49527e-06
-4.51751e-21 0.0315016 0.00151821 -0.00527641 0.0145951 -0.000122355
0 -0.0315016 0.00151824 0.000703234 -0.00191727 -2.48526e-05
2.71051e-20 -0.0314985 0.00234892 0.00015835 -0.000426641 -4.11504e-06
0 0.0314986 0.00234891 -0.00112463 0.00308592 -1.55176e-05
-1.35525e-20 -0.0315086 0.00249848 0 0 0
0 0.0315086 0.00249848 0 0 0
1.35525e-20 0.0316957 0.000127101 -0.000934393 0.00252379 1.60277e-05
-1.35525e-20 -0.0316957 0.000127026 1.08489e-06 -2.30543e-06 1.96377e-06
-1.35525e-20 0.0316993 1.28444e-08 0 0 0
0 -0.0316993 1.28328e-08 0 0 0
2.71051e-20 -0.0317724 0.000610912 0.000322668 -0.000850895 8.5277e-07
-2.71051e-20 0.0317724 0.000610901 -0.00381628 0.0100231 4.2583e-05
0 -0.0317679 0.00121736 0.000704803 -0.00187527 -1.38705e-05
-2.71051e-20 0.0317679 0.00121735 -0.00558994 0.0149437 -5.78201e-05
0 0.0317537 0.00187034 -0.00464497 0.0124869 -0.000210481
0 -0.0317537 0.00187034 0.000642039 -0.00170928 -2.67864e-05
4.06576e-20 -0.0317094 0.00253469 0 0 0
-2.71051e-20 0.0317094 0.00253469 0 0 0
-1.35525e-20 -0.0318341 3.55441e-10 0 0 0
0 0.0318342 3.5764e-10 0 0 0
-1.8823e-22 -0.0317532 0.00228382 0.00036254 -0.00106902 -2.77414e-05
0 0.0317532 0.0022838 -0.00241875 0.0070437 -0.000161449
0 -0.0319513 4.55602e-10 0 0 0
0 0.0319515 4.57813e-10 0 0 0
0 -0.0319524 0.000127644 1.11689e-06 -3.14576e-06 -1.50911e-07
-1.35525e-20 0.0319526 0.000127724 -0.00108437 0.00282867 -1.09422e-05
-1.35525e-20 0.031883 0.00256626 0 0 0
0 -0.031883 0.00256626 0 0 0
-4.51751e-21 -0.0319995 0.000914652 0.000624692 -0.00166273 -6.37465e-06
-9.03502e-21 0.0319996 0.000914645 -0.00541075 0.0146452 -4.3179e-05
-8.13152e-21 -0.0320112 0.000400526 9.37798e-05 -0.000244131 9.74046e-07
1.0842e-20 0.0320112 0.000400506 -0.00282165 0.00735807 1.92612e-06
-1.12938e-21 -0.0320267 0.00227715 0.000435476 -0.00120463 -1.65394e-05
-2.25875e-21 0.0320267 0.00227715 -0.00302271 0.00839682 -0.000148164
0 0.0320296 0.00251389 -0.000933033 0.00256555 -7.62517e-05
0 -0.0320296 0.00251388 0.000125898 -0.000354254 -6.35297e-06
-9.03502e-21 -0.0320975 0.00153751 0.000856187 -0.00229551 4.8104e-06
9.03502e-21 0.0320975 0.0015375 -0.0063607 0.0173741 3.505e-05
0 -0.0320426 0.00259527 0 0 0
6.77626e-21 0.0320426 0.00259528 0 0 0
4.51751e-21 0.0321203 0.00203456 -0.00460895 0.0125956 -0.000113646
4.51751e-21 -0.0321203 0.00203456 0.000653638 -0.00178283 -1.33747e-05
0 -0.032135 0.0023896 0.000340308 -0.000919092 -1.36737e-05
0 0.032135 0.0023896 -0.00240686 0.00662064 -0.000185279
0 0.0322923 0.000126396 -0.00107308 0.00279922 -1.08282e-05
0 -0.0322923 0.000126368 1.10571e-06 -3.11428e-06 -1.49401e-07
-1.35525e-20 0.0323016 2.23509e-09 0 0 0
0 -0.0323016 2.23359e-09 0 0 0
0 -0.0322106 0.00262564 0 0 0
-1.35525e-20 0.0322106 0.00262563 0 0 0
0 -0.0322719 0.00254337 0.000148684 -0.00041837 -7.50278e-06
-1.35525e-20 0.0322719 0.00254337 -0.00110192 0.00302995 -9.00543e-05
1.35525e-20 -0.032418 2.33105e-09 0 0 0
1.35525e-20 0.032418 2.33258e-09 0 0 0
2.25875e-21 -0.0324263 0.000612636 0.000359393 -0.000967636 -2.4173e-07
2.25875e-21 0.0324263 0.000612628 -0.00429116 0.0116422 -2.01794e-05
-4.51751e-21 0.0324222 0.00112458 -0.00638005 0.0174092 -1.4021e-05
-1.807e-20 -0.0324222 0.0011246 0.000785354 -0.00211511 4.52783e-07
0 0.0324121 0.00187572 -0.00573237 0.0156216 -2.22339e-05
2.71051e-20 -0.0324121 0.00187572 0.000800067 -0.00215264 -5.973e-06
0 -0.0323802 0.00265647 0 0 0
1.35525e-20 0.0323802 0.00265646 0 0 0
0 0.0324114 0.0022971 -0.00356899 0.00976854 -9.42831e-05
-1.69407e-21 -0.0324114 0.0022971 0.000512472 -0.00138862 -8.59902e-06
0 -0.032547 2.20758e-09 0 0 0
0 0.032547 2.20888e-09 0 0 0
0 -0.0325489 0.000125731 1.58433e-06 -2.9217e-06 5.2809e-08
1.35525e-20 0.0325489 0.000125761 -0.00111926 0.00298803 4.42158e-06
-1.35525e-20 0.0326034 0.00269726 0 0 0
0 -0.0326035 0.00269726 0 0 0
-1.35525e-20 -0.032737 0.000308379 3.60151e-06 -6.85657e-06 -1.0141e-06
-2.71051e-20 0.032737 0.000308371 -0.00253381 0.00686238 1.4617e-05
9.03502e-21 -0.0327282 0.00154847 0.000987091 -0.00265241 -4.9566e-06
0 0.0327282 0.00154846 -0.00722168 0.0197441 3.16494e-05
0 0.0326738 0.00254252 -0.00189007 0.00522325 -1.65319e-05
-9.03502e-21 -0.0326738 0.00254252 0.00027529 -0.000764014 7.03903e-07
9.03502e-21 0.0327075 0.00206802 -0.00566135 0.0153793 -3.56443e-05
4.51751e-21 -0.0327075 0.00206803 0.000799154 -0.0021571 -7.41842e-06
-6.77626e-21 -0.0327081 0.00271619 0 0 0
0 0.0327081 0.00271619 0 0 0
-4.51751e-21 0.0328421 0.000917798 -0.00632829 0.0172869 -5.5509e-06
0 -0.0328421 0.00091781 0.000731011 -0.00197793 -1.06433e-07
-1.35525e-20 -0.0328866 1.93643e-09 0 0 0
0 0.0328867 1.93676e-09 0 0 0
-1.35525e-20 -0.032889 0.00014943 1.88296e-06 -3.47243e-06 6.27633e-08
1.35525e-20 0.032889 0.00014945 -0.00133009 0.00355088 5.25446e-06
1.93608e-21 0.0329824 0.000542139 -0.00392073 0.0106913 8.07624e-06
1.54886e-20 -0.0329825 0.000542161 0.000259881 -0.000709886 -1.32451e-06
-2.71051e-20 -0.0330372 1.79015e-09 0 0 0
0 0.0330372 1.79024e-09 0 0 0
0 0.0329464 0.00275986 0 0 0
2.71051e-20 -0.0329464 0.00275986 0 0 0
-2.25875e-22 -0.0329866 0.00235418 0.000623194 -0.00166804 -1.44736e-05
5.64689e-22 0.0329866 0.00235417 -0.00431024 0.0116862 -9.92841e-05
-2.71051e-20 0.0330505 0.0012313 -0.00730137 0.0200046 -5.46757e-06
0 -0.0330505 0.00123132 0.000936997 -0.00254681 -9.38453e-06
0 0.03302 0.00190093 -0.00662079 0.0180756 -6.80895e-05
0 -0.03302 0.00190094 0.00093372 -0.00251261 -2.05981e-05
0 -0.0332006 2.02157e-09 0 0 0
0 0.0332007 2.02156e-09 0 0 0
-6.77626e-21 -0.0333521 0.000302632 8.02585e-05 -0.000219613 -4.24768e-07
0 0.0333521 0.00030262 -0.00255231 0.00697323 3.32744e-06
2.25875e-21 0.0333579 0.000916518 -0.00683271 0.0185912 2.73893e-06
-4.51751e-21 -0.0333579 0.000916545 0.000792893 -0.00213297 -6.09269e-06
-3.38813e-21 0.0332515 0.00281589 0 0 0
3.38813e-21 -0.0332516 0.00281589 0 0 0
4.51751e-21 -0.0333432 0.00156301 0.00112327 -0.00301289 -1.64922e-05
0 0.0333432 0.00156299 -0.00814596 0.0221832 -6.80279e-06
0 0.0332953 0.00276465 -0.000780391 0.0020775 -2.27508e-05
0 -0.0332954 0.00276461 0.000111307 -0.000298288 -1.84521e-06
-3.72694e-20 0.0333124 0.00282716 0 0 0
3.38813e-21 -0.0333125 0.00282717 0 0 0
1.12938e-20 0.03334 0.00259894 -0.00296418 0.00790125 -9.0398e-05
6.77626e-21 -0.03334 0.00259895 0.000424197 -0.0011328 -9.08965e-06
9.03502e-21 0.0333776 0.00214933 -0.00635954 0.0174999 -0.000158033
1.12938e-20 -0.0333776 0.00214934 0.000913746 -0.00248795 -3.28347e-05
0 -0.0334909 2.97183e-09 0 0 0
-1.35525e-20 0.0334909 2.97138e-09 0 0 0
0 -0.0336619 3.20036e-09 0 0 0
2.71051e-20 0.033662 3.19979e-09 0 0 0
0 0.0336674 0.000602348 -0.00500851 0.0136982 -2.43566e-05
0 -0.0336674 0.000602386 0.000435039 -0.00117635 -5.65978e-06
0 0.0336288 0.00191783 -0.00755598 0.0206665 -0.000106893
0 -0.0336288 0.00191785 0.00107638 -0.0029031 -3.16776e-05
2.71051e-20 0.0336642 0.00123333 -0.00807596 0.0220987 -3.95934e-05
2.71051e-20 -0.0336642 0.00123337 0.00105061 -0.00283637 -1.64123e-05
-2.71051e-20 0.0335882 0.00287788 0 0 0
0 -0.0335883 0.00287789 0 0 0
2.71051e-20 0.0336882 0.00242285 -0.00505557 0.0136908 -0.000156291
2.71051e-20 -0.0336882 0.00242287 0.00073811 -0.00197593 -3.22473e-05
0 -0.0338384 2.82135e-09 0 0 0
0 0.0338384 2.82081e-09 0 0 0
-1.35525e-20 0.0338118 0.00291884 0 0 0
0 -0.0338119 0.00291885 0 0 0
-2.25875e-21 -0.0339781 0.000302716 8.74386e-05 -0.000235474 -8.92865e-07
2.25875e-21 0.0339781 0.000302698 -0.00273638 0.00745919 -3.22336e-05
-2.25875e-21 -0.0339808 0.000914847 0.000868963 -0.00234035 -1.00804e-05
-4.51751e-21 0.0339808 0.000914783 -0.00741175 0.0201743 -5.78727e-05
0 0.0339744 0.00155885 -0.00905738 0.0246483 -7.40627e-05
4.51751e-21 -0.0339744 0.0015589 0.00125556 -0.00337604 -2.63488e-05
-2.03288e-21 0.0339479 0.0026773 -0.00350785 0.00900211 -5.0989e-05
1.12938e-21 -0.033948 0.00267732 0.000518834 -0.00130141 -1.36198e-05
0 0.0339878 0.00215892 -0.007626 0.020677 -0.000105614
2.25875e-21 -0.0339878 0.00215894 0.00109731 -0.0029293 -3.70011e-05
-1.35525e-20 0.0341105 1.81896e-09 0 0 0
0 -0.0341105 1.81909e-09 0 0 0
0 0.034033 0.00295946 0 0 0
6.77626e-21 -0.0340333 0.00295951 0 0 0
0 -0.0342884 1.43974e-09 0 0 0
2.71051e-20 0.0342884 1.43965e-09 0 0 0
0 -0.0342943 0.000599028 0.000475257 -0.001274 -5.14549e-06
0 0.0342944 0.000598959 -0.00537124 0.014601 -4.06471e-05
4.06576e-20 0.0342165 0.00299309 0 0 0
1.35525e-20 -0.0342167 0.00299313 0 0 0
2.71051e-20 0.0342949 0.00244902 -0.00592875 0.0160667 -0.00014706
2.71051e-20 -0.0342949 0.00244904 0.000875073 -0.002324 -3.43377e-05
1.16165e-20 -0.034362 0.00129523 0.00126235 -0.00338482 -2.01835e-05
-1.16165e-20 0.034362 0.00129516 -0.00932815 0.0253739 -5.26463e-05
0 -0.0343655 0.00179195 0.00133346 -0.00358137 -2.97253e-05
-9.68038e-21 0.0343655 0.00179189 -0.00935895 0.025473 -7.51758e-05
0 0.0343332 0.00301467 0 0 0
0 -0.0343333 0.00301469 0 0 0
-1.35525e-20 -0.0344682 1.2841e-09 0 0 0
2.71051e-20 0.0344682 1.284e-09 0 0 0
-4.51751e-21 -0.0345084 0.000909544 0.00093458 -0.00250441 -1.42084e-05
1.35525e-20 0.0345085 0.000909463 -0.0078588 0.0213325 -4.49504e-05
4.51751e-21 0.0345181 0.00215903 -0.0085116 0.0231051 -0.000134407
-1.35525e-20 -0.0345181 0.00215907 0.00123839 -0.00330782 -4.18393e-05
0 -0.0346072 0.000300839 9.88096e-05 -0.000263402 1.20131e-08
-2.25875e-21 0.0346072 0.000300792 -0.0028974 0.0078317 -1.64103e-05
0 0.0346152 0.0015431 -0.0102281 0.0277919 -3.76621e-05
2.71051e-20 -0.0346152 0.00154318 0.00144669 -0.00387786 -2.49769e-05
-4.51751e-22 0.0345577 0.00272973 -0.00437331 0.0115391 -0.000122108
-6.77626e-22 -0.0345578 0.00272972 0.00065977 -0.00169403 -2.30392e-05
-6.77626e-21 0.0345982 0.00306315 0 0 0
0 -0.0345983 0.00306318 0 0 0
-1.35525e-20 0.0347357 9.21209e-10 0 0 0
-1.35525e-20 -0.0347357 9.21261e-10 0 0 0
6.77626e-21 0.0346817 0.0030786 0 0 0
-6.77626e-21 -0.0346818 0.00307861 0 0 0
0 -0.0349166 7.64663e-10 0 0 0
0 0.0349166 7.64607e-10 0 0 0
9.03502e-21 -0.0349264 0.000691229 0.00071676 -0.00191845 -1.68111e-05
9.03502e-21 0.0349264 0.000691147 -0.0068274 0.0184614 -3.85948e-05
9.03502e-21 0.0349292 0.00121456 -0.0095597 0.0259056 -5.12526e-05
2.25875e-21 -0.0349292 0.00121466 0.00126651 -0.00339555 -2.87067e-05
2.25875e-21 0.0349324 0.00185908 -0.0100553 0.0272982 -6.41963e-05
-2.25875e-21 -0.0349324 0.00185915 0.00145103 -0.00388174 -3.81382e-05
-3.04932e-20 0.0348918 0.00311689 0 0 0
3.38813e-21 -0.0348919 0.00311691 0 0 0
-9.03502e-21 0.0349974 0.00246603 -0.00714242 0.0194649 -0.000114285
-4.51751e-21 -0.0349975 0.00246604 0.00107226 -0.00285429 -4.29545e-05
-1.35525e-20 -0.0350985 7.00968e-10 0 0 0
-2.71051e-20 0.0350985 7.00918e-10 0 0 0
0 0.0350013 0.00286026 -0.00336307 0.00954834 -0.000163139
-4.51751e-21 -0.0350014 0.00286027 0.00053529 -0.00147298 -3.73888e-05
6.77626e-21 -0.0352407 0.000295921 0.000111326 -0.000295047 6.42917e-07
4.51751e-21 0.0352407 0.000295875 -0.00302594 0.00814379 -1.5117e-05
0 0.0352487 0.000893704 -0.00876412 0.0236609 -5.52608e-05
2.71051e-20 -0.0352487 0.000893811 0.0010623 -0.00284219 -3.37894e-05
3.38813e-20 0.0351346 0.00316138 0 0 0
-1.52466e-20 -0.0351347 0.0031614 0 0 0
-2.71051e-20 0.0352503 0.00152796 -0.0110743 0.0299902 -7.22854e-05
2.71051e-20 -0.0352503 0.00152806 0.00157146 -0.00422494 -4.13579e-05
0 0.0351466 0.00316358 0 0 0
0 -0.0351467 0.00316359 0 0 0
0 0.0351792 0.00281931 -0.00425057 0.0119269 -0.000191888
-1.35525e-20 -0.0351793 0.00281933 0.000666388 -0.00178587 -4.20746e-05
1.69407e-21 0.0351514 0.0031503 -0.000182828 0.000537123 -1.22265e-05
0 -0.0351514 0.0031504 2.97411e-05 -7.92375e-05 -1.9172e-06
0 0.0352563 0.002173 -0.0102066 0.0276851 1.00575e-05
0 -0.0352563 0.00217304 0.00150716 -0.00400336 -3.95547e-05
0 -0.0352268 0.00317818 0 0 0
-8.47033e-22 0.0352273 0.00317828 0 0 0
-1.35525e-20 0.0353735 5.21769e-10 0 0 0
0 -0.0353735 5.21782e-10 0 0 0
6.77626e-21 0.0353094 0.00290198 -0.00372 0.0105941 -0.000216248
1.35525e-20 -0.0353094 0.00290198 0.00059459 -0.00158363 -4.20857e-05
-2.71051e-20 -0.0355533 4.57347e-10 0 0 0
-2.71051e-20 0.0355533 4.57338e-10 0 0 0
4.51751e-21 0.0355671 0.001196 -0.0100887 0.027381 -5.88885e-05
0 -0.0355671 0.00119611 0.00134751 -0.00362261 -3.41139e-05
0 0.0355696 0.00184888 -0.0109641 0.0298585 -4.0315e-05
-2.25875e-21 -0.0355696 0.00184895 0.00159804 -0.00428813 -4.63376e-05
2.25875e-21 -0.0356125 0.00062238 0.00060869 -0.00162121 -1.36934e-05
-4.51751e-21 0.0356125 0.0006223 -0.00626382 0.0170105 -2.365e-05
1.12938e-20 0.0355744 0.00250526 -0.00802578 0.0217858 -7.49533e-05
-2.25875e-21 -0.0355744 0.00250528 0.00122126 -0.00321748 -4.83381e-05
0 -0.0355282 0.0032331 0 0 0
-6.77626e-21 0.0355283 0.0032331 0 0 0
0 -0.0355416 0.00321426 4.88316e-05 -0.00012928 -4.76326e-06
0 0.0355417 0.00321429 -0.00032144 0.000893034 -2.8691e-05
4.51751e-21 0.0355809 0.00287392 -0.00470657 0.0129414 -0.000150321
-4.51751e-21 -0.0355809 0.00287394 0.000742229 -0.00193439 -3.85246e-05
-3.38813e-21 0.0355739 0.00316255 -0.00106045 0.00289863 -3.52944e-05
-3.38813e-21 -0.0355739 0.00316242 0.000166972 -0.000436132 -9.46015e-06
0 -0.035567 0.00324017 0 0 0
6.77626e-21 0.035567 0.00324016 0 0 0
0 -0.0357313 4.0682e-10 0 0 0
2.71051e-20 0.0357313 4.06801e-10 0 0 0
0 0.0356067 0.00321938 -0.000421942 0.00114314 -2.32352e-06
6.77626e-21 -0.0356068 0.00321935 6.732e-05 -0.000174984 -2.00983e-06
0 0.03562 0.00324983 0 0 0
-3.38813e-21 -0.0356201 0.00324986 0 0 0
4.51751e-21 -0.0358767 0.000193584 2.744e-06 -4.70872e-06 1.00332e-06
-1.35525e-20 0.0358767 0.000193565 -0.00186092 0.00522396 1.01886e-05
0 0.035885 0.00087563 -0.00902541 0.0244369 -2.93138e-05
-2.71051e-20 -0.035885 0.000875722 0.00111451 -0.00296171 -1.51854e-05
2.71051e-20 0.0358905 0.00150745 -0.0116125 0.0317767 -8.11139e-05
-2.71051e-20 -0.0358906 0.00150754 0.00166235 -0.00451924 -4.47742e-05
0 0.035888 0.00216762 -0.0110949 0.0303558 -1.88238e-05
0 -0.035888 0.00216766 0.00166817 -0.00445395 -5.88603e-05
0 0.0358662 0.00295245 -0.00466332 0.0126085 -0.000106278
-1.35525e-20 -0.0358662 0.00295245 0.00074616 -0.00189864 -3.12601e-05
1.35525e-20 0.0360202 2.4784e-10 0 0 0
1.35525e-20 -0.0360202 2.47859e-10 0 0 0
6.77626e-21 -0.036024 0.00332349 0 0 0
0 0.0360241 0.0033235 0 0 0
0 -0.0361958 1.9684e-10 0 0 0
-2.71051e-20 0.0361958 1.96811e-10 0 0 0
6.77626e-21 -0.0362011 0.000563603 0.0005546 -0.00147525 -1.56496e-06
-2.25875e-21 0.0362011 0.00056354 -0.00597015 0.0162416 -5.16617e-06
-1.35525e-20 -0.03606 0.0032691 0.000146102 -0.000379762 -4.36186e-06
-2.71051e-20 0.03606 0.00326916 -0.000916651 0.00248343 -5.04774e-06
9.03502e-21 0.036206 0.00117906 -0.0105188 0.0286054 -5.4814e-05
-4.51751e-21 -0.036206 0.00117914 0.00143136 -0.00382876 -2.34268e-05
0 0.0362044 0.00184432 -0.0116919 0.0319268 -7.00389e-05
-2.25875e-21 -0.0362045 0.00184437 0.00174087 -0.00464631 -5.70145e-05
6.77626e-21 0.0361886 0.0025326 -0.00900647 0.0243212 -0.000131865
0 -0.0361886 0.0025326 0.00138774 -0.00361715 -6.45782e-05
0 0.0361316 0.00334311 0 0 0
0 -0.0361316 0.00334312 0 0 0
-4.51751e-21 0.0361686 0.00293576 -0.00561008 0.014991 -0.000160619
-6.77626e-21 -0.0361686 0.00293578 0.000886503 -0.00223883 -4.81352e-05
-1.35525e-20 0.0361566 0.00314793 -0.0028134 0.00751382 -7.72535e-05
0 -0.0361566 0.00314778 0.000443545 -0.00112575 -2.42265e-05
2.71051e-20 -0.0363723 1.67552e-10 0 0 0
-2.71051e-20 0.0363723 1.67523e-10 0 0 0
0 0.0362561 0.00328629 -0.00132701 0.00345954 -4.126e-05
0 -0.0362563 0.00328625 0.000205451 -0.000518894 -1.09828e-05
-6.77626e-21 0.0363064 0.00337495 0 0 0
6.77626e-21 -0.0363066 0.003375 0 0 0
9.03502e-21 -0.0365138 0.000190575 1.76226e-06 -5.11124e-06 -2.27221e-06
-9.03502e-21 0.0365138 0.000190566 -0.0019057 0.00516071 3.39643e-05
2.71051e-20 0.0365218 0.000862039 -0.00935232 0.0253087 -4.02204e-05
0 -0.0365218 0.000862106 0.00116293 -0.00310099 1.30854e-05
2.71051e-20 0.0365244 0.00149871 -0.012222 0.0332763 -7.06087e-05
-2.71051e-20 -0.0365244 0.00149876 0.00180997 -0.00479892 -4.62227e-05
2.71051e-20 0.0365144 0.00218215 -0.0119412 0.0325856 -0.000108822
-2.71051e-20 -0.0365144 0.00218218 0.00183828 -0.00485272 -7.76165e-05
4.06576e-20 0.0364787 0.00289846 -0.00694637 0.0185125 -0.000270891
0 -0.0364787 0.00289841 0.00110201 -0.00275685 -7.82521e-05
-1.35525e-20 0.0366527 8.42396e-11 0 0 0
1.35525e-20 -0.0366527 8.42454e-11 0 0 0
-8.13152e-21 0.036569 0.00323497 -0.00321627 0.00837465 -0.000124526
8.13152e-21 -0.036569 0.00323494 0.000506481 -0.00124811 -3.13465e-05
1.35525e-20 -0.0365533 0.00341998 0 0 0
2.71051e-20 0.0365534 0.00341998 0 0 0
6.77626e-21 0.0367898 0.00059899 -0.00657091 0.0177358 -1.56062e-05
1.807e-20 -0.0367898 0.000599027 0.000651387 -0.00174762 1.58827e-05
-2.71051e-20 -0.0368341 5.55828e-11 0 0 0
-2.71051e-20 0.0368341 5.55766e-11 0 0 0
-4.51751e-21 0.0368407 0.00116982 -0.0109728 0.0297258 -7.96727e-05
2.25875e-21 -0.0368407 0.00116987 0.00152841 -0.00404774 -9.22022e-06
-2.25875e-21 0.0368347 0.0018451 -0.0124917 0.0339516 -0.000103909
-4.51751e-21 -0.0368347 0.00184514 0.00191081 -0.00502133 -6.54835e-05
-2.25875e-21 0.0368044 0.00255426 -0.00999476 0.02695 -0.000185251
6.77626e-21 -0.0368045 0.00255425 0.00156221 -0.00405706 -8.42346e-05
-2.71051e-20 0.0367776 0.00346083 0 0 0
2.71051e-20 -0.0367778 0.00346085 0 0 0
2.71051e-21 -0.0368391 0.00303501 0.000967942 -0.00246029 -6.58396e-05
-4.06576e-21 0.0368391 0.00303502 -0.00614446 0.016346 -0.000194024
-1.35525e-20 -0.0370199 4.78266e-11 0 0 0
-2.71051e-20 0.0370199 4.78194e-11 0 0 0
4.51751e-21 -0.0371489 0.000281532 0.000127724 -0.000347686 -2.37624e-06
-2.25875e-21 0.0371489 0.000281513 -0.00325998 0.00852651 3.37671e-05
0 0.0371548 0.000855733 -0.00962535 0.0260124 -8.16985e-05
0 -0.0371548 0.000855772 0.0012089 -0.00325628 5.20526e-05
0 0.0371549 0.00149544 -0.012859 0.0347547 -0.000129088
0 -0.0371549 0.00149548 0.00196471 -0.00511907 -5.68297e-05
0 0.037144 0.00218136 -0.0130115 0.0353658 -0.000105892
2.71051e-20 -0.0371441 0.00218137 0.00204168 -0.0053402 -8.11012e-05
-3.38813e-20 0.0370561 0.00351158 0 0 0
-3.38813e-21 -0.0370564 0.00351163 0 0 0
1.35525e-20 -0.03727 2.98601e-11 0 0 0
0 0.0372701 2.98577e-11 0 0 0
-2.71051e-20 0.0371711 0.00278346 -0.00975675 0.0259644 -0.000216331
-2.71051e-20 -0.0371712 0.00278344 0.00153218 -0.00392511 -0.000100451
1.35525e-20 -0.0371161 0.00352251 0 0 0
-1.01644e-20 0.0371162 0.00352254 0 0 0
-4.51751e-21 0.0371348 0.00333234 -0.0031462 0.00819311 -4.42527e-05
9.03502e-21 -0.0371348 0.00333228 0.000508404 -0.00122013 -3.19366e-05
0 -0.0374605 2.2222e-11 0 0 0
-2.71051e-20 0.0374606 2.22185e-11 0 0 0
9.03502e-21 -0.0374674 0.000637921 0.00081528 -0.00221592 4.18956e-05
-9.03502e-21 0.0374674 0.000637907 -0.00750162 0.0202223 -3.88013e-05
0 0.0374702 0.00116479 -0.0113855 0.030761 -0.000102659
-2.25875e-21 -0.0374702 0.00116482 0.0016217 -0.00428559 4.95735e-06
0 0.0374664 0.00184005 -0.0133008 0.0360188 -0.000113875
-5.64689e-21 -0.0374664 0.00184006 0.00208316 -0.00542799 -6.85074e-05
3.38813e-21 0.0374681 0.0024973 -0.0118596 0.0319361 -0.000135593
-1.12938e-21 -0.0374682 0.00249729 0.00187435 -0.00484586 -8.98922e-05
-6.77626e-21 0.0374674 0.00307432 -0.00721072 0.0189597 -0.000143015
-5.64689e-21 -0.0374674 0.00307432 0.00115058 -0.00286313 -7.32483e-05
0 0.0374247 0.00357873 0 0 0
-1.35525e-20 -0.0374247 0.00357874 0 0 0
1.35525e-20 -0.0376529 1.86798e-11 0 0 0
-1.35525e-20 0.0376529 1.86765e-11 0 0 0
-9.03502e-21 -0.0377742 0.000280176 0.000132176 -0.000361103 -3.59832e-06
4.51751e-21 0.0377742 0.000280173 -0.00333099 0.00876612 5.79427e-05
2.71051e-20 -0.0377819 0.000851964 0.00125258 -0.00341754 7.53487e-05
0 0.0377819 0.000851941 -0.00978952 0.0265943 -8.81193e-05
0 0.0377837 0.0014916 -0.0134715 0.0362197 -0.000115141
2.71051e-20 -0.0377837 0.00149162 0.00210402 -0.00545676 -5.19272e-05
-6.77626e-21 -0.03766 0.00362143 0 0 0
0 0.0376601 0.00362145 0 0 0
0 0.0377819 0.00216984 -0.013908 0.0378431 -0.000108797
-2.71051e-20 -0.0377819 0.00216984 0.0022325 -0.0058164 -8.52067e-05
0 0.0377772 0.00279747 -0.0112058 0.0298017 -0.000113853
-2.71051e-20 -0.0377773 0.00279747 0.0017642 -0.00449279 -9.57606e-05
-1.35525e-20 -0.0378849 1.07515e-11 0 0 0
4.06576e-20 0.0378849 1.07501e-11 0 0 0
-6.77626e-21 0.0377229 0.00353539 -0.00168693 0.00416367 -4.60097e-05
6.77626e-21 -0.0377229 0.00353515 0.000286576 -0.000640993 -2.28179e-05
-2.25875e-21 -0.0377798 0.00335648 0.000822795 -0.00189172 -6.19284e-05
5.64689e-21 0.0377798 0.00335651 -0.00491694 0.0123339 -0.000129508
6.77626e-21 0.0377787 0.00364282 0 0 0
0 -0.0377788 0.00364285 0 0 0
-2.71051e-20 -0.0380777 7.23339e-12 0 0 0
0 0.0380777 7.23213e-12 0 0 0
0 -0.0380891 0.000630768 0.000837892 -0.00229822 4.53125e-05
0 0.0380891 0.000630766 -0.00757783 0.0204921 -3.34142e-05
0 -0.0380959 0.00115845 0.00170563 -0.00452318 8.46057e-06
0 0.0380959 0.00115844 -0.0117412 0.0316896 -8.78165e-05
7.90564e-21 0.0380968 0.00183414 -0.0140516 0.0379055 -9.95908e-05
-2.25875e-21 -0.0380968 0.00183414 0.00224413 -0.00582662 -6.94905e-05
0 -0.0379953 0.00368205 0 0 0
2.71051e-20 0.0379953 0.00368205 0 0 0
0 0.0380943 0.00250914 -0.0129404 0.0348232 -0.000149127
-1.12938e-21 -0.0380943 0.00250913 0.00208137 -0.00534754 -0.000102423