# U  POINT_DATA 50532
# x  y  z  U_x  U_y  U_z
-0.0106418 1.35525e-20 6.54156e-08 0 0 0
0.0106418 -1.35525e-20 6.54156e-08 0 0 0
-0.0106418 1.69407e-21 0.000314268 0 0 0
0.0106418 -5.0822e-21 0.000314344 0 0 0
-0.0106418 1.69407e-21 0.000346265 0 0 0
0.0106418 6.77626e-21 0.000346349 0 0 0
-0.0106418 1.35525e-20 0.000664313 0 0 0
0.0106418 2.71051e-20 0.000664474 0 0 0
0.0106696 -1.69407e-21 0.000329749 -0.000110534 0.000282448 -7.61402e-06
-0.0106696 0 0.000329666 5.03238e-07 -1.28705e-06 -1.50012e-07
-0.0106418 0 0.000994725 0 0 0
0.0106418 -1.86347e-20 0.000994893 0 0 0
-0.0106418 0 0.00102871 0 0 0
0.0106418 0 0.00102888 0 0 0
-0.0106651 0 0.00100861 1.72228e-05 -4.35776e-05 2.47559e-08
0.0106651 -6.77626e-21 0.00100878 -0.000189908 0.000503506 -7.6566e-06
-0.0106418 0 0.00135928 0 0 0
0.0106418 0 0.00135945 0 0 0
-0.0106418 0 0.00170832 0 0 0
0.0106418 -8.47033e-21 0.00170841 0 0 0
-0.0106418 0 0.00174301 0 0 0
0.0106418 0 0.00174309 0 0 0
-0.0106634 1.69407e-21 0.0017166 1.76935e-05 -4.34677e-05 -7.18125e-07
0.0106634 -1.35525e-20 0.00171669 -0.000169141 0.000446035 4.92446e-07
0.0106417 0 0.002087 0 0 0
-0.0106417 0 0.002087 0 0 0
0.0108523 -4.06576e-20 6.90498e-08 0 0 0
-0.0108523 -2.71051e-20 6.90496e-08 0 0 0
-0.0108538 -4.51751e-21 0.000983453 0.000150126 -0.000381404 4.4142e-07
0.0108538 -4.51751e-21 0.000983665 -0.00165595 0.00439936 -6.33252e-05
-0.0109302 1.12938e-21 0.000328472 1.80031e-05 -4.82344e-05 -7.66175e-07
0.0109302 -1.01644e-20 0.000328579 -0.000995197 0.00258524 -5.29249e-05
-0.010876 6.77626e-21 0.00165245 0.00018403 -0.000462676 -5.29345e-06
0.010876 -4.51751e-21 0.0016526 -0.00177979 0.00473545 5.17261e-06
-0.0110233 0 5.24962e-08 0 0 0
0.0110233 -6.77626e-21 5.24948e-08 0 0 0
-0.0108444 6.77626e-21 0.00218791 0 0 0
0.0108444 -1.35525e-20 0.00218792 0 0 0
-0.010932 -6.77626e-21 0.00223158 0 0 0
0.0109321 0 0.0022316 0 0 0
-0.0109511 6.77626e-21 0.00214941 5.94831e-05 -0.000163581 -5.10992e-07
0.0109511 -6.77626e-21 0.00214943 -0.000575383 0.00158706 -2.59057e-07
-0.0111742 -1.35525e-20 4.6956e-08 0 0 0
0.0111742 0 4.69546e-08 0 0 0
-0.0111378 9.03502e-21 0.00125156 0.000298172 -0.000804451 1.21691e-06
0.0111378 6.77626e-21 0.00125179 -0.00323278 0.00878453 -2.40141e-05
-0.0111894 -2.25875e-21 0.000675217 0.000156462 -0.000424059 2.18151e-06
0.0111894 -5.64689e-21 0.000675418 -0.00247201 0.00672439 -2.63845e-05
0.0112788 0 0.000114353 -0.000684392 0.00192871 8.52488e-06
-0.0112788 0 0.000114331 1.01014e-06 -2.59267e-06 -8.86742e-07
0.0112885 -1.35525e-20 3.37062e-08 0 0 0
-0.0112886 1.35525e-20 3.37058e-08 0 0 0
-0.0111945 0 0.00167213 0.000331594 -0.00090902 -3.43948e-07
0.0111945 0 0.00167231 -0.00336568 0.00923454 -1.33763e-05
-0.011163 1.12938e-21 0.00198697 0.000226917 -0.000617733 -1.68048e-06
0.011163 6.77626e-21 0.00198706 -0.00220451 0.00605367 -6.86387e-06
-0.011131 0 0.00233069 0 0 0
0.0111311 -2.71051e-20 0.00233071 0 0 0
0.0114369 0 0.000317029 -0.00185811 0.00515533 5.54848e-06
-0.0114369 2.71051e-20 0.000316923 2.77301e-06 -7.31481e-06 -1.41332e-06
-0.011421 0 0.000929721 0.000365768 -0.00102158 7.08306e-06
0.011421 -2.71051e-20 0.000929939 -0.00440734 0.0120579 -2.01069e-05
-0.0114038 0 0.0015068 0.000459418 -0.00127013 2.39595e-06
0.0114039 0 0.00150698 -0.00480384 0.0131591 -2.36537e-05
-0.0113457 -6.77626e-21 0.00243757 0 0 0
0.0113458 -6.77626e-21 0.00243761 0 0 0
0.0116363 -1.35525e-20 1.34764e-08 0 0 0
-0.0116364 0 1.34773e-08 0 0 0
0.0116375 -1.35525e-20 9.54413e-05 -0.000571299 0.00161 7.11618e-06
-0.0116375 1.35525e-20 9.54289e-05 8.43268e-07 -2.16437e-06 -7.40255e-07
-0.0114304 6.77626e-21 0.00247976 0 0 0
0.0114304 6.77626e-21 0.00247975 0 0 0
-0.0115075 -7.90564e-21 0.00225285 0.000271892 -0.000654914 -1.5898e-05
0.0115075 1.12938e-21 0.00225289 -0.00240955 0.00634858 -0.000155651
0.01173 0 3.26074e-09 0 0 0
-0.0117301 0 3.25931e-09 0 0 0
-0.0117195 -2.25875e-21 0.000610218 0.0002254 -0.000610824 3.04176e-07
0.0117195 4.51751e-21 0.000610384 -0.00371899 0.0100959 -1.51236e-05
-0.0117028 4.51751e-21 0.00122422 0.00052571 -0.00141863 -7.8285e-08
0.0117029 -4.51751e-21 0.00122442 -0.00565961 0.0154449 -1.87995e-06
0.0118194 0 8.96942e-05 -0.000743375 0.00195109 3.4389e-06
-0.0118195 1.35525e-20 8.96941e-05 1.00234e-06 -2.16057e-06 1.31041e-07
0.0118199 -1.35525e-20 3.03241e-09 0 0 0
-0.01182 1.35525e-20 3.03105e-09 0 0 0
-0.0116772 -2.25875e-21 0.0018372 0.000494421 -0.00132057 -8.581e-06
0.0116772 -2.25875e-21 0.00183732 -0.00479603 0.0131256 -4.81069e-05
-0.0116033 0 0.0025659 0 0 0
0.0116034 0 0.00256591 0 0 0
0.0120204 0 0.000307092 -0.00248754 0.00651125 -3.85028e-06
-0.0120205 0 0.000307025 3.2089e-06 -7.45408e-06 1.97089e-07
-0.0117486 -1.35525e-20 0.00263818 0 0 0
0.0117487 1.35525e-20 0.00263823 0 0 0
-0.0120156 -2.71051e-20 0.000916995 0.000545658 -0.00145158 -4.03036e-06
0.0120156 0 0.000917127 -0.00624627 0.0170014 -3.97248e-05
-0.0118319 0 0.00229967 0.000376864 -0.000987083 -1.64661e-05
0.011832 -7.52918e-21 0.00229972 -0.003476 0.00948684 -0.000151033
-0.0117787 -1.35525e-20 0.00256194 0.0001086 -0.000297143 -1.41788e-06
0.0117789 0 0.00256195 -0.00101731 0.00283069 -2.75442e-05
-0.0119887 -2.71051e-20 0.00155402 0.00073964 -0.001954 -5.78038e-06
0.0119887 0 0.00155414 -0.0072512 0.0197715 7.94334e-05
-0.012032 0 0.00210266 0.000587759 -0.00159639 -2.18989e-05
0.0120321 0 0.00210273 -0.00552688 0.0152933 -0.000122911
0.0122392 1.35525e-20 1.95038e-09 0 0 0
-0.0122392 1.35525e-20 1.9503e-09 0 0 0
0.0122409 0 8.16586e-05 -0.000676784 0.00177631 3.13085e-06
-0.012241 -1.35525e-20 8.16739e-05 9.12721e-07 -1.96739e-06 1.19325e-07
-0.0119871 -2.71051e-20 0.00253932 0.000249301 -0.000683875 -7.85218e-06
0.0119872 0 0.00253936 -0.0023877 0.0065937 -0.000115511
0.012321 0 1.7426e-09 0 0 0
-0.0123211 -1.35525e-20 1.74255e-09 0 0 0
-0.0120125 0 0.00276933 0 0 0
0.0120125 0 0.00276934 0 0 0
-0.0123328 -6.77626e-21 0.000603507 0.000301183 -0.000805186 -2.37287e-06
0.0123328 1.12938e-21 0.000603593 -0.00478752 0.0128746 -3.45061e-05
-0.0120726 2.71051e-20 0.00270723 0.00010948 -0.000299552 -1.42938e-06
0.0120726 0 0.00270723 -0.00102538 0.00285316 -2.77628e-05
-0.0123288 4.51751e-21 0.00123238 0.00073363 -0.00194544 -1.18163e-05
0.0123288 2.25875e-21 0.00123249 -0.00769947 0.0208789 -3.10604e-05
0.0124027 -1.35525e-20 1.58622e-09 0 0 0
-0.0124028 0 1.58612e-09 0 0 0
0.012405 1.35525e-20 7.77801e-05 -0.000735874 0.00194331 -2.73743e-06
-0.0124051 0 7.78041e-05 7.07471e-07 -2.01581e-06 1.18793e-07
-0.0123347 -1.12938e-21 0.00185416 0.00079908 -0.00211045 -2.59571e-05
0.0123347 -9.03502e-21 0.00185424 -0.00765712 0.020824 -6.52372e-05
-0.0121506 -1.35525e-20 0.00283805 0 0 0
0.0121507 -1.35525e-20 0.00283809 0 0 0
-0.0123065 4.51751e-21 0.0024016 0.000529151 -0.00138783 -2.31951e-05
0.0123065 -1.12938e-21 0.00240165 -0.00493296 0.0133572 -0.000112407
-0.0122685 0 0.00289771 0 0 0
0.0122687 -2.71051e-20 0.00289778 0 0 0
-0.0123168 1.35525e-20 0.00277206 0.000206726 -0.000517952 -1.00945e-05
0.012317 0 0.00277207 -0.00184911 0.00487518 -4.75148e-05
0.0126427 -2.71051e-20 0.000300463 -0.00277934 0.00736523 -2.20839e-05
-0.0126427 0 0.00030044 2.66273e-06 -7.75679e-06 1.72242e-07
-0.0126591 -5.42101e-20 0.000913397 0.000669548 -0.00179777 -5.77953e-06
0.0126591 0 0.000913462 -0.00775802 0.020953 -7.24678e-05
-0.0126619 0 0.00155273 0.000986001 -0.00259491 -3.1847e-05
0.0126619 0 0.00155279 -0.00958915 0.0259123 -8.97875e-05
-0.0125265 2.71051e-20 0.00271714 0.000425963 -0.0010582 -1.97515e-05
0.0125266 0 0.00271717 -0.00382902 0.0100068 -8.65155e-05
0.012467 1.35525e-20 0.00299777 0 0 0
-0.012467 0 0.0029978 0 0 0
-0.0126644 0 0.00218642 0.000902659 -0.0023445 -4.51218e-05
0.0126645 0 0.00218646 -0.00845282 0.0228172 -0.000125029
-0.0128706 6.77626e-21 4.59712e-10 0 0 0
0.0128706 0 4.5966e-10 0 0 0
-0.0128741 -6.77626e-21 6.76228e-05 6.14901e-07 -1.75204e-06 1.0325e-07
0.0128742 0 6.7603e-05 -0.000639597 0.00168906 -2.37929e-06
-0.0125737 1.35525e-20 0.00289896 0.000210357 -0.000527048 -1.02717e-05
0.0125738 1.35525e-20 0.00289883 -0.00188281 0.00496403 -4.83808e-05
0.0129417 0 3.22157e-10 0 0 0
-0.0129417 -1.35525e-20 3.22157e-10 0 0 0
-0.0126 0 0.00306523 0 0 0
0.0126002 2.71051e-20 0.00306527 0 0 0
-0.0129729 1.12938e-21 0.00059327 0.00035188 -0.000952406 -2.9642e-07
0.0129729 -1.12938e-21 0.000593302 -0.00552114 0.0148484 -4.73096e-05
0.0130096 6.77626e-21 3.00396e-10 0 0 0
-0.0130097 6.77626e-21 3.00386e-10 0 0 0
0.0130125 1.35525e-20 6.19132e-05 -0.000648536 0.00169079 2.31633e-07
-0.0130126 6.77626e-21 6.19358e-05 5.10338e-07 -1.68375e-06 -2.52625e-07
-0.0129929 -5.64689e-21 0.00122118 0.000900001 -0.00238967 -1.99925e-05
0.0129929 -3.38813e-21 0.00122122 -0.00936855 0.0253259 -9.26848e-05
-0.0127134 1.35525e-20 0.00312239 0 0 0
0.0127137 1.35525e-20 0.00312249 0 0 0
-0.01275 -1.35525e-20 0.00301608 0.000212337 -0.000484863 -2.12939e-05
0.0127503 0 0.00301608 -0.00168586 0.00456696 -0.000141512
-0.0129974 0 0.0018788 0.0010755 -0.00279903 -4.75381e-05
0.0129974 -4.51751e-21 0.00187883 -0.0101175 0.0273689 -8.88011e-05
-0.0129624 2.71051e-21 0.00258482 0.000746032 -0.00188937 -5.01046e-05
0.0129624 0 0.00258484 -0.00664731 0.0179925 -0.000178547
-0.0129341 0 0.00296493 0.000435395 -0.00102574 -4.30549e-05
0.0129342 0 0.00296496 -0.00351387 0.00969307 -0.000303878
0.0132745 2.71051e-20 0.0002907 -0.00297716 0.00780826 -5.55147e-06
-0.0132746 -2.71051e-20 0.000290689 2.33607e-06 -7.84036e-06 -1.49015e-06
-0.0133098 0 0.000892095 0.000750265 -0.00204312 6.15222e-06
0.0133098 -2.71051e-20 0.000892117 -0.00870376 0.0236333 -9.07443e-05
-0.012963 -1.35525e-20 0.00324868 0 0 0
0.012963 6.77626e-21 0.00324866 0 0 0
-0.013014 1.35525e-20 0.00319464 0.000135766 -0.000310017 -1.36151e-05
0.013014 0 0.00319458 -0.00107776 0.00291964 -9.04679e-05
-0.0133312 0 0.00153426 0.00119989 -0.00313721 -4.8787e-05
0.0133312 -2.71051e-20 0.00153429 -0.0114588 0.030902 -0.000118188
-0.0130336 -1.35525e-20 0.0032843 0 0 0
0.0130336 -1.35525e-20 0.00328432 0 0 0
-0.0133255 0 0.00221292 0.00121986 -0.00313678 -6.42654e-05
0.0133255 -2.71051e-20 0.00221294 -0.0110365 0.0300249 -2.2825e-05
-0.0130971 -1.35525e-20 0.00331613 0 0 0
0.0130973 0 0.00331619 0 0 0
-0.0131128 0 0.00327471 8.30498e-05 -0.000207463 -6.3942e-06
0.013113 -1.35525e-20 0.00327473 -0.000719164 0.0019581 -4.14917e-05
-0.0135215 6.77626e-21 4.3748e-11 0 0 0
0.0135215 0 4.37385e-11 0 0 0
-0.013525 6.77626e-21 4.46932e-05 3.68264e-07 -1.21501e-06 -1.82296e-07
0.013525 0 4.46658e-05 -0.000467872 0.00121978 1.67106e-07
-0.0132202 -7.52918e-22 0.00300115 0.000547831 -0.00136356 -5.39097e-05
0.0132202 1.50584e-21 0.00300118 -0.00470218 0.0128344 -0.000294529
0.0135708 0 2.74197e-11 0 0 0
-0.0135708 0 2.74177e-11 0 0 0
0.0136155 0 2.60842e-11 0 0 0
-0.0136156 0 2.60813e-11 0 0 0
0.0136174 0 3.86608e-05 -0.000450477 0.00110271 1.24138e-05
-0.0136174 -6.77626e-21 3.8686e-05 1.47849e-07 -8.20889e-07 -8.79964e-07
0.0136131 1.12938e-21 0.000567022 -0.00593895 0.0157811 -3.24985e-05
-0.0136131 2.25875e-21 0.000567013 0.000369746 -0.00103788 5.88508e-06
-0.0133844 2.71051e-20 0.00278358 0.000868817 -0.00221249 -8.37043e-05
0.0133844 2.71051e-20 0.0027836 -0.00758728 0.0206077 -0.00033528
-0.0136536 -1.12938e-21 0.00118311 0.00101125 -0.00271417 -2.27325e-05
0.0136536 2.25875e-21 0.00118312 -0.0104885 0.0282395 -0.00011105
-0.013358 5.42101e-20 0.00322889 0.000354979 -0.000889307 -3.69948e-05
0.0133581 0 0.00322892 -0.00313995 0.00853426 -0.000249405
-0.0136672 2.25875e-21 0.00185452 0.00132792 -0.00343729 -7.62148e-05
0.0136672 0 0.00185453 -0.012209 0.0329234 -0.000104986
-0.0134205 0 0.00347805 0 0 0
0.0134205 0 0.00347806 0 0 0
-0.0134524 -1.35525e-20 0.00343732 9.55462e-05 -0.00023868 -7.35633e-06
0.0134524 0 0.0034373 -0.00082716 0.00225214 -4.77225e-05
0.0139 5.42101e-20 0.000270261 -0.00308576 0.00757281 7.35043e-05
-0.0139 -2.71051e-20 0.000270258 1.4473e-06 -6.10871e-06 -6.16397e-06
-0.0136757 -5.64689e-22 0.00251333 0.00121609 -0.00307282 -0.000100406
0.0136758 5.64689e-22 0.00251333 -0.0107848 0.0290597 -0.00019639
-0.0134923 0 0.00351398 0 0 0
0.0134924 0 0.00351402 0 0 0
0.0139532 2.71051e-20 0.000842552 -0.00914743 0.0245555 -0.000111459
-0.0139533 2.71051e-20 0.000842543 0.0007451 -0.00214992 2.56951e-05
-0.0136464 2.25875e-21 0.00307167 0.000755783 -0.00183792 -7.95559e-05
0.0136464 -1.69407e-21 0.00307169 -0.00655063 0.0174371 -0.000259549
-0.0135604 6.77626e-21 0.00354803 0 0 0
0.0135605 0 0.00354808 0 0 0
-0.013594 -1.35525e-20 0.00346729 0.0001873 -0.000422113 -2.11944e-05
0.0135942 0 0.00346729 -0.00154168 0.00399073 -7.10086e-05
-0.0139955 -5.42101e-20 0.00147861 0.00135732 -0.00354418 -7.48587e-05
0.0139955 0 0.00147861 -0.0126895 0.0339903 -0.000123611
-0.0139995 -2.71051e-20 0.00216677 0.00153196 -0.00392475 -0.000116426
0.0139995 0 0.00216677 -0.013631 0.036723 -0.000152024
0.0141777 0 1.47672e-12 0 0 0
-0.0141778 0 1.47736e-12 0 0 0
0.0141788 0 1.24877e-05 -0.000145507 0.000356181 4.00973e-06
-0.0141788 0 1.25188e-05 4.78441e-08 -2.6564e-07 -2.84757e-07
0.0141923 -1.69407e-21 1.02421e-12 0 0 0
-0.0141924 -1.69407e-21 1.02371e-12 0 0 0
0.0142041 1.69407e-21 9.46673e-06 -0.00011055 0.00028058 7.6147e-06
-0.0142042 1.69407e-21 9.49024e-06 3.99333e-07 -1.62418e-07 -4.8828e-07
0.0142051 1.69407e-21 1.00933e-12 0 0 0
-0.0142052 1.69407e-21 1.0088e-12 0 0 0
0.0142399 6.21157e-22 0.000511 -0.00571258 0.0149394 1.2917e-05
-0.01424 -1.12938e-22 0.000510993 0.000334669 -0.000990389 2.94845e-06
-0.0138496 0 0.00338143 0.000592978 -0.00132277 -6.67364e-05
0.0138496 -2.71051e-20 0.00338145 -0.00490565 0.0125682 -0.00020311
-0.0139916 0 0.00283636 0.00128666 -0.00312836 -0.000139088
0.0139916 0 0.00283638 -0.0112767 0.0299336 -0.000258306
0.0138218 0 0.0036788 0 0 0
-0.0138218 0 0.0036788 0 0 0
0.0143102 0 0.00109467 -0.0107601 0.0288643 -0.000115148
-0.0143107 5.64689e-22 0.00109732 0.00101685 -0.00282916 -3.78344e-05
0.0143533 0 7.65942e-13 0 0 0
-0.0138932 -1.35525e-20 0.003605 0.000210297 -0.000473941 -2.37967e-05
0.0138932 2.71051e-20 0.00360498 -0.00173048 0.00447944 -7.97044e-05
-0.0143537 1.69407e-21 7.6493e-13 0 0 0
-0.0139058 1.35525e-20 0.00372075 0 0 0
0.0139058 0 0.00372076 0 0 0
-0.0143406 1.97641e-21 0.0017773 0.00151398 -0.00395982 -0.000106689
0.0143406 -8.47033e-22 0.0017773 -0.0138086 0.0370819 -0.000116824
0.014476 -2.71051e-20 0.000224596 -0.00260646 0.00652633 0.000134729
-0.014476 2.71051e-20 0.000224595 7.30694e-06 -4.48567e-06 -9.74074e-06
-0.0139821 0 0.00376078 0 0 0
0.0139821 0 0.0037608 0 0 0
-0.0140113 1.35525e-20 0.00368378 0.00021671 -0.000448906 -2.97313e-05
0.0140114 0 0.00368378 -0.00158973 0.00429551 -0.000122468
-0.0143224 -1.12938e-21 0.0024986 0.00157489 -0.00392944 -0.000134634
0.0143224 5.64689e-22 0.0024986 -0.0137321 0.036696 -9.27542e-05
0.0145821 2.71051e-20 0.000746673 -0.00844651 0.0222955 -5.70589e-05
-0.0145821 0 0.000746674 0.000637858 -0.00194822 3.76575e-06
-0.014272 9.03502e-22 0.00323782 0.00104116 -0.00243616 -0.000116584
0.014272 2.25875e-22 0.00323783 -0.0086335 0.0229951 -0.000235453
-0.0142274 -2.71051e-20 0.00361851 0.000601941 -0.0012783 -8.96785e-05
0.0142274 2.71051e-20 0.00361852 -0.00449063 0.012251 -0.000417453
0.0146963 -3.76459e-22 0.000425142 -0.00487249 0.0126429 8.40015e-06
-0.0146963 0 0.000425143 0.00020718 -0.000655508 6.32302e-06
0.0146847 -2.71051e-20 0.00134649 -0.013016 0.0353082 -0.000171202
-0.0146847 -2.71051e-20 0.00134648 0.00136904 -0.0037658 -0.000109133
0.0147679 0 2.54299e-05 -0.000293331 0.000724678 1.02285e-05
-0.014768 0 2.54068e-05 5.92131e-07 -5.77638e-07 -9.03409e-07
0.0147705 0 9.11081e-14 0 0 0
-0.0147705 -6.77626e-21 9.09544e-14 0 0 0
0.0148059 -6.77626e-21 6.68338e-15 0 0 0
-0.0148059 0 6.6647e-15 0 0 0
0.014659 5.42101e-20 0.00210817 -0.0157916 0.0420693 -3.32288e-05
-0.014659 5.42101e-20 0.00210817 0.00178202 -0.00457774 -0.000128257
0.0142867 0 0.00391566 0 0 0
-0.0142867 0 0.00391568 0 0 0
0.0143137 6.77626e-21 0.00388599 -0.000750559 0.00202804 -5.78208e-05
-0.0143137 6.77626e-21 0.00388604 0.000102217 -0.000211738 -1.40235e-05
-0.0148347 6.77626e-21 4.55241e-05 -3.2328e-06 -2.30373e-06 1.28894e-06
0.0148347 0 4.55572e-05 -0.000511112 0.00134007 -1.47519e-05
-0.0148462 6.77626e-21 5.73722e-15 0 0 0
0.0148462 0 5.75032e-15 0 0 0
0.0143218 6.77626e-21 0.00393378 0 0 0
-0.0143218 -6.77626e-21 0.00393377 0 0 0
-0.014352 6.77626e-21 0.00395515 0 0 0
0.014352 0 0.00395518 0 0 0
-0.0143641 0 0.00393216 6.624e-05 -0.000143782 -8.39511e-06
0.0143642 0 0.00393215 -0.000484154 0.00135 -2.00526e-05
-0.0146351 0 0.00283847 0.00170964 -0.00412418 -0.000154364
0.0146351 0 0.00283847 -0.0143528 0.0383762 7.14361e-05
0.0144996 0 0.0036695 -0.00599702 0.0162013 -0.000378266
-0.0144996 0 0.0036695 0.000758505 -0.00170537 -0.000107456
0.0145103 0 0.00366655 -0.00604235 0.016323 -0.000374921
-0.0145087 -8.47033e-22 0.0036755 0.000763048 -0.00171863 -0.00010767
0.0150122 0 0.00033015 -0.00374111 0.00959489 -5.86566e-05
-0.0150123 2.71051e-20 0.000330154 -4.43606e-06 -7.40951e-05 2.33534e-05
-0.0145871 -8.47033e-22 0.00370013 0.000793797 -0.00179632 -0.000105519
0.0145874 8.47033e-22 0.00370026 -0.00630187 0.0170206 -0.000344085
-0.0146767 -2.71051e-20 0.00345539 0.00119107 -0.00278612 -0.000147309
0.0146767 0 0.00345539 -0.00973494 0.0260942 -0.000323899
-0.0150078 -2.25875e-22 0.00170826 0.00162442 -0.00428083 -0.000113625
0.0150078 1.12938e-22 0.00170826 -0.0145098 0.0389743 -6.78272e-05
0.0150925 -3.61401e-21 0.000854675 -0.00852549 0.0230228 -0.000112625
-0.0150925 0 0.000854681 0.000743056 -0.00211744 -5.5092e-05
0.0146273 2.71051e-20 0.00391102 -0.0039531 0.0107497 -0.000390193
-0.0146273 -5.42101e-20 0.00391104 0.000503479 -0.00110543 -8.83118e-05
-0.0149891 -1.12938e-21 0.00242101 0.00184366 -0.00457992 -0.00011867
0.0149891 -7.90564e-22 0.00242101 -0.0155809 0.0416109 7.01065e-05
-0.0149587 -2.82344e-22 0.00315968 0.00163636 -0.00388944 -0.000120732
0.0149587 -1.69407e-21 0.00315968 -0.0134572 0.0359209 2.63829e-05
0.0147021 6.77626e-21 0.00420296 0 0 0
-0.0147022 0 0.00420304 0 0 0
0.0152975 6.77626e-21 8.17497e-05 -0.00091716 0.00240467 -2.64714e-05
-0.0152975 6.77626e-21 8.17234e-05 -5.80341e-06 -4.13559e-06 2.31386e-06
0.0147325 0 0.00417583 -0.0007443 0.00207539 -3.08273e-05
-0.0147325 1.35525e-20 0.00417593 0.000101906 -0.000221201 -1.29154e-05
0.015314 0 2.17543e-15 0 0 0
-0.015314 6.77626e-21 2.16401e-15 0 0 0
0.0147476 0 0.00423512 0 0 0
-0.0147477 -1.35525e-20 0.00423519 0 0 0
0.0147781 -6.77626e-21 0.0042567 0 0 0
-0.0147782 0 0.00425676 0 0 0
0.0147931 0 0.00422599 -0.000663344 0.00185012 -6.28393e-05
-0.0147932 1.35525e-20 0.00422607 8.93693e-05 -0.000193958 -1.29453e-05
-0.0153882 0 1.37339e-16 0 0 0
0.0153882 0 1.36947e-16 0 0 0
-0.0154218 -6.77626e-21 0.000114883 9.01051e-05 -0.000274611 -2.29512e-05
0.0154219 0 0.000114923 -0.00125463 0.00370436 -5.35841e-05
0.0149639 1.50584e-21 0.00384032 -0.00740361 0.0199703 -0.000165736
-0.0149639 0 0.00384035 0.000924033 -0.00213031 -8.61494e-05
-0.0154554 -6.77626e-21 2.28913e-16 0 0 0
0.0154555 0 2.27201e-16 0 0 0
0.0148469 -6.77626e-21 0.00430538 0 0 0
-0.014847 0 0.00430541 0 0 0
0.0154606 0 0.00140662 -0.0134063 0.0361707 -9.29832e-05
-0.0154606 2.71051e-20 0.00140663 0.00152156 -0.0041182 -0.000113936
-0.0152778 5.42101e-20 0.00281389 0.00206979 -0.00498339 -9.70872e-05
0.0152778 2.71051e-20 0.00281389 -0.0167352 0.0446617 0.000220164
0.0154333 0 0.00193357 -0.0160834 0.0430645 0.000106108
-0.0154334 2.71051e-20 0.00193357 0.00191869 -0.00490955 -7.82923e-05
0.0156222 0 0.000480035 -0.00531918 0.0154032 -0.000153258
-0.0156222 2.71051e-20 0.000480033 0.000420159 -0.00127007 -9.46416e-05
0.0152556 -2.71051e-20 0.00350081 -0.0141478 0.0375349 0.000211791
-0.0152556 0 0.00350083 0.00172199 -0.00398388 -8.66955e-05
0.0150547 -6.77626e-21 0.00445243 0 0 0
-0.0150548 1.35525e-20 0.00445248 0 0 0
-0.0157277 -6.77626e-21 1.66304e-16 0 0 0
0.0157278 6.77626e-21 1.64963e-16 0 0 0
0.0151605 -2.82344e-22 0.00422314 -0.00453621 0.0128809 -0.000177512
-0.0151606 8.47033e-22 0.00422318 0.000596304 -0.00143386 -7.4749e-05
0.0156637 2.71051e-20 0.00166709 -0.0148522 0.0397904 6.08813e-05
-0.0156638 -1.35525e-20 0.00166709 0.00178015 -0.00459717 -7.07023e-05
0.0156161 7.90564e-22 0.00242548 -0.0170425 0.0454813 0.000302565
-0.0156161 9.03502e-22 0.00242548 0.00213109 -0.00518019 1.40305e-05
0.0157781 -5.64689e-22 0.000921688 -0.00907318 0.0246464 -0.000164796
-0.0157781 -3.76459e-22 0.000921689 0.00096802 -0.0026574 -9.85352e-05
0.0155829 5.64689e-22 0.00315322 -0.0166067 0.0443787 0.000401474
-0.0155829 1.12938e-21 0.00315322 0.00209463 -0.00493472 3.56404e-05
0.0152442 6.77626e-21 0.00458652 0 0 0
-0.0152443 -1.35525e-20 0.00458661 0 0 0
0.0159534 0 3.82779e-05 -0.000439842 0.00121428 1.86524e-06
-0.0159534 0 3.82942e-05 4.22362e-05 -0.000125805 -7.29856e-06
0.015843 2.71051e-20 0.00192286 -0.0161854 0.0433695 0.000300812
-0.015843 2.71051e-20 0.00192287 0.00203462 -0.00509972 7.39235e-06
0.0159594 6.77626e-21 2.87967e-17 0 0 0
-0.0159594 0 2.85098e-17 0 0 0
0.0159064 0 0.00142306 -0.0137151 0.0365144 -3.28231e-05
-0.0159064 2.71051e-20 0.00142306 0.00165779 -0.00429023 -8.70967e-05
0.0155142 -1.12938e-21 0.0038846 -0.0114561 0.0309582 0.000183114
-0.0155143 -3.38813e-21 0.00388461 0.00143663 -0.00336971 2.30391e-05
0.0153266 0 0.00464484 0 0 0
-0.0153267 0 0.00464492 0 0 0
0.01535 1.35525e-20 0.00461636 -0.000824508 0.00223169 -0.000120176
-0.0153501 0 0.00461645 9.71468e-05 -0.00022822 -1.43421e-05
0.0153665 0 0.00467311 0 0 0
-0.0153666 0 0.00467318 0 0 0
0.0160927 2.71051e-20 0.000505095 -0.00577456 0.0157451 -0.000309219
-0.0160927 0 0.000505084 0.000510335 -0.00157536 -8.56947e-05
0.0154309 0 0.00471865 0 0 0
-0.015431 0 0.00471871 0 0 0
-0.0161373 1.35525e-20 9.1179e-18 0 0 0
0.0161375 0 9.37167e-18 0 0 0
0.0154621 1.35525e-20 0.00464665 -0.00156004 0.00443279 1.26922e-05
-0.0154622 1.35525e-20 0.00464672 0.000187258 -0.000486754 5.4747e-06
0.0155559 7.05861e-23 0.004333 -0.00711595 0.0196105 -7.37441e-05
-0.0155559 -1.41172e-22 0.00433301 0.000884738 -0.00213493 1.08918e-05
0.015933 0 0.00276856 -0.0184736 0.0491995 0.000516948
-0.015933 -2.71051e-20 0.00276856 0.00239125 -0.00565374 0.000160065
0.015876 -2.71051e-20 0.003495 -0.0171151 0.0462123 0.000653426
-0.0158761 -2.71051e-20 0.003495 0.00220257 -0.00513558 0.000168548
0.0163022 1.41172e-22 0.00169287 -0.0151877 0.0401011 0.000289109
-0.0163022 1.41172e-22 0.00169287 0.00198501 -0.00470194 0.000127512
0.0158806 2.71051e-20 0.00413138 -0.0129239 0.035148 0.000354635
-0.0158806 0 0.00413139 0.00157443 -0.00381647 0.000158589
0.0157465 0 0.00463069 -0.00510329 0.0144107 -5.46878e-05
-0.0157465 2.71051e-20 0.00463071 0.000624354 -0.00158165 8.25773e-06
-0.0156845 0 0.00489813 0 0 0
0.0156845 -1.35525e-20 0.00489813 0 0 0
-0.0164402 -1.35525e-20 0.000192225 0.000187944 -0.000588272 -3.11937e-05
0.0164404 2.71051e-20 0.000191942 -0.00219046 0.00594602 -0.000162297
-0.0164598 0 2.18492e-18 0 0 0
0.01646 1.35525e-20 2.26278e-18 0 0 0
0.0163055 3.38813e-21 0.0022924 -0.0176939 0.0468062 0.000621108
-0.0163055 -3.38813e-21 0.0022924 0.00235707 -0.00543897 0.000310057
-0.0157621 0 0.00483924 0.000226523 -0.000588818 6.62265e-06
0.0157621 0 0.00483928 -0.00188592 0.00535876 1.53435e-05
0.0164587 6.77626e-21 0.00103728 -0.0101162 0.0267465 2.10871e-05
-0.0164587 0 0.00103727 0.00121271 -0.00305065 2.4083e-05
0.0162201 1.12938e-22 0.00310508 -0.0186179 0.0496875 0.000810477
-0.0162201 4.51751e-22 0.00310507 0.00246584 -0.00568039 0.000425504
-0.0157673 -1.35525e-20 0.00495672 0 0 0
0.0157673 0 0.0049567 0 0 0
-0.0165551 -1.35525e-20 1.82789e-18 0 0 0
0.0165551 1.35525e-20 1.92031e-18 0 0 0
0.0158425 0 0.00500992 0 0 0
-0.0158425 0 0.00500996 0 0 0
0.0158774 -1.35525e-20 0.00492682 -0.00192021 0.00557646 -2.11038e-05
-0.0158774 -1.35525e-20 0.00492681 0.000217867 -0.000614813 4.56285e-05
0.0161859 -5.64689e-22 0.00381857 -0.0166086 0.0450182 0.000823535
-0.0161859 -5.64689e-22 0.00381858 0.00210608 -0.00504772 0.000439015
0.0166927 1.35525e-20 0.00010156 -0.00119668 0.00304329 -1.57427e-05
-0.016693 -1.35525e-20 0.000101746 0.000119515 -0.000348659 -1.92632e-05
0.0166939 -1.35525e-20 -1.9608e-18 0 0 0
-0.0166942 -1.35525e-20 -2.00257e-18 0 0 0
0.0161388 0 0.00451634 -0.00990019 0.0276591 0.000367421
-0.0161388 -1.807e-21 0.00451636 0.00116289 -0.00309472 0.000282671
0.0165511 0 0.00276281 -0.0194243 0.0511813 0.000980179
-0.0165511 0 0.00276281 0.00264681 -0.00593271 0.000612763
0.0160804 0 0.00488846 -0.00503087 0.0147092 -0.000133894
-0.0160804 0 0.00488847 0.000569959 -0.00161129 0.000103282
-0.0165195 -2.71051e-20 0.00345967 0.00263669 -0.00603012 0.000774049
0.0165195 0 0.00345967 -0.0196024 0.0526394 0.00112841
-0.0160928 6.77626e-21 0.00518707 0 0 0
0.0160929 6.77626e-21 0.00518708 0 0 0
-0.0161329 0 0.00514907 0.000133965 -0.000378045 2.80567e-05
0.0161329 6.77626e-21 0.0051491 -0.00118053 0.00342836 -1.29745e-05
0.0161377 6.77626e-21 0.0052188 0 0 0
-0.0161377 6.77626e-21 0.00521882 0 0 0
0.0164853 2.71051e-20 0.00415086 -0.0170375 0.0467043 0.00118475
-0.0164853 0 0.00415087 0.00205199 -0.00528921 0.000678675
0.0161812 6.77626e-21 0.00524954 0 0 0
-0.0161812 0 0.00524959 0 0 0
0.0162 0 0.00521528 -0.000802491 0.00246769 2.89729e-05
-0.0162 0 0.0052153 7.26017e-05 -0.000290159 4.17757e-05
0.0169483 0 0.00175217 -0.0157359 0.0406327 0.000664649
-0.0169483 -1.0842e-19 0.00175218 0.00229233 -0.00477001 0.000489911
-0.0168946 -1.41172e-22 0.00247384 0.00270919 -0.00572329 0.000899795
0.0168959 -4.23516e-22 0.002475 -0.0189608 0.0494735 0.00115649
0.0170685 -1.0842e-19 0.00054239 -0.00612567 0.0161085 -3.76817e-05
-0.0170686 0 0.000542388 0.000599244 -0.00185226 -8.93277e-05
0.0163681 4.23516e-22 0.00495113 -0.00708113 0.0206163 0.000187376
-0.0163681 7.05861e-22 0.00495117 0.000727534 -0.00235215 0.000304964
0.0168537 0 0.00309993 -0.0201426 0.0531997 0.00139113
-0.0168537 -5.64689e-22 0.00309993 0.00280818 -0.00612469 0.00110173
0.0165271 -2.71051e-20 0.00473652 -0.0112733 0.0323424 0.00066757
-0.0165271 0 0.00473653 0.00122165 -0.00374341 0.000531671
0.0168198 1.69407e-21 0.00379491 -0.0194984 0.0527381 0.00149468
-0.0168198 -1.12938e-21 0.00379491 0.00253057 -0.00608814 0.001186
0.0164532 0 0.00518912 -0.00457488 0.0135982 -0.000109665
-0.0164532 2.71051e-20 0.00518915 0.000399141 -0.00152965 0.000182854
0.0164986 1.35525e-20 0.00547422 0 0 0
-0.0164987 -1.35525e-20 0.00547423 0 0 0
0.0168074 5.64689e-22 0.00445444 -0.0160037 0.044732 0.00132017
-0.0168075 -1.69407e-21 0.00445445 0.00181099 -0.00520377 0.00102404
0.0165401 0 0.00543898 -0.0010891 0.00334901 3.93205e-05
-0.0165402 0 0.00543895 9.85616e-05 -0.00039391 5.67133e-05
0.0171982 -5.42101e-20 0.00274291 -0.0202494 0.0525389 0.00157309
-0.0171982 -2.71051e-20 0.00274291 0.002995 -0.00603142 0.00137472
0.0165561 0 0.00551492 0 0 0
-0.0165563 0 0.00551497 0 0 0
0.0171475 2.71051e-20 0.00343444 -0.0212526 0.0563332 0.00187096
-0.0171475 -2.71051e-20 0.00343445 0.00295084 -0.00649033 0.00163263
0.0165953 0 0.0055426 0 0 0
-0.0165954 0 0.00554269 0 0 0
0.0166161 0 0.00550297 -0.000933326 0.00302582 1.27297e-05
-0.0166163 0 0.00550301 4.95435e-05 -0.000357551 7.75817e-05
-0.0168033 6.27432e-22 0.0051158 0.000781815 -0.00307399 0.000630733
0.0168033 1.8823e-22 0.00511579 -0.00880146 0.0259223 0.000681491
0.0166836 -6.77626e-21 0.00560513 0 0 0
-0.0166839 6.77626e-21 0.00560526 0 0 0
0.0171381 0 0.00410855 -0.0200617 0.0551419 0.00179468
-0.0171381 -2.71051e-20 0.00410855 0.00247908 -0.00652104 0.00165191
0.0176356 0 5.15824e-05 -0.000607792 0.00154568 -7.99569e-06
-0.0176356 6.77626e-21 5.15782e-05 6.05861e-05 -0.000176746 -9.76512e-06
0.0176365 0 -8.77031e-19 0 0 0
-0.0176365 0 -8.88931e-19 0 0 0
0.0176257 1.12938e-21 0.00114318 -0.0114177 0.0286143 0.000486798
-0.0176257 -2.25875e-21 0.00114318 0.00179417 -0.00314656 0.000482175
0.017701 0 -1.21685e-20 0 0 0
-0.017701 -6.77626e-21 -1.22041e-20 0 0 0
-0.0177564 0 5.70417e-05 7.95095e-05 -0.000173678 -7.1045e-06
0.0177564 0 5.70455e-05 -0.000650616 0.0016544 -8.0391e-06
-0.0174948 -7.76447e-22 0.00304301 0.00316724 -0.00623493 0.00185272
0.0174948 2.11758e-22 0.00304301 -0.0209484 0.0543881 0.00185355
0.0171005 2.71051e-20 0.0047873 -0.016282 0.0464278 0.00172642
-0.0171005 -2.71051e-20 0.00478732 0.00157566 -0.00547146 0.00132315
-0.01776 6.77626e-21 -1.01851e-20 0 0 0
0.01776 6.77626e-21 -1.01509e-20 0 0 0
-0.0176226 -2.82344e-22 0.00231708 0.00311954 -0.00548722 0.00160258
0.0176226 -2.82344e-22 0.00231708 -0.0191187 0.0485364 0.00152357
0.0168649 6.77626e-21 0.00573339 0 0 0
-0.0168651 -2.03288e-20 0.00573345 0 0 0
0.0169917 0 0.00554745 -0.0047429 0.0154081 0.000512243
-0.0169917 0 0.00554751 0.000226712 -0.00194983 0.000444891
0.0175403 0 0.00368249 -0.0214601 0.0575289 0.00216219
-0.0175404 -5.64689e-22 0.0036825 0.0028946 -0.00676071 0.00222174
0.0174309 -2.25875e-21 0.00445118 -0.0195651 0.0547591 0.00216126
-0.0174309 0 0.00445119 0.00214077 -0.00659486 0.00206262
0.0170276 1.35525e-20 0.00584853 0 0 0
-0.0170277 1.35525e-20 0.00584855 0 0 0
0.0173593 -6.77626e-21 0.00515918 -0.0131579 0.0389272 0.00163298
-0.0173594 1.12938e-21 0.00515919 0.00100991 -0.00479526 0.00145937
0.0171314 0 0.00592202 0 0 0
-0.0171315 0 0.00592208 0 0 0
0.0171627 1.35525e-20 0.00588617 -0.00116467 0.00362453 -5.25127e-05
-0.0171628 0 0.00588621 2.65608e-05 -0.000429874 0.000116939
0.017182 0 0.0059579 0 0 0
-0.0171821 1.35525e-20 0.00595797 0 0 0
0.017769 0 0.00410416 -0.0222895 0.0608929 0.00261415
-0.017769 -2.71051e-20 0.00410417 0.00269903 -0.00735567 0.00282838
0.0182634 5.42101e-20 0.000578938 -0.00674443 0.0168557 -4.68814e-05
-0.0182635 5.42101e-20 0.000578947 0.000898464 -0.00171956 -4.46933e-05
0.0173982 0 0.00561201 -0.00806049 0.0251482 0.00105323
-0.0173983 0 0.00561204 0.00032076 -0.00318926 0.00103576
0.0172647 0 0.00601703 0 0 0
-0.0172648 1.35525e-20 0.00601711 0 0 0
0.0173075 0 0.00592612 -0.00218325 0.00714614 0.000381818
-0.0173076 0 0.00592617 -2.90062e-05 -0.000977166 0.000383455