# Force       
# CofR        : (0.000000e+00 0.000000e+00 0.000000e+00)
#
# Time        	(total_x total_y total_z)	(pressure_x pressure_y pressure_z)	(viscous_x viscous_y viscous_z)
1             	(1.877839e+00 2.127309e+00 9.600164e+02)	(1.831116e+00 2.126919e+00 9.600164e+02)	(4.672281e-02 3.899498e-04 -9.981432e-06)
