# Moment      
# CofR        : (0.000000e+00 0.000000e+00 0.000000e+00)
#
# Time        	(total_x total_y total_z)	(pressure_x pressure_y pressure_z)	(viscous_x viscous_y viscous_z)
1             	(-5.338056e-02 7.897347e-03 -9.217122e-05)	(-5.335707e-02 6.576640e-03 -9.261666e-05)	(-2.348793e-05 1.320707e-03 4.454406e-07)
2             	(-4.839644e-02 1.451949e-03 -8.657246e-05)	(-4.835822e-02 3.329202e-04 -8.649726e-05)	(-3.821267e-05 1.119029e-03 -7.520663e-08)
3             	(-3.082953e-02 -1.389112e-02 -2.603966e-03)	(-3.078890e-02 -1.491242e-02 -2.620066e-03)	(-4.063218e-05 1.021304e-03 1.609989e-05)
4             	(-1.268567e-02 -5.350466e-02 -7.248455e-03)	(-1.265995e-02 -5.437225e-02 -7.239009e-03)	(-2.571958e-05 8.675821e-04 -9.446071e-06)
5             	(3.610824e-03 -6.825044e-02 -1.070378e-02)	(3.625789e-03 -6.903359e-02 -1.072072e-02)	(-1.496524e-05 7.831436e-04 1.694236e-05)
6             	(1.347785e-02 -5.740949e-02 -1.214750e-02)	(1.347433e-02 -5.815759e-02 -1.216818e-02)	(3.520292e-06 7.480999e-04 2.067844e-05)
7             	(1.603421e-02 -3.782470e-02 -1.146128e-02)	(1.602066e-02 -3.857422e-02 -1.148682e-02)	(1.354907e-05 7.495261e-04 2.554696e-05)
8             	(1.546783e-02 -1.283903e-02 -9.651047e-03)	(1.544771e-02 -1.355497e-02 -9.685237e-03)	(2.011508e-05 7.159400e-04 3.419091e-05)
9             	(1.244017e-02 1.274545e-02 -6.878438e-03)	(1.241795e-02 1.210108e-02 -6.899410e-03)	(2.222530e-05 6.443637e-04 2.097187e-05)
10            	(5.619241e-03 2.665753e-02 -1.510182e-03)	(5.603409e-03 2.608535e-02 -1.523766e-03)	(1.583158e-05 5.721831e-04 1.358403e-05)
11            	(-1.100416e-03 2.731669e-02 3.117124e-03)	(-1.106622e-03 2.679832e-02 3.096869e-03)	(6.206476e-06 5.183725e-04 2.025562e-05)
12            	(-5.566477e-03 2.015607e-02 5.458999e-03)	(-5.564154e-03 1.968371e-02 5.421816e-03)	(-2.322898e-06 4.723559e-04 3.718251e-05)
13            	(-6.844201e-03 1.127406e-02 5.320610e-03)	(-6.835256e-03 1.083106e-02 5.281686e-03)	(-8.945211e-06 4.429990e-04 3.892360e-05)
14            	(-6.700716e-03 1.907882e-03 4.019895e-03)	(-6.688378e-03 1.476570e-03 3.996006e-03)	(-1.233785e-05 4.313122e-04 2.388916e-05)
15            	(-5.376684e-03 -5.605893e-03 1.854540e-03)	(-5.362495e-03 -6.026062e-03 1.843363e-03)	(-1.418901e-05 4.201695e-04 1.117655e-05)
16            	(-3.109131e-03 -9.380580e-03 -8.835826e-04)	(-3.094868e-03 -9.785079e-03 -8.804624e-04)	(-1.426315e-05 4.044997e-04 -3.120215e-06)
17            	(-7.020885e-04 -9.331806e-03 -3.181653e-03)	(-6.888070e-04 -9.722742e-03 -3.163461e-03)	(-1.328150e-05 3.909369e-04 -1.819280e-05)
18            	(1.032745e-03 -7.016158e-03 -4.467644e-03)	(1.044609e-03 -7.391862e-03 -4.435808e-03)	(-1.186394e-05 3.757042e-04 -3.183579e-05)
19            	(1.879990e-03 -3.937915e-03 -4.803303e-03)	(1.891248e-03 -4.299942e-03 -4.760928e-03)	(-1.125772e-05 3.620277e-04 -4.237497e-05)
20            	(2.036506e-03 -1.035071e-03 -4.445695e-03)	(2.047699e-03 -1.383555e-03 -4.394361e-03)	(-1.119340e-05 3.484833e-04 -5.133434e-05)
21            	(1.679933e-03 1.155107e-03 -3.552714e-03)	(1.691466e-03 8.178714e-04 -3.491773e-03)	(-1.153304e-05 3.372352e-04 -6.094092e-05)
22            	(1.001552e-03 2.200844e-03 -2.278433e-03)	(1.013386e-03 1.871811e-03 -2.211957e-03)	(-1.183390e-05 3.290324e-04 -6.647591e-05)
23            	(2.619202e-04 2.321755e-03 -1.158154e-03)	(2.737036e-04 1.998982e-03 -1.090524e-03)	(-1.178334e-05 3.227738e-04 -6.762970e-05)
24            	(-3.198966e-04 2.062682e-03 -3.798723e-04)	(-3.080873e-04 1.746649e-03 -3.124580e-04)	(-1.180927e-05 3.160323e-04 -6.741423e-05)
25            	(-4.820382e-04 1.501185e-03 -2.084182e-04)	(-4.707109e-04 1.193038e-03 -1.428422e-04)	(-1.132729e-05 3.081466e-04 -6.557598e-05)
26            	(-8.268498e-04 7.894583e-04 2.515296e-05)	(-8.150367e-04 4.891374e-04 8.869361e-05)	(-1.181311e-05 3.003208e-04 -6.354066e-05)
27            	(-8.268721e-04 3.109463e-04 -1.872866e-05)	(-8.145004e-04 1.896062e-05 4.141439e-05)	(-1.237172e-05 2.919857e-04 -6.014304e-05)
28            	(-8.892190e-04 -4.193937e-04 -4.069710e-04)	(-8.755988e-04 -7.006015e-04 -3.508943e-04)	(-1.362027e-05 2.812077e-04 -5.607667e-05)
29            	(-8.195190e-04 -5.354539e-04 -5.714488e-04)	(-8.044309e-04 -8.060767e-04 -5.201020e-04)	(-1.508808e-05 2.706228e-04 -5.134672e-05)
30            	(-7.388762e-04 -5.204992e-04 -7.998851e-04)	(-7.221447e-04 -7.788091e-04 -7.527423e-04)	(-1.673149e-05 2.583099e-04 -4.714286e-05)
31            	(-5.632709e-04 -4.600336e-04 -1.415191e-03)	(-5.450553e-04 -7.045318e-04 -1.370754e-03)	(-1.821566e-05 2.444981e-04 -4.443634e-05)
32            	(-5.040943e-04 -3.495407e-04 -1.633007e-03)	(-4.844132e-04 -5.803670e-04 -1.590249e-03)	(-1.968107e-05 2.308263e-04 -4.275877e-05)
33            	(-4.386088e-04 -2.256420e-04 -1.839811e-03)	(-4.177378e-04 -4.436453e-04 -1.796928e-03)	(-2.087097e-05 2.180033e-04 -4.288345e-05)
34            	(-3.629259e-04 -1.160642e-04 -2.014306e-03)	(-3.412478e-04 -3.228857e-04 -1.970549e-03)	(-2.167804e-05 2.068215e-04 -4.375714e-05)
35            	(-1.539130e-04 9.095956e-05 -2.265656e-03)	(-1.322857e-04 -1.064711e-04 -2.220526e-03)	(-2.162729e-05 1.974306e-04 -4.513047e-05)
36            	(-1.378157e-04 7.311251e-05 -2.250233e-03)	(-1.162498e-04 -1.166554e-04 -2.203627e-03)	(-2.156582e-05 1.897679e-04 -4.660687e-05)
37            	(-1.336780e-04 3.730494e-05 -2.162223e-03)	(-1.121616e-04 -1.462971e-04 -2.114318e-03)	(-2.151636e-05 1.836020e-04 -4.790564e-05)
38            	(-1.435660e-04 -6.586634e-06 -2.028368e-03)	(-1.220474e-04 -1.851914e-04 -1.979291e-03)	(-2.151861e-05 1.786047e-04 -4.907729e-05)
39            	(-2.017655e-04 8.364996e-05 -1.788716e-03)	(-1.799845e-04 -9.113795e-05 -1.738609e-03)	(-2.178096e-05 1.747879e-04 -5.010724e-05)
40            	(-2.183157e-04 3.563596e-05 -1.671307e-03)	(-1.962671e-04 -1.354277e-04 -1.620310e-03)	(-2.204861e-05 1.710636e-04 -5.099719e-05)
41            	(-2.417452e-04 -1.242493e-05 -1.583153e-03)	(-2.193685e-04 -1.799488e-04 -1.531321e-03)	(-2.237674e-05 1.675239e-04 -5.183240e-05)
42            	(-2.737013e-04 -6.429082e-05 -1.538981e-03)	(-2.509424e-04 -2.282244e-04 -1.486205e-03)	(-2.275886e-05 1.639336e-04 -5.277541e-05)
43            	(-3.138163e-04 -1.263395e-04 -1.553857e-03)	(-2.906266e-04 -2.866757e-04 -1.499702e-03)	(-2.318977e-05 1.603362e-04 -5.415458e-05)
44            	(-3.610202e-04 -2.066758e-04 -1.633159e-03)	(-3.373580e-04 -3.634489e-04 -1.577036e-03)	(-2.366226e-05 1.567731e-04 -5.612327e-05)
45            	(-4.826329e-04 -4.485894e-04 -1.885928e-03)	(-4.582393e-04 -6.018380e-04 -1.827138e-03)	(-2.439366e-05 1.532486e-04 -5.879043e-05)
46            	(-5.023855e-04 -5.247530e-04 -1.989692e-03)	(-4.774262e-04 -6.746702e-04 -1.927918e-03)	(-2.495934e-05 1.499172e-04 -6.177382e-05)
47            	(-5.098462e-04 -5.869452e-04 -2.125329e-03)	(-4.844396e-04 -7.337124e-04 -2.060447e-03)	(-2.540651e-05 1.467672e-04 -6.488243e-05)
48            	(-5.058659e-04 -6.484756e-04 -2.267189e-03)	(-4.801410e-04 -7.922915e-04 -2.199161e-03)	(-2.572496e-05 1.438159e-04 -6.802843e-05)
49            	(-4.936361e-04 -7.137591e-04 -2.411399e-03)	(-4.677316e-04 -8.549366e-04 -2.340287e-03)	(-2.590455e-05 1.411775e-04 -7.111219e-05)
50            	(-4.759899e-04 -7.798798e-04 -2.552718e-03)	(-4.500434e-04 -9.188207e-04 -2.478725e-03)	(-2.594651e-05 1.389409e-04 -7.399284e-05)
51            	(-4.553660e-04 -8.396177e-04 -2.685909e-03)	(-4.295042e-04 -9.767890e-04 -2.609337e-03)	(-2.586182e-05 1.371713e-04 -7.657205e-05)
52            	(-4.342512e-04 -8.841900e-04 -2.806444e-03)	(-4.085833e-04 -1.020089e-03 -2.727651e-03)	(-2.566788e-05 1.358989e-04 -7.879302e-05)
53            	(-4.136031e-04 -9.017444e-04 -2.911728e-03)	(-3.882291e-04 -1.036938e-03 -2.831119e-03)	(-2.537399e-05 1.351935e-04 -8.060867e-05)
54            	(-3.978708e-04 -8.944465e-04 -2.989871e-03)	(-3.728725e-04 -1.029578e-03 -2.907948e-03)	(-2.499827e-05 1.351315e-04 -8.192342e-05)
55            	(-3.838557e-04 -8.481926e-04 -3.047692e-03)	(-3.593172e-04 -9.839204e-04 -2.965058e-03)	(-2.453846e-05 1.357278e-04 -8.263374e-05)
56            	(-3.723226e-04 -7.640985e-04 -3.080373e-03)	(-3.483288e-04 -9.010950e-04 -2.997758e-03)	(-2.399386e-05 1.369965e-04 -8.261505e-05)
57            	(-3.635836e-04 -6.492183e-04 -3.085126e-03)	(-3.402058e-04 -7.881719e-04 -3.003345e-03)	(-2.337785e-05 1.389536e-04 -8.178088e-05)
58            	(-3.584879e-04 -5.148585e-04 -3.059689e-03)	(-3.357705e-04 -6.564964e-04 -2.979511e-03)	(-2.271735e-05 1.416379e-04 -8.017798e-05)
59            	(-3.565122e-04 -3.681196e-04 -3.009642e-03)	(-3.344659e-04 -5.131176e-04 -2.931721e-03)	(-2.204629e-05 1.449980e-04 -7.792130e-05)
60            	(-3.577506e-04 -1.912235e-04 -2.930873e-03)	(-3.363520e-04 -3.401194e-04 -2.855828e-03)	(-2.139862e-05 1.488959e-04 -7.504510e-05)
61            	(-3.636155e-04 -2.926654e-05 -2.832640e-03)	(-3.428306e-04 -1.823702e-04 -2.761052e-03)	(-2.078491e-05 1.531036e-04 -7.158797e-05)
62            	(-3.728677e-04 1.074129e-04 -2.719589e-03)	(-3.526639e-04 -5.000635e-05 -2.652069e-03)	(-2.020381e-05 1.574192e-04 -6.751909e-05)
63            	(-3.839142e-04 2.112959e-04 -2.597316e-03)	(-3.642689e-04 4.956333e-05 -2.534480e-03)	(-1.964531e-05 1.617326e-04 -6.283675e-05)
64            	(-3.942630e-04 2.581620e-04 -2.478291e-03)	(-3.751779e-04 9.218581e-05 -2.420628e-03)	(-1.908511e-05 1.659762e-04 -5.766329e-05)
65            	(-4.034014e-04 3.030834e-04 -2.350352e-03)	(-3.848596e-04 1.329866e-04 -2.298076e-03)	(-1.854176e-05 1.700969e-04 -5.227641e-05)
66            	(-4.101587e-04 3.044216e-04 -2.233548e-03)	(-3.921373e-04 1.303911e-04 -2.186581e-03)	(-1.802139e-05 1.740305e-04 -4.696674e-05)
67            	(-4.121486e-04 3.136975e-04 -2.119083e-03)	(-3.946048e-04 1.360356e-04 -2.077191e-03)	(-1.754374e-05 1.776619e-04 -4.189218e-05)
68            	(-4.128027e-04 3.007452e-04 -2.019006e-03)	(-3.956904e-04 1.197707e-04 -1.981833e-03)	(-1.711225e-05 1.809745e-04 -3.717299e-05)
69            	(-4.082965e-04 3.093239e-04 -1.927608e-03)	(-3.915807e-04 1.254251e-04 -1.894776e-03)	(-1.671577e-05 1.838988e-04 -3.283172e-05)
70            	(-4.014921e-04 3.252984e-04 -1.847923e-03)	(-3.851689e-04 1.387887e-04 -1.819151e-03)	(-1.632327e-05 1.865098e-04 -2.877268e-05)
71            	(-3.930190e-04 3.508831e-04 -1.779429e-03)	(-3.771028e-04 1.620293e-04 -1.754514e-03)	(-1.591627e-05 1.888538e-04 -2.491472e-05)
72            	(-3.846922e-04 3.754709e-04 -1.721588e-03)	(-3.692098e-04 1.844829e-04 -1.700459e-03)	(-1.548235e-05 1.909881e-04 -2.112897e-05)
73            	(-3.751183e-04 4.119004e-04 -1.670504e-03)	(-3.600999e-04 2.189880e-04 -1.653197e-03)	(-1.501844e-05 1.929124e-04 -1.730713e-05)
74            	(-3.638410e-04 4.651035e-04 -1.626177e-03)	(-3.493162e-04 2.704710e-04 -1.612788e-03)	(-1.452479e-05 1.946326e-04 -1.338906e-05)
75            	(-3.527452e-04 5.207865e-04 -1.588677e-03)	(-3.387397e-04 3.246150e-04 -1.579295e-03)	(-1.400541e-05 1.961714e-04 -9.382188e-06)
76            	(-3.431875e-04 5.696542e-04 -1.558500e-03)	(-3.297090e-04 3.720985e-04 -1.553060e-03)	(-1.347851e-05 1.975557e-04 -5.439640e-06)
77            	(-3.344000e-04 6.183366e-04 -1.533261e-03)	(-3.214480e-04 4.194673e-04 -1.531544e-03)	(-1.295200e-05 1.988693e-04 -1.717435e-06)
78            	(-3.259982e-04 6.695388e-04 -1.512647e-03)	(-3.135690e-04 4.693712e-04 -1.514281e-03)	(-1.242917e-05 2.001676e-04 1.633941e-06)
79            	(-3.185668e-04 7.205388e-04 -1.501257e-03)	(-3.066577e-04 5.190180e-04 -1.505730e-03)	(-1.190908e-05 2.015208e-04 4.473121e-06)
80            	(-3.121748e-04 7.714094e-04 -1.500212e-03)	(-3.007782e-04 5.684569e-04 -1.506884e-03)	(-1.139665e-05 2.029525e-04 6.671608e-06)
81            	(-3.068392e-04 8.218227e-04 -1.510032e-03)	(-2.959392e-04 6.173699e-04 -1.518216e-03)	(-1.090001e-05 2.044528e-04 8.184340e-06)
82            	(-3.025067e-04 8.708369e-04 -1.531485e-03)	(-2.920844e-04 6.647961e-04 -1.540524e-03)	(-1.042236e-05 2.060408e-04 9.038712e-06)
83            	(-2.991580e-04 9.180215e-04 -1.565653e-03)	(-2.891888e-04 7.103035e-04 -1.574963e-03)	(-9.969236e-06 2.077180e-04 9.309337e-06)
84            	(-2.967888e-04 9.633279e-04 -1.612424e-03)	(-2.872367e-04 7.539041e-04 -1.621498e-03)	(-9.552063e-06 2.094237e-04 9.074648e-06)
85            	(-2.951171e-04 1.006345e-03 -1.670476e-03)	(-2.859370e-04 7.952511e-04 -1.678887e-03)	(-9.180035e-06 2.110940e-04 8.411907e-06)
86            	(-2.938349e-04 1.048064e-03 -1.738337e-03)	(-2.849845e-04 8.353697e-04 -1.745768e-03)	(-8.850419e-06 2.126943e-04 7.430501e-06)
87            	(-2.926993e-04 1.090066e-03 -1.815117e-03)	(-2.841451e-04 8.758563e-04 -1.821364e-03)	(-8.554182e-06 2.142094e-04 6.247118e-06)
88            	(-2.903981e-04 1.139601e-03 -1.899765e-03)	(-2.821122e-04 9.240042e-04 -1.904727e-03)	(-8.285903e-06 2.155972e-04 4.962436e-06)
89            	(-2.879460e-04 1.188533e-03 -1.989481e-03)	(-2.798995e-04 9.717205e-04 -1.993131e-03)	(-8.046489e-06 2.168128e-04 3.650058e-06)
90            	(-2.840988e-04 1.240863e-03 -2.081083e-03)	(-2.762592e-04 1.023074e-03 -2.083436e-03)	(-7.839545e-06 2.177899e-04 2.353312e-06)
91            	(-2.794862e-04 1.294865e-03 -2.170654e-03)	(-2.718151e-04 1.076385e-03 -2.171741e-03)	(-7.671117e-06 2.184801e-04 1.086426e-06)
92            	(-2.736559e-04 1.352893e-03 -2.254905e-03)	(-2.661122e-04 1.134035e-03 -2.254754e-03)	(-7.543736e-06 2.188583e-04 -1.510146e-07)
93            	(-2.665207e-04 1.414421e-03 -2.331134e-03)	(-2.590563e-04 1.195542e-03 -2.329727e-03)	(-7.464413e-06 2.188796e-04 -1.406790e-06)
94            	(-2.578866e-04 1.479097e-03 -2.396134e-03)	(-2.504480e-04 1.260590e-03 -2.393429e-03)	(-7.438522e-06 2.185075e-04 -2.705842e-06)
95            	(-2.477514e-04 1.546250e-03 -2.447571e-03)	(-2.402830e-04 1.328514e-03 -2.443515e-03)	(-7.468430e-06 2.177359e-04 -4.055687e-06)
96            	(-2.362415e-04 1.615033e-03 -2.483655e-03)	(-2.286862e-04 1.398471e-03 -2.478213e-03)	(-7.555328e-06 2.165626e-04 -5.442526e-06)
97            	(-2.234460e-04 1.684366e-03 -2.502479e-03)	(-2.157483e-04 1.469378e-03 -2.495646e-03)	(-7.697785e-06 2.149878e-04 -6.832399e-06)
98            	(-2.094971e-04 1.752951e-03 -2.502610e-03)	(-2.016070e-04 1.539923e-03 -2.494419e-03)	(-7.890180e-06 2.130277e-04 -8.191855e-06)
99            	(-1.947211e-04 1.819787e-03 -2.483945e-03)	(-1.865936e-04 1.609091e-03 -2.474469e-03)	(-8.127430e-06 2.106960e-04 -9.475806e-06)
100           	(-1.797789e-04 1.884077e-03 -2.447657e-03)	(-1.713689e-04 1.676094e-03 -2.437005e-03)	(-8.410006e-06 2.079835e-04 -1.065181e-05)
101           	(-1.650575e-04 1.944940e-03 -2.396001e-03)	(-1.563203e-04 1.740057e-03 -2.384282e-03)	(-8.737222e-06 2.048830e-04 -1.171887e-05)
102           	(-1.512017e-04 2.001229e-03 -2.332653e-03)	(-1.420954e-04 1.799818e-03 -2.319935e-03)	(-9.106337e-06 2.014113e-04 -1.271745e-05)
103           	(-1.388440e-04 2.051655e-03 -2.262422e-03)	(-1.293275e-04 1.854075e-03 -2.248727e-03)	(-9.516494e-06 1.975804e-04 -1.369536e-05)
104           	(-1.284839e-04 2.095208e-03 -2.190053e-03)	(-1.185073e-04 1.901845e-03 -2.175353e-03)	(-9.976651e-06 1.933630e-04 -1.469955e-05)
105           	(-1.204169e-04 2.131665e-03 -2.119560e-03)	(-1.099274e-04 1.942905e-03 -2.103809e-03)	(-1.048942e-05 1.887605e-04 -1.575122e-05)
106           	(-1.149457e-04 2.161308e-03 -2.054265e-03)	(-1.038934e-04 1.977482e-03 -2.037390e-03)	(-1.105235e-05 1.838261e-04 -1.687532e-05)
107           	(-1.121246e-04 2.184560e-03 -1.997721e-03)	(-1.004618e-04 2.005948e-03 -1.979653e-03)	(-1.166281e-05 1.786121e-04 -1.806797e-05)
108           	(-1.120333e-04 2.201811e-03 -1.952138e-03)	(-9.971709e-05 2.028630e-03 -1.932832e-03)	(-1.231624e-05 1.731812e-04 -1.930648e-05)
109           	(-1.144940e-04 2.213534e-03 -1.918884e-03)	(-1.014888e-04 2.045922e-03 -1.898313e-03)	(-1.300526e-05 1.676123e-04 -2.057022e-05)
110           	(-1.192304e-04 2.220192e-03 -1.898192e-03)	(-1.055074e-04 2.058192e-03 -1.876329e-03)	(-1.372299e-05 1.620000e-04 -2.186313e-05)
111           	(-1.261991e-04 2.221891e-03 -1.889467e-03)	(-1.117323e-04 2.065483e-03 -1.866305e-03)	(-1.446684e-05 1.564083e-04 -2.316249e-05)
112           	(-1.350759e-04 2.218282e-03 -1.891343e-03)	(-1.198463e-04 2.067387e-03 -1.866909e-03)	(-1.522959e-05 1.508953e-04 -2.443406e-05)
113           	(-1.458528e-04 2.209592e-03 -1.901582e-03)	(-1.298467e-04 2.064086e-03 -1.875934e-03)	(-1.600611e-05 1.455060e-04 -2.564814e-05)
114           	(-1.577999e-04 2.196100e-03 -1.917475e-03)	(-1.410137e-04 2.055798e-03 -1.890686e-03)	(-1.678616e-05 1.403013e-04 -2.678871e-05)
115           	(-1.703724e-04 2.178775e-03 -1.936219e-03)	(-1.528144e-04 2.043431e-03 -1.908382e-03)	(-1.755794e-05 1.353446e-04 -2.783740e-05)
116           	(-1.826298e-04 2.158522e-03 -1.954882e-03)	(-1.643230e-04 2.027823e-03 -1.926100e-03)	(-1.830678e-05 1.306988e-04 -2.878141e-05)
117           	(-1.939561e-04 2.136980e-03 -1.971184e-03)	(-1.749402e-04 2.010557e-03 -1.941588e-03)	(-1.901591e-05 1.264231e-04 -2.959627e-05)
118           	(-2.038651e-04 2.116122e-03 -1.983611e-03)	(-1.841923e-04 1.993567e-03 -1.953333e-03)	(-1.967279e-05 1.225549e-04 -3.027807e-05)
119           	(-2.117263e-04 2.097799e-03 -1.990855e-03)	(-1.914585e-04 1.978687e-03 -1.960013e-03)	(-2.026788e-05 1.191121e-04 -3.084177e-05)
120           	(-2.170253e-04 2.083961e-03 -1.992094e-03)	(-1.962297e-04 1.967869e-03 -1.960780e-03)	(-2.079556e-05 1.160923e-04 -3.131458e-05)
121           	(-2.194431e-04 2.076098e-03 -1.987262e-03)	(-1.981898e-04 1.962622e-03 -1.955539e-03)	(-2.125333e-05 1.134760e-04 -3.172325e-05)
122           	(-2.188708e-04 2.075286e-03 -1.976905e-03)	(-1.972299e-04 1.964049e-03 -1.944816e-03)	(-2.164087e-05 1.112362e-04 -3.208945e-05)
123           	(-2.154164e-04 2.082073e-03 -1.962060e-03)	(-1.934549e-04 1.972741e-03 -1.929623e-03)	(-2.196150e-05 1.093324e-04 -3.243727e-05)
124           	(-2.093392e-04 2.096497e-03 -1.943761e-03)	(-1.871210e-04 1.988766e-03 -1.910977e-03)	(-2.221816e-05 1.077317e-04 -3.278410e-05)
125           	(-2.010533e-04 2.118160e-03 -1.923177e-03)	(-1.786379e-04 2.011758e-03 -1.890033e-03)	(-2.241544e-05 1.064027e-04 -3.314398e-05)
126           	(-1.912132e-04 2.145858e-03 -1.902101e-03)	(-1.686539e-04 2.040541e-03 -1.868575e-03)	(-2.255926e-05 1.053162e-04 -3.352632e-05)
127           	(-1.807344e-04 2.178089e-03 -1.881982e-03)	(-1.580744e-04 2.073654e-03 -1.848041e-03)	(-2.265997e-05 1.044353e-04 -3.394071e-05)
128           	(-1.701440e-04 2.212880e-03 -1.864790e-03)	(-1.474183e-04 2.109149e-03 -1.830392e-03)	(-2.272566e-05 1.037308e-04 -3.439738e-05)
129           	(-1.599579e-04 2.248849e-03 -1.851365e-03)	(-1.371934e-04 2.145669e-03 -1.816456e-03)	(-2.276447e-05 1.031799e-04 -3.490943e-05)
130           	(-1.510100e-04 2.285747e-03 -1.842671e-03)	(-1.282237e-04 2.182980e-03 -1.807180e-03)	(-2.278631e-05 1.027666e-04 -3.549059e-05)
131           	(-1.434979e-04 2.321008e-03 -1.838609e-03)	(-1.207007e-04 2.218534e-03 -1.802462e-03)	(-2.279723e-05 1.024747e-04 -3.614656e-05)
132           	(-1.374825e-04 2.350295e-03 -1.837839e-03)	(-1.146819e-04 2.247995e-03 -1.800955e-03)	(-2.280062e-05 1.022997e-04 -3.688349e-05)
133           	(-1.331739e-04 2.376179e-03 -1.841068e-03)	(-1.103725e-04 2.273952e-03 -1.803381e-03)	(-2.280144e-05 1.022266e-04 -3.768735e-05)
134           	(-1.307063e-04 2.401198e-03 -1.847204e-03)	(-1.078995e-04 2.298963e-03 -1.808666e-03)	(-2.280675e-05 1.022356e-04 -3.853769e-05)
135           	(-1.294118e-04 2.422440e-03 -1.855863e-03)	(-1.065946e-04 2.320130e-03 -1.816450e-03)	(-2.281724e-05 1.023101e-04 -3.941284e-05)
136           	(-1.291027e-04 2.442685e-03 -1.865257e-03)	(-1.062676e-04 2.340250e-03 -1.824970e-03)	(-2.283507e-05 1.024351e-04 -4.028748e-05)
137           	(-1.293930e-04 2.461494e-03 -1.874384e-03)	(-1.065333e-04 2.358884e-03 -1.833241e-03)	(-2.285968e-05 1.026107e-04 -4.114281e-05)
138           	(-1.300566e-04 2.479345e-03 -1.882187e-03)	(-1.071662e-04 2.376518e-03 -1.840228e-03)	(-2.289045e-05 1.028269e-04 -4.195876e-05)
139           	(-1.307204e-04 2.496642e-03 -1.888019e-03)	(-1.077937e-04 2.393567e-03 -1.845298e-03)	(-2.292674e-05 1.030749e-04 -4.272151e-05)
140           	(-1.312494e-04 2.513420e-03 -1.891812e-03)	(-1.082815e-04 2.410074e-03 -1.848397e-03)	(-2.296790e-05 1.033464e-04 -4.341557e-05)
141           	(-1.315705e-04 2.529639e-03 -1.893573e-03)	(-1.085560e-04 2.426011e-03 -1.849550e-03)	(-2.301453e-05 1.036281e-04 -4.402298e-05)
142           	(-1.316209e-04 2.545192e-03 -1.893496e-03)	(-1.085535e-04 2.441285e-03 -1.848966e-03)	(-2.306738e-05 1.039071e-04 -4.453038e-05)
143           	(-1.315981e-04 2.559888e-03 -1.891627e-03)	(-1.084692e-04 2.455718e-03 -1.846700e-03)	(-2.312895e-05 1.041699e-04 -4.492766e-05)
144           	(-1.315978e-04 2.573562e-03 -1.888296e-03)	(-1.083975e-04 2.469157e-03 -1.843093e-03)	(-2.320028e-05 1.044052e-04 -4.520244e-05)
145           	(-1.318427e-04 2.586025e-03 -1.883531e-03)	(-1.085587e-04 2.481425e-03 -1.838179e-03)	(-2.328401e-05 1.045993e-04 -4.535109e-05)
146           	(-1.324547e-04 2.597193e-03 -1.877368e-03)	(-1.090720e-04 2.492449e-03 -1.831990e-03)	(-2.338276e-05 1.047437e-04 -4.537842e-05)
147           	(-1.335130e-04 2.607150e-03 -1.869684e-03)	(-1.100150e-04 2.502312e-03 -1.824389e-03)	(-2.349799e-05 1.048381e-04 -4.529476e-05)
148           	(-1.350689e-04 2.616021e-03 -1.860370e-03)	(-1.114381e-04 2.511133e-03 -1.815255e-03)	(-2.363076e-05 1.048873e-04 -4.511538e-05)
149           	(-1.371487e-04 2.623986e-03 -1.849405e-03)	(-1.133682e-04 2.519086e-03 -1.804554e-03)	(-2.378046e-05 1.049002e-04 -4.485105e-05)
150           	(-1.397421e-04 2.631246e-03 -1.836692e-03)	(-1.157957e-04 2.526362e-03 -1.792179e-03)	(-2.394637e-05 1.048841e-04 -4.451277e-05)
151           	(-1.427938e-04 2.637942e-03 -1.822282e-03)	(-1.186672e-04 2.533098e-03 -1.778171e-03)	(-2.412654e-05 1.048440e-04 -4.411093e-05)
152           	(-1.461930e-04 2.644243e-03 -1.806458e-03)	(-1.218758e-04 2.539458e-03 -1.762803e-03)	(-2.431715e-05 1.047852e-04 -4.365451e-05)
153           	(-1.497785e-04 2.650192e-03 -1.789584e-03)	(-1.252639e-04 2.545486e-03 -1.746428e-03)	(-2.451453e-05 1.047060e-04 -4.315566e-05)
154           	(-1.534013e-04 2.655605e-03 -1.772266e-03)	(-1.286861e-04 2.551006e-03 -1.729632e-03)	(-2.471519e-05 1.045991e-04 -4.263333e-05)
155           	(-1.569122e-04 2.660222e-03 -1.755301e-03)	(-1.319975e-04 2.555763e-03 -1.713194e-03)	(-2.491474e-05 1.044590e-04 -4.210737e-05)
156           	(-1.601906e-04 2.663786e-03 -1.739553e-03)	(-1.350822e-04 2.559501e-03 -1.697958e-03)	(-2.510841e-05 1.042848e-04 -4.159421e-05)
157           	(-1.631552e-04 2.665983e-03 -1.726023e-03)	(-1.378634e-04 2.561904e-03 -1.684915e-03)	(-2.529181e-05 1.040786e-04 -4.110821e-05)
158           	(-1.658365e-04 2.666697e-03 -1.715607e-03)	(-1.403756e-04 2.562847e-03 -1.674948e-03)	(-2.546089e-05 1.038503e-04 -4.065845e-05)
159           	(-1.681304e-04 2.665969e-03 -1.709062e-03)	(-1.425182e-04 2.562356e-03 -1.668810e-03)	(-2.561215e-05 1.036124e-04 -4.025142e-05)
160           	(-1.701857e-04 2.666429e-03 -1.707106e-03)	(-1.444402e-04 2.563057e-03 -1.667220e-03)	(-2.574545e-05 1.033721e-04 -3.988579e-05)
161           	(-1.718758e-04 2.666671e-03 -1.709074e-03)	(-1.460156e-04 2.563535e-03 -1.669514e-03)	(-2.586025e-05 1.031361e-04 -3.956005e-05)
162           	(-1.732235e-04 2.667145e-03 -1.714358e-03)	(-1.472647e-04 2.564234e-03 -1.675081e-03)	(-2.595878e-05 1.029113e-04 -3.927714e-05)
163           	(-1.741722e-04 2.668265e-03 -1.722209e-03)	(-1.481285e-04 2.565561e-03 -1.683170e-03)	(-2.604371e-05 1.027036e-04 -3.903864e-05)
164           	(-1.746828e-04 2.670622e-03 -1.731659e-03)	(-1.485643e-04 2.568109e-03 -1.692811e-03)	(-2.611853e-05 1.025139e-04 -3.884831e-05)
165           	(-1.746790e-04 2.674819e-03 -1.741618e-03)	(-1.484927e-04 2.572475e-03 -1.702908e-03)	(-2.618635e-05 1.023434e-04 -3.871072e-05)
166           	(-1.740173e-04 2.679939e-03 -1.750738e-03)	(-1.477690e-04 2.577743e-03 -1.712109e-03)	(-2.624830e-05 1.021960e-04 -3.862859e-05)
167           	(-1.726989e-04 2.688840e-03 -1.759380e-03)	(-1.463912e-04 2.586758e-03 -1.720768e-03)	(-2.630777e-05 1.020819e-04 -3.861195e-05)
168           	(-1.707208e-04 2.699265e-03 -1.766031e-03)	(-1.443556e-04 2.597261e-03 -1.727368e-03)	(-2.636516e-05 1.020037e-04 -3.866325e-05)
169           	(-1.679072e-04 2.711871e-03 -1.770726e-03)	(-1.414863e-04 2.609905e-03 -1.731939e-03)	(-2.642094e-05 1.019656e-04 -3.878740e-05)
170           	(-1.642784e-04 2.726259e-03 -1.773198e-03)	(-1.378034e-04 2.624291e-03 -1.734216e-03)	(-2.647499e-05 1.019676e-04 -3.898215e-05)
171           	(-1.598763e-04 2.742115e-03 -1.773558e-03)	(-1.333492e-04 2.640113e-03 -1.734316e-03)	(-2.652712e-05 1.020019e-04 -3.924174e-05)
172           	(-1.549688e-04 2.757830e-03 -1.772025e-03)	(-1.283911e-04 2.655772e-03 -1.732470e-03)	(-2.657767e-05 1.020576e-04 -3.955481e-05)
173           	(-1.498598e-04 2.773031e-03 -1.769084e-03)	(-1.232304e-04 2.670909e-03 -1.729172e-03)	(-2.662936e-05 1.021229e-04 -3.991267e-05)
174           	(-1.448510e-04 2.786372e-03 -1.765918e-03)	(-1.181664e-04 2.684196e-03 -1.725622e-03)	(-2.668456e-05 1.021758e-04 -4.029591e-05)
175           	(-1.403207e-04 2.796643e-03 -1.763635e-03)	(-1.135739e-04 2.694443e-03 -1.722953e-03)	(-2.674681e-05 1.021993e-04 -4.068265e-05)
176           	(-1.365917e-04 2.802930e-03 -1.763494e-03)	(-1.097718e-04 2.700755e-03 -1.722448e-03)	(-2.681987e-05 1.021751e-04 -4.104576e-05)
177           	(-1.339076e-04 2.804718e-03 -1.766131e-03)	(-1.069996e-04 2.702632e-03 -1.724772e-03)	(-2.690800e-05 1.020863e-04 -4.135897e-05)
178           	(-1.322260e-04 2.802554e-03 -1.771128e-03)	(-1.052130e-04 2.700634e-03 -1.729530e-03)	(-2.701299e-05 1.019193e-04 -4.159763e-05)
179           	(-1.314628e-04 2.797336e-03 -1.777772e-03)	(-1.043261e-04 2.695672e-03 -1.736022e-03)	(-2.713674e-05 1.016635e-04 -4.175023e-05)
180           	(-1.314619e-04 2.790324e-03 -1.785215e-03)	(-1.041818e-04 2.689011e-03 -1.743400e-03)	(-2.728009e-05 1.013131e-04 -4.181485e-05)
181           	(-1.320737e-04 2.782698e-03 -1.792897e-03)	(-1.046311e-04 2.681828e-03 -1.751102e-03)	(-2.744265e-05 1.008701e-04 -4.179494e-05)
182           	(-1.331924e-04 2.775324e-03 -1.800704e-03)	(-1.055686e-04 2.674982e-03 -1.759008e-03)	(-2.762381e-05 1.003413e-04 -4.169651e-05)
183           	(-1.346888e-04 2.768938e-03 -1.808537e-03)	(-1.068665e-04 2.669194e-03 -1.767009e-03)	(-2.782228e-05 9.974397e-05 -4.152758e-05)
184           	(-1.364202e-04 2.764171e-03 -1.816266e-03)	(-1.083848e-04 2.665069e-03 -1.774969e-03)	(-2.803537e-05 9.910268e-05 -4.129624e-05)
185           	(-1.382126e-04 2.761397e-03 -1.823667e-03)	(-1.099522e-04 2.662952e-03 -1.782648e-03)	(-2.826038e-05 9.844551e-05 -4.101933e-05)
186           	(-1.397757e-04 2.761130e-03 -1.830679e-03)	(-1.112830e-04 2.663335e-03 -1.789964e-03)	(-2.849273e-05 9.779479e-05 -4.071517e-05)
187           	(-1.408854e-04 2.764755e-03 -1.837044e-03)	(-1.121573e-04 2.667586e-03 -1.796644e-03)	(-2.872811e-05 9.716929e-05 -4.040012e-05)
188           	(-1.414451e-04 2.770616e-03 -1.842347e-03)	(-1.124850e-04 2.674030e-03 -1.802255e-03)	(-2.896016e-05 9.658553e-05 -4.009203e-05)
189           	(-1.415990e-04 2.776691e-03 -1.846072e-03)	(-1.124159e-04 2.680625e-03 -1.806263e-03)	(-2.918303e-05 9.606532e-05 -3.980912e-05)
190           	(-1.411256e-04 2.784304e-03 -1.848775e-03)	(-1.117336e-04 2.688675e-03 -1.809208e-03)	(-2.939194e-05 9.562965e-05 -3.956617e-05)
191           	(-1.400163e-04 2.792972e-03 -1.850673e-03)	(-1.104331e-04 2.697679e-03 -1.811297e-03)	(-2.958320e-05 9.529320e-05 -3.937603e-05)
192           	(-1.379374e-04 2.804583e-03 -1.852237e-03)	(-1.081834e-04 2.709517e-03 -1.812986e-03)	(-2.975404e-05 9.506558e-05 -3.925050e-05)
193           	(-1.357774e-04 2.814281e-03 -1.852920e-03)	(-1.058725e-04 2.719330e-03 -1.813725e-03)	(-2.990495e-05 9.495018e-05 -3.919557e-05)
194           	(-1.332867e-04 2.823828e-03 -1.853113e-03)	(-1.032506e-04 2.728884e-03 -1.813895e-03)	(-3.003608e-05 9.494401e-05 -3.921825e-05)
195           	(-1.298804e-04 2.834280e-03 -1.852576e-03)	(-9.973472e-05 2.739248e-03 -1.813254e-03)	(-3.014567e-05 9.503240e-05 -3.932260e-05)
196           	(-1.273042e-04 2.842198e-03 -1.850952e-03)	(-9.706343e-05 2.746993e-03 -1.811446e-03)	(-3.024076e-05 9.520428e-05 -3.950616e-05)
197           	(-1.248821e-04 2.848830e-03 -1.847887e-03)	(-9.455888e-05 2.753385e-03 -1.808119e-03)	(-3.032318e-05 9.544557e-05 -3.976862e-05)
198           	(-1.227337e-04 2.854025e-03 -1.843222e-03)	(-9.233808e-05 2.758283e-03 -1.803114e-03)	(-3.039558e-05 9.574182e-05 -4.010791e-05)
199           	(-1.209764e-04 2.857732e-03 -1.837007e-03)	(-9.051569e-05 2.761651e-03 -1.796487e-03)	(-3.046070e-05 9.608148e-05 -4.051954e-05)
200           	(-1.197838e-04 2.859715e-03 -1.829155e-03)	(-8.926306e-05 2.763270e-03 -1.788162e-03)	(-3.052070e-05 9.644461e-05 -4.099289e-05)
201           	(-1.192432e-04 2.860102e-03 -1.820396e-03)	(-8.866472e-05 2.763292e-03 -1.778879e-03)	(-3.057843e-05 9.681059e-05 -4.151698e-05)
202           	(-1.193992e-04 2.858989e-03 -1.811286e-03)	(-8.876205e-05 2.761840e-03 -1.769208e-03)	(-3.063710e-05 9.714815e-05 -4.207760e-05)
203           	(-1.203925e-04 2.856137e-03 -1.802535e-03)	(-8.969192e-05 2.758701e-03 -1.759871e-03)	(-3.070062e-05 9.743534e-05 -4.266331e-05)
204           	(-1.219951e-04 2.852392e-03 -1.794359e-03)	(-9.122418e-05 2.754739e-03 -1.751095e-03)	(-3.077093e-05 9.765278e-05 -4.326385e-05)
205           	(-1.241099e-04 2.848253e-03 -1.786763e-03)	(-9.326064e-05 2.750458e-03 -1.742894e-03)	(-3.084930e-05 9.779470e-05 -4.386846e-05)
206           	(-1.264805e-04 2.844693e-03 -1.779674e-03)	(-9.554433e-05 2.746831e-03 -1.735204e-03)	(-3.093618e-05 9.786167e-05 -4.447083e-05)