# omega  POINT_DATA 56513
# x  y  z  omega
-0.0292381 0 8.09214e-08 1324.25
0.0292381 0 8.09214e-08 1323.38
0.0292381 -3.38813e-21 0.000233596 1274.66
-0.0292381 3.38813e-21 0.000233441 1275.55
0.029238 -3.38813e-21 0.000431066 1381.34
-0.0292381 0 0.000430751 1382.17
0.029238 -1.35525e-20 0.000664138 1785.94
-0.029238 -6.77626e-21 0.000663676 1786.68
0.029238 -3.38813e-21 0.000908366 2099.8
-0.029238 0 0.000907922 2100.7
-0.029238 -3.38813e-21 0.00111494 2277.35
0.029238 3.38813e-21 0.00111544 2276.47
-0.029238 0 0.00135903 2538.04
0.0292379 0 0.00135951 2537.19
-0.0292379 -3.38813e-21 0.00161391 2678.5
0.0292379 0 0.00161421 2677.43
-0.0292379 3.38813e-21 0.00183185 2488.79
0.0292379 3.38813e-21 0.00183203 2488.11
0.0292379 1.35525e-20 0.002087 1763.06
-0.0292379 -1.35525e-20 0.002087 1762.33
-0.0293159 -1.01644e-20 0.000332812 1307.12
0.0293159 1.69407e-20 0.000333044 1306.22
-0.0293201 -3.38813e-21 0.00100457 2327.82
0.0293201 1.35525e-20 0.00100504 2326.91
-0.0293199 0 0.0017002 2895.33
0.0293199 3.38813e-21 0.00170046 2894.18
-0.0294721 0 0.000122211 1456.01
0.0294722 1.35525e-20 0.000122307 1455.12
-0.0294728 0 7.47975e-08 1460.12
0.0294728 0 7.47971e-08 1459.23
-0.0294797 1.35525e-20 0.000527785 1845.52
0.0294797 -1.35525e-20 0.000528144 1844.71
-0.0294753 -1.35525e-20 0.000796291 2254.26
0.0294753 1.35525e-20 0.000796753 2253.42
-0.0294755 2.03288e-20 0.00118666 2840.89
0.0294755 0 0.00118714 2839.97
-0.0294683 -1.35525e-20 0.00147414 3077.26
0.0294683 -1.35525e-20 0.00147454 3076.22
-0.0294625 -6.77626e-21 0.00186309 2486.72
0.0294626 -6.77626e-21 0.00186328 2486.71
-0.029578 -1.35525e-20 6.64178e-08 1434.38
0.029578 -2.71051e-20 6.64171e-08 1433.39
-0.0295009 -1.35525e-20 0.00213468 1571.85
0.0295009 6.77626e-21 0.00213468 1573.41
-0.029587 1.35525e-20 0.000650836 1848.71
0.0295871 -2.71051e-20 0.00065131 1853.52
-0.0295378 1.35525e-20 0.00203786 1835.99
0.0295378 1.35525e-20 0.00203793 1837.28
-0.029584 -2.71051e-20 0.00130565 2565.12
0.0295841 0 0.00130618 2578.78
-0.0295849 -1.35525e-20 0.00192058 1938.2
0.0295849 6.77626e-21 0.00192076 1949.04
0.029649 0 0.00216152 1849.45
-0.029649 0 0.00216152 1848.28
-0.0297926 4.51751e-22 0.000963661 2987.7
0.0297927 1.807e-21 0.000964146 2988.69
-0.0298093 -1.35525e-20 7.62609e-08 1729.29
0.0298093 -2.71051e-20 7.62598e-08 1728.35
-0.0298204 9.03502e-22 0.000317447 1694.61
0.0298205 1.12938e-21 0.000317662 1694.11
-0.0297852 4.96926e-21 0.00156826 3585.68
0.0297852 1.807e-21 0.00156862 3588.11
-0.0297946 -1.12938e-21 0.00197115 2007.78
0.0297946 3.38813e-21 0.0019713 2009.25
-0.029885 -3.38813e-21 8.57338e-08 1645.97
0.0298851 -3.38813e-21 8.5738e-08 1644.98
0.0298185 -6.77626e-21 0.00219226 1520.41
-0.0298186 -2.71051e-20 0.00219226 1518.68
-0.0299229 0 0.00221118 1649.79
0.0299229 -1.35525e-20 0.00221118 1650.9
-0.0300582 0 1.01023e-07 1269.27
0.0300583 0 1.01025e-07 1268.41
-0.030042 0 0.00125419 1729.15
0.0300421 -9.03502e-21 0.00125463 1732.85
-0.030023 -7.7443e-21 0.00171052 1790.61
0.0300231 -4.84019e-21 0.0017108 1792.72
-0.0300766 0 0.00065666 1400.24
0.0300767 4.51751e-21 0.000657051 1400.16
-0.0301411 -6.77626e-21 0.000117994 1220.69
0.0301411 6.77626e-21 0.000117999 1220
-0.030143 0 9.36904e-08 1220.41
0.0301431 0 9.3697e-08 1219.72
-0.0300722 1.35525e-20 0.00223823 1190.99
0.0300722 -1.35525e-20 0.00223824 1191.93
-0.0302709 -1.35525e-20 0.000327812 1110.01
0.0302709 0 0.000327976 1109.52
-0.0302588 0 0.000959195 1356.24
0.0302588 -1.35525e-20 0.000959517 1357.47
-0.0302233 -1.12938e-21 0.00199374 1220.53
0.0302233 -1.12938e-21 0.00199386 1221.33
-0.0302513 -1.35525e-20 0.00155258 1523.41
0.0302514 0 0.00155284 1522.79
0.0303944 -1.01644e-20 0.00229663 1208.88
-0.0303944 0 0.00229664 1208.2
-0.0305071 -3.38813e-21 4.03686e-05 1013.08
0.0305071 3.38813e-21 4.03653e-05 1012.68
-0.0305084 0 2.78813e-08 1012.61
0.0305085 0 2.78788e-08 1012.2
-0.0305355 0 2.44807e-08 984.836
0.0305355 -3.38813e-21 2.44807e-08 984.443
0.030464 0 0.00230926 1267.02
-0.030464 6.77626e-21 0.00230926 1266.4
0.0305559 -3.38813e-21 2.5605e-08 978.11
-0.0305559 0 2.56056e-08 978.491
0.0305566 0 2.16951e-05 978.089
-0.0305566 0 2.17024e-05 978.47
-0.0305496 7.05861e-23 0.00065626 971.948
0.0305496 -1.41172e-22 0.000656486 973.254
-0.0305132 1.50584e-21 0.00170668 1111.88
0.0305132 1.8823e-22 0.00170684 1112.54
-0.0305476 -3.38813e-22 0.00124506 1021.64
0.0305476 2.25875e-22 0.00124529 1023.5
-0.030501 -6.77626e-21 0.00231596 1204.26
0.030501 0 0.00231596 1204.84
0.0306237 0 3.57389e-08 975.217
-0.0306238 0 3.5746e-08 975.568
-0.0306099 -3.38813e-21 0.0021928 1103.94
0.03061 0 0.00219279 1104.41
-0.0307225 -3.38813e-21 0.00235612 1171.31
0.0307226 0 0.00235614 1171.75
-0.0308383 2.71051e-20 0.000320901 879.306
0.0308383 5.42101e-20 0.000320968 879.088
-0.0308116 0 0.00198356 890.696
0.0308116 2.25875e-21 0.00198362 891.545
-0.0309907 0 0.0010195 590.804
0.0309907 -8.13152e-21 0.00101961 604.675
-0.0309922 0 0.00150595 593.498
0.0309922 0 0.00150605 607.193
-0.0310394 0 9.17162e-08 903.745
0.0310395 0 9.17132e-08 903.594
-0.0310415 0 0.000119361 900.855
0.0310416 0 0.000119404 900.702
-0.030965 0 0.00240008 1130.07
0.030965 0 0.00240009 1130.37
-0.030982 0 0.00237269 1114.82
0.030982 0 0.00237271 1115.11
0.0310104 6.77626e-21 0.00240832 1130.59
-0.0310104 6.77626e-21 0.00240832 1130.32
0.0310179 6.77626e-21 0.00233587 1032.24
-0.0310179 0 0.00233584 1031.48
-0.0311223 9.03502e-21 0.000639224 722.952
0.0311223 -4.51751e-21 0.000639291 735.562
0.0310526 6.77626e-21 0.00237692 1094.7
-0.0310526 -6.77626e-21 0.00237691 1094.43
-0.0311458 1.35525e-20 9.71539e-08 939.24
0.0311459 0 9.71521e-08 939.157
0.031071 0 0.00241931 1102.42
-0.0310711 -6.77626e-21 0.00241931 1102.16
-0.0312091 -2.71051e-20 0.00177609 860.164
0.0312091 -2.71051e-20 0.00177613 881.3
-0.0312491 0 0.00122869 648.145
0.0312491 0 0.00122876 675.74
-0.0312857 0 8.40765e-08 918.989
0.0312858 -1.35525e-20 8.4069e-08 918.958
-0.0312916 0 0.000133791 917.555
0.0312917 1.35525e-20 0.000133817 917.528
-0.0313889 0 0.00201496 770.79
0.0313889 2.25875e-21 0.00201499 773.058
-0.0313958 -6.77626e-21 0.00247818 1162.67
0.0313958 0 0.00247818 1162.87
-0.0314932 0 0.00040878 817.868
0.0314932 0 0.000408784 822.567
-0.0315059 0 0.000915866 400.026
0.0315059 0 0.000915906 411.725
-0.0314281 0 0.00241762 1161.38
0.0314281 0 0.00241764 1161.57
-0.0315016 0 0.00151814 385.884
0.0315016 2.25875e-21 0.00151817 399.368
0.0314986 -1.35525e-20 0.00234883 1038.69
-0.0314986 1.35525e-20 0.00234879 1036.39
0.0315086 0 0.00249863 1281.04
-0.0315086 -1.35525e-20 0.00249863 1280.89
0.0316957 1.35525e-20 0.0001271 862.828
-0.0316957 0 0.000127012 862.802
0.0316993 0 1.28441e-08 862.938
-0.0316993 0 1.28327e-08 862.913
-0.0317724 0 0.000610883 585.996
0.0317724 2.71051e-20 0.000610893 591.044
-0.0317679 0 0.00121729 341.592
0.0317679 0 0.0012173 352.71
-0.0317537 0 0.00187022 695.268
0.0317537 2.71051e-20 0.00187023 706.725
0.0317093 2.71051e-20 0.00253502 1452.29
-0.0317093 2.71051e-20 0.00253502 1452.11
-0.0318341 -1.35525e-20 3.55262e-10 864.329
0.0318342 1.35525e-20 3.5768e-10 864.357
0.0317532 -1.8823e-22 0.00228382 1364.22
-0.0317532 -1.31761e-21 0.00228381 1363.93
-0.0319513 -1.35525e-20 4.55429e-10 850.365
0.0319515 1.35525e-20 4.57735e-10 850.408
-0.0319524 1.35525e-20 0.000127633 849.625
0.0319526 0 0.000127717 849.671
-0.0318828 0 0.00256647 1770.57
0.0318828 0 0.00256647 1770.77
-0.0319995 4.51751e-21 0.0009146 299.768
0.0319996 0 0.000914606 306.658
-0.0320112 0 0.000400505 756.413
0.0320112 0 0.0004005 758.3
0.0320267 -2.25875e-21 0.00227705 1474.95
-0.0320267 -1.12938e-21 0.00227704 1460.15
0.0320296 0 0.00251382 2115.2
-0.0320296 0 0.00251381 2115.02
-0.0320975 2.25875e-21 0.00153739 276.077
0.0320975 -2.25875e-21 0.0015374 284.201
-0.0320427 6.77626e-21 0.00259544 2242.42
0.0320427 -6.77626e-21 0.00259544 2242.6
-0.0321203 -9.03502e-21 0.00203437 653.496
0.0321203 -4.51751e-21 0.00203437 691.999
-0.032135 0 0.00238954 2157.14
0.032135 0 0.00238955 2157.33
0.0322923 1.35525e-20 0.000126387 821.872
-0.0322923 1.35525e-20 0.000126365 821.747
0.0323016 1.35525e-20 2.23457e-09 821.751
-0.0323016 -1.35525e-20 2.23356e-09 821.626
-0.0322103 1.35525e-20 0.00262583 2313.9
0.0322103 1.35525e-20 0.00262583 2314.05
-0.0322717 -1.35525e-20 0.00254335 2196.18
0.0322718 -1.35525e-20 0.00254336 2196.31
-0.032418 0 2.33101e-09 827.474
0.032418 -1.35525e-20 2.33195e-09 827.613
-0.0324263 4.51751e-21 0.000612604 513.376
0.0324263 0 0.000612601 516.325
-0.0324222 -9.03502e-21 0.00112452 193.515
0.0324222 0 0.00112451 199.139
-0.032412 0 0.00187553 529.72
0.0324121 5.42101e-20 0.00187553 538.783
-0.0323801 -1.35525e-20 0.0026566 1831.37
0.0323802 -1.35525e-20 0.00265661 1831.5
-0.0324113 1.69407e-21 0.00229689 1377.03
0.0324113 1.12938e-21 0.0022969 1386.75
-0.032547 1.35525e-20 2.20754e-09 835.648
0.032547 -1.35525e-20 2.20837e-09 835.815
-0.0325489 -1.35525e-20 0.000125731 835.644
0.0325489 0 0.00012575 835.811
-0.0326035 0 0.00269705 1961.78
0.0326035 -6.77626e-21 0.00269706 1961.82
-0.032737 -2.71051e-20 0.00030837 842.094
0.032737 0 0.000308358 842.297
-0.0327282 2.25875e-21 0.00154832 217.163
0.0327282 -6.77626e-21 0.00154831 226.775
-0.0326737 -4.51751e-21 0.00254228 1841.85
0.0326738 -9.03502e-21 0.00254228 1841.89
-0.0327075 0 0.00206775 529.531
0.0327075 4.51751e-21 0.00206775 531.06
-0.032708 2.03288e-20 0.002716 1914.4
0.0327081 0 0.00271601 1914.42
-0.0328421 -4.51751e-21 0.000917741 232.779
0.0328421 4.51751e-21 0.000917735 238.526
-0.0328866 0 1.93643e-09 852.398
0.0328867 0 1.93682e-09 852.61
-0.032889 1.35525e-20 0.000149427 852.397
0.032889 1.35525e-20 0.000149442 852.609
-0.0329824 -1.35525e-20 0.000542132 626.474
0.0329824 5.80823e-21 0.00054211 628.911
-0.0330371 -2.71051e-20 1.79015e-09 855.46
0.0330372 -1.35525e-20 1.79044e-09 855.666
-0.0329464 2.71051e-20 0.00275916 1449.74
0.0329464 0 0.00275917 1449.83
-0.0329864 -5.64689e-22 0.00235373 1150.32
0.0329864 -3.38813e-22 0.00235373 1152.49
-0.0330505 0 0.00123121 159.638
0.0330505 0 0.00123119 167.564
-0.03302 -2.71051e-20 0.00190069 426.796
0.03302 2.71051e-20 0.00190069 431.612
-0.0332006 -1.35525e-20 2.0216e-09 860.011
0.0332007 -2.71051e-20 2.02177e-09 860.207
-0.0333521 6.77626e-21 0.000302612 795.364
0.0333521 -9.03502e-21 0.000302604 796.206
-0.0333579 -2.25875e-21 0.000916469 227.859
0.0333579 2.25875e-21 0.000916441 233.666
0.0332522 6.77626e-21 0.00281453 1675.17
-0.0332522 -2.71051e-20 0.00281452 1675.12
-0.0333432 2.25875e-21 0.00156281 171.043
0.0333432 1.35525e-20 0.0015628 182.258
-0.0332953 -3.38813e-21 0.00276394 1708.79
0.0332953 0 0.00276393 1708.84
-0.0333121 -1.35525e-20 0.00282536 1679.46
0.0333121 0 0.00282536 1679.51
-0.03334 -2.25875e-21 0.00259806 1622.53
0.03334 -1.12938e-21 0.00259806 1623.23
-0.0333776 2.25875e-21 0.00214892 482.091
0.0333777 -2.25875e-21 0.00214893 491.142
-0.0334909 0 2.97205e-09 867.339
0.0334909 -2.71051e-20 2.97158e-09 867.57
-0.0336619 -2.71051e-20 3.2006e-09 872.092
0.0336619 0 3.20002e-09 872.363
0.0336674 -2.71051e-20 0.000602311 521.324
-0.0336674 0 0.000602349 518.255
0.0336288 -2.71051e-20 0.00191753 368.38
-0.0336288 2.71051e-20 0.00191755 359.551
0.0336642 0 0.00123321 144.477
-0.0336642 0 0.00123324 137.105
-0.0335885 2.71051e-20 0.00287539 1475.3
0.0335885 0 0.00287539 1475.39
-0.0336882 -2.71051e-20 0.0024221 1054.91
0.0336883 0 0.00242211 1062.62
-0.0338384 -1.35525e-20 2.82155e-09 873.116
0.0338384 1.35525e-20 2.82101e-09 873.418
0.0338129 -2.71051e-20 0.00291608 1383.99
-0.033813 0 0.00291609 1383.88
-0.0339781 -4.51751e-21 0.000302701 804.753
0.0339781 0 0.000302675 805.581
-0.0339808 -6.77626e-21 0.000914762 221.098
0.0339808 2.25875e-21 0.000914701 225.467
0.0339745 -2.25875e-21 0.00155861 145.129
-0.0339745 -9.03502e-21 0.00155866 137.97
-0.0339481 2.25875e-21 0.0026758 1384.39
0.0339481 4.51751e-22 0.00267579 1384.89
-0.0339879 1.58113e-20 0.00215835 410.062
0.0339879 -2.25875e-21 0.00215833 410.042
-0.0341105 -1.35525e-20 1.81923e-09 877.412
0.0341105 -1.35525e-20 1.81899e-09 877.771
0.0340317 0 0.00295577 1361.2
-0.0340318 0 0.00295579 1361.05
-0.0342884 -2.71051e-20 1.43984e-09 886.005
0.0342884 -2.71051e-20 1.43965e-09 886.39
-0.0342943 -2.71051e-20 0.000598991 523.62
0.0342943 2.71051e-20 0.000598921 526.397
0.0342171 -1.35525e-20 0.00298939 1419.38
-0.0342172 4.06576e-20 0.0029894 1419.2
0.0342949 0 0.00244804 942.112
-0.0342949 0 0.00244806 933.146
-0.034362 0 0.00129504 110.843
0.034362 -9.68038e-21 0.00129496 117.168
-0.0343655 1.16165e-20 0.00179159 149.079
0.0343655 1.54886e-20 0.00179153 159.199
0.0343352 1.35525e-20 0.00301088 1162.5
-0.0343353 1.35525e-20 0.00301089 1162.34
-0.0344682 1.35525e-20 1.2842e-09 889.697
0.0344682 2.71051e-20 1.284e-09 890.117
-0.0345084 -9.03502e-21 0.000909454 215.523
0.0345084 -1.35525e-20 0.000909369 220.277
-0.034518 -9.03502e-21 0.00215838 332.813
0.034518 -4.51751e-21 0.00215835 337.471
-0.0346072 -4.51751e-21 0.000300821 821.925
0.0346072 0 0.000300778 822.875
0.0346152 2.71051e-20 0.00154283 93.3933
-0.0346152 2.71051e-20 0.00154291 85.838
0.034558 -4.51751e-22 0.00272776 967.556
-0.034558 1.58113e-21 0.00272776 967.045
0.0345977 1.35525e-20 0.00305919 1173.49
-0.0345977 0 0.0030592 1173.35
-0.0347356 0 9.21309e-10 904.061
0.0347357 1.35525e-20 9.21242e-10 904.526
-0.0346831 -6.77626e-21 0.00307474 1316.82
0.0346831 6.77626e-21 0.00307474 1317.04
-0.0349165 2.71051e-20 7.6471e-10 923.975
0.0349166 0 7.64643e-10 924.458
-0.0349264 4.51751e-21 0.000691164 390.678
0.0349264 -4.51751e-21 0.000691082 394.867
0.0349292 -2.25875e-21 0.00121438 123.421
-0.0349292 0 0.00121448 117.032
0.0349324 1.35525e-20 0.00185859 140.132
-0.0349324 -4.51751e-21 0.00185866 135.456
0.0348922 1.35525e-20 0.00311391 1530.37
-0.0348922 1.01644e-20 0.00311391 1530.2
0.0349975 -2.25875e-21 0.00246507 708.352
-0.0349975 2.25875e-21 0.00246508 695.265
-0.0350985 0 7.01007e-10 931.22
0.0350985 1.35525e-20 7.00941e-10 931.701
-0.035002 9.03502e-21 0.00285808 1480.43
0.035002 0 0.00285808 1482.12
-0.0352406 2.25875e-21 0.000295905 856.761
0.0352407 6.77626e-21 0.000295859 857.913
-0.0352487 0 0.00089372 152.505
0.0352487 -2.71051e-20 0.000893614 159.122
0.0351342 1.69407e-21 0.00315794 2015.75
-0.0351342 -1.69407e-21 0.00315795 2015.62
0.0352503 0 0.00152768 83.664
-0.0352503 2.71051e-20 0.00152777 77.6194
-0.0351477 0 0.00316042 2022.66
0.0351478 -1.69407e-21 0.00316043 2022.84
0.0351794 0 0.00281731 1549.55
-0.0351794 0 0.00281732 1536.61
-0.035153 0 0.00314567 2018.81
0.035153 -1.69407e-21 0.00314559 2018.97
0.0352564 0 0.00217228 164.925
-0.0352564 0 0.00217232 164.644
-0.0353734 -1.35525e-20 5.21809e-10 948.869
0.0353735 0 5.21779e-10 949.353
-0.0352366 1.69407e-21 0.0031769 2029.65
0.0352373 -3.38813e-21 0.00317703 2029.89
-0.0353097 0 0.00290012 1770.39
0.0353097 1.35525e-20 0.00290013 1784.42
-0.0355532 0 4.57365e-10 982.729
0.0355533 0 4.57336e-10 983.212
0.0355671 -6.77626e-21 0.00119581 123.472
-0.0355671 4.51751e-21 0.00119592 115.315
0.0355696 9.03502e-21 0.00184838 117.448
-0.0355696 6.77626e-21 0.00184845 110.802
-0.0356124 2.25875e-21 0.000622322 520.453
0.0356125 -4.51751e-21 0.000622242 525.376
0.0355744 -6.77626e-21 0.00250427 597.392
-0.0355744 -1.58113e-20 0.00250428 583.46
-0.035529 3.38813e-21 0.0032312 2134.49
0.0355292 -3.38813e-21 0.00323122 2134.57
-0.0355423 0 0.00321267 2108.51
0.0355424 0 0.00321273 2108.65
0.0355811 -9.03502e-21 0.00287218 1443.99
-0.0355811 -1.35525e-20 0.00287218 1435.69
-0.035574 -3.38813e-21 0.00316175 1914.27
-0.0355672 0 0.0032382 2016.98
0.0355741 0 0.0031619 1917.42
0.0355673 0 0.00323821 2017.27
-0.0357312 -1.35525e-20 4.06834e-10 986.928
0.0357313 -1.35525e-20 4.06801e-10 987.393
-0.0356064 6.77626e-21 0.00321772 2035.32
0.0356064 0 0.00321777 2035.57
0.0356195 3.38813e-21 0.00324783 2037.63
-0.0356195 0 0.00324784 2037.39
-0.0358766 0 0.000193571 995.202
0.0358767 1.35525e-20 0.000193555 995.653
-0.035885 0 0.000875629 157.743
0.035885 0 0.000875535 167.861
-0.0358906 0 0.00150725 70.4047
0.0358906 -2.71051e-20 0.00150716 80.2246
0.0358881 -2.71051e-20 0.00216694 135.6
-0.0358881 0 0.00216698 124.365
-0.0358664 6.77626e-21 0.00295102 1353.73
0.0358665 1.35525e-20 0.00295103 1352.48
-0.0360201 -1.35525e-20 2.47881e-10 1005.37
0.0360202 2.71051e-20 2.47868e-10 1005.8
-0.036024 1.35525e-20 0.00332287 1772.43
0.0360241 0 0.00332289 1772.51
-0.0361957 0 1.96858e-10 1051.95
0.0361958 0 1.96841e-10 1052.39
-0.0362011 -2.25875e-21 0.000563546 603.054
0.0362011 -2.25875e-21 0.000563484 608.59
-0.03606 1.35525e-20 0.00326851 1725.3
0.0360601 -1.35525e-20 0.00326857 1725.44
-0.036206 2.25875e-21 0.00117895 114.852
0.0362061 4.51751e-21 0.00117887 125.542
0.0362045 4.51751e-21 0.00184383 103.433
-0.0362045 0 0.00184388 92.1823
0.0361888 -2.25875e-21 0.00253169 452.093
-0.0361888 4.51751e-21 0.0025317 447.076
-0.0361316 0 0.00334265 1556.61
0.0361316 -1.35525e-20 0.00334265 1556.89
0.0361687 -6.77626e-21 0.00293434 1139.47
-0.0361687 -2.25875e-21 0.00293434 1139.45
0.0361567 6.77626e-21 0.00314741 1392.18
-0.0361567 1.35525e-20 0.00314727 1392.21
-0.0363723 0 1.67562e-10 1037.64
0.0363723 1.35525e-20 1.67547e-10 1038.05
0.0362562 0 0.00328574 1645.58
-0.0362563 -1.35525e-20 0.00328569 1645.42
0.0363065 6.77626e-21 0.00337454 1673.23
-0.0363067 6.77626e-21 0.00337457 1673.11
-0.0365138 0 0.000190564 1042.63
0.0365138 9.03502e-21 0.000190552 1043.03
-0.0365218 2.71051e-20 0.000861999 161.853
0.0365219 0 0.000861929 173.322
-0.0365244 0 0.00149847 65.9622
0.0365244 0 0.00149841 77.4252
0.0365145 0 0.00218148 117.435
-0.0365145 5.42101e-20 0.00218151 104.07
-0.0364788 -1.35525e-20 0.00289752 762.444
0.0364788 1.35525e-20 0.00289755 764.034
-0.0366526 0 8.42588e-11 1050.28
0.0366527 0 8.42553e-11 1050.65
-0.036569 -5.42101e-21 0.00323416 1607.4
0.036569 1.35525e-20 0.00323419 1607.54
-0.0365532 -1.35525e-20 0.00341957 1728.15
0.0365533 -1.35525e-20 0.00341959 1728.3
-0.0367898 1.58113e-20 0.000598955 564.082
0.0367898 2.25875e-21 0.000598917 571.19
-0.036834 0 5.5588e-11 1106.48
0.0368341 0 5.55862e-11 1106.83
-0.0368407 2.25875e-21 0.00116968 114.73
0.0368407 2.25875e-21 0.00116963 126.744
0.0368348 -4.51751e-21 0.00184465 92.2852
-0.0368348 6.77626e-21 0.00184468 81.3579
0.0368045 1.58113e-20 0.00255346 387.786
-0.0368045 -2.25875e-21 0.00255346 379.157
0.0367777 -2.71051e-20 0.00346047 1592.07
-0.0367777 2.71051e-20 0.00346047 1591.75
-0.0368393 1.35525e-21 0.00303407 1152.88
0.0368393 1.35525e-21 0.00303408 1158.3
-0.0370199 1.35525e-20 4.78303e-11 1067.53
0.0370199 -1.35525e-20 4.78279e-11 1067.84
-0.0371489 -2.25875e-21 0.000281507 974.823
0.0371489 2.25875e-21 0.000281494 976.265
0.0371548 -2.71051e-20 0.000855626 176.39
-0.0371548 0 0.000855666 163.894
0.0371549 2.71051e-20 0.00149516 75.3271
-0.0371549 0 0.00149519 62.7364
0.0371441 0 0.00218077 97.4272
-0.0371441 -2.71051e-20 0.00218078 90.5574
0.0370564 6.77626e-21 0.00351129 1456.16
-0.0370564 -1.35525e-20 0.00351131 1455.75
0.03727 0 2.98638e-11 1074.75
-0.03727 0 2.9863e-11 1074.48
-0.0371712 2.71051e-20 0.00278261 303.642
0.0371713 2.71051e-20 0.00278261 327.918
-0.0371159 -1.35525e-20 0.00352216 1467.39
0.037116 -1.69407e-20 0.00352218 1467.83
-0.0371348 -4.51751e-21 0.00333173 1601.22
0.0371348 0 0.00333177 1601.6
-0.0374605 0 2.22234e-11 1138.87
0.0374605 0 2.22235e-11 1139.12
-0.0374674 4.51751e-21 0.000637841 469.893
0.0374674 1.807e-20 0.000637823 479.894
0.0374702 -4.51751e-21 0.00116461 127.839
-0.0374702 -2.25875e-21 0.00116464 114.297
0.0374665 0 0.00183966 83.411
-0.0374665 -3.38813e-21 0.00183967 71.986
-0.0374682 -1.12938e-21 0.00249666 181.031
0.0374682 0 0.00249666 190.859
-0.0374675 0 0.00307365 1011.74
0.0374675 1.88079e-37 0.00307365 1015.13
-0.0374246 2.71051e-20 0.00357844 1602.47
0.0374247 1.35525e-20 0.00357845 1602.82
-0.0376529 -2.71051e-20 1.86806e-11 1084.95
0.0376529 -1.35525e-20 1.86807e-11 1085.19
-0.0377742 1.12938e-20 0.000280154 991.861
0.0377742 2.25875e-21 0.000280151 993.325
-0.0377819 0 0.000851859 165.115
0.0377819 2.71051e-20 0.00085184 179.947
0.0377838 2.71051e-20 0.00149135 74.2511
-0.0377838 0 0.00149136 60.0225
-0.0376598 6.77626e-21 0.00362112 1089.71
0.0376599 1.35525e-20 0.00362114 1089.92
0.0377819 2.71051e-20 0.00216934 86.4446
-0.0377819 0 0.00216935 74.0342
0.0377773 -5.42101e-20 0.00279682 227.368
-0.0377773 0 0.00279681 234.172
0.0378849 0 1.07538e-11 1092.99
-0.0378849 0 1.07533e-11 1092.77
-0.0377229 -6.77626e-21 0.00353461 1013.66
0.037723 -6.77626e-21 0.00353476 1013.99
-0.0377797 -1.12938e-21 0.00335602 1112.63
0.0377798 0 0.00335605 1112.74
0.0377789 0 0.00364262 1036.76
-0.037779 -6.77626e-21 0.00364263 1036.46
-0.0380777 2.71051e-20 7.23455e-12 1161.44
0.0380777 0 7.23493e-12 1161.66
-0.0380891 4.51751e-21 0.000630694 483.107
0.0380891 0 0.00063069 493.378
-0.0380959 -6.77626e-21 0.00115829 114.634
0.0380959 2.25875e-21 0.00115829 129.212
0.0380968 -1.12938e-21 0.0018338 77.8823
-0.0380968 1.12938e-21 0.0018338 64.2317
-0.0379952 -1.35525e-20 0.00368181 1194.72
0.0379952 1.35525e-20 0.00368182 1195.09
-0.0380943 0 0.00250862 145.896
0.0380943 -1.12938e-21 0.00250862 149.992
-0.0380787 -9.03502e-21 0.0030417 666.746
0.0380786 -4.51751e-21 0.00304173 664.479
-0.0382652 -1.35525e-20 6.08684e-12 1110.18
0.0382652 -1.35525e-20 6.08729e-12 1110.43
-0.0381485 0 0.00370958 949.047
0.0381486 6.77626e-21 0.0037096 949.378
-0.0383423 0 0.000233962 1051.48
0.0383424 0 0.000233961 1052.55
-0.0384028 0 0.000843267 168.777
0.0384028 -2.71051e-20 0.000843267 182.227
0.03841 -5.42101e-20 0.00148247 74.6867
-0.03841 0 0.00148247 58.8848
0.0384072 2.71051e-20 0.00217116 76.6191
-0.0384072 0 0.00217116 64.1153
-0.0383453 4.51751e-22 0.00341218 892.474
0.0383454 3.16226e-21 0.0034122 893.468
0.0385067 -1.35525e-20 3.26257e-12 1133.21
-0.0385067 1.35525e-20 3.26167e-12 1133
-0.0384087 -2.71051e-20 0.00283718 197.006
0.0384087 2.71051e-20 0.0028372 195.707
0.0383428 6.77626e-21 0.0037445 992.19
-0.0383428 6.77626e-21 0.0037445 991.872
-0.0384723 -1.35525e-20 0.00376794 1203.88
0.0384723 1.35525e-20 0.00376795 1204.27
0.038689 0 2.10859e-12 1215.47
-0.038689 2.71051e-20 2.10763e-12 1215.28
-0.0387011 0 0.000532365 689.132
0.0387011 4.51751e-21 0.000532366 697.65
-0.0387193 0 0.00114082 118.223
0.0387193 -1.12938e-21 0.00114082 134.418
-0.0387249 1.12938e-21 0.00181992 59.5938
0.0387249 0 0.00181992 72.5589
-0.0387232 0 0.00251541 121.925
0.0387232 -5.64689e-21 0.00251542 124.963
-0.0386563 1.35525e-20 0.00380866 1406.27
0.0386563 6.77626e-21 0.00380867 1406.6
0.0388555 1.35525e-20 1.85497e-12 1189.74
-0.0388555 2.71051e-20 1.85378e-12 1189.58
-0.0386905 0 0.00364409 1410.32
0.0386905 1.35525e-20 0.00364412 1410.64
0.0387735 3.38813e-21 0.00324313 854.151
-0.0387735 -2.82344e-21 0.00324312 843.768
0.0389089 2.71051e-21 0.000183068 1192.41
-0.038909 5.42101e-21 0.000183055 1192.26
0.0390203 0 0.000818063 201.253
-0.0390203 0 0.000818062 180.838
0.038876 0 0.00384256 1862.15
-0.038876 0 0.00384255 1861.89
-0.0390393 0 0.00145448 58.8417
0.0390393 2.71051e-20 0.00145449 74.0073
0.0390375 0 0.00215195 65.439
-0.0390375 -2.71051e-20 0.00215195 56.7332
-0.038928 0 0.00385208 1895.51
0.038928 -6.77626e-21 0.0038521 1895.81
-0.0389527 3.38813e-21 0.00379162 1880.02
0.0389528 0 0.00379157 1880.29
-0.0390404 0 0.00284503 157.825
0.0390404 0 0.00284504 150.605
0.0391596 -1.35525e-20 9.066e-13 1281.69
-0.0391598 1.35525e-20 9.04288e-13 1281.57
0.0391706 0 0.000114816 1283.21
-0.0391707 -2.71051e-20 0.000114772 1283.09
-0.0391098 1.12938e-20 0.00361355 1683.99
0.0391098 9.03502e-21 0.00361357 1692.02
0.0393055 1.35525e-20 6.52206e-13 1398.88
-0.0393056 -1.35525e-20 6.49692e-13 1398.68
0.0393117 -4.51751e-21 0.000500429 805.259
-0.0393117 -9.03502e-21 0.000500434 803.916
0.0393492 0 0.00108804 146.486
-0.0393492 -1.12938e-21 0.00108803 133.696
-0.0393637 2.25875e-21 0.00177645 56.2293
0.0393637 -3.38813e-21 0.00177646 72.0659
0.0394217 1.35525e-20 8.7629e-05 1429.63
-0.0394218 0 8.75788e-05 1429.37
0.0394266 0 6.05533e-13 1425.85
-0.0394266 0 6.03128e-13 1425.59
-0.0393554 0 0.00249989 96.7297
0.0393554 1.12938e-21 0.00249989 101.643
-0.0392461 0 0.0039114 1929.79
0.0392465 1.69407e-21 0.00391149 1930.1
-0.0393554 1.807e-21 0.00323461 672.394
0.0393554 -4.51751e-22 0.00323463 684.864
-0.0393295 0 0.00392838 1964.07
0.0393297 0 0.0039284 1964.25
-0.0393343 0 0.00392289 1954.96
0.0393344 -1.69407e-21 0.00392294 1955.18
-0.039341 0 0.00393113 1932.14
0.0393412 0 0.00393114 1932.44
-0.0393435 8.47033e-21 0.00390909 1902.65
0.0393436 -1.69407e-21 0.00390918 1903.96
-0.0393533 0 0.00392488 1933.8
0.0393533 0 0.00392492 1934.09
-0.0393598 0 0.003936 1934.29
0.0393599 0 0.00393599 1934.58
0.0396051 -2.71051e-20 0.000230835 1513.15
-0.0396052 0 0.000230845 1512.89
0.0396385 0 0.000745352 217.368
-0.0396385 0 0.000745355 232.086
0.0396943 0 0.00136783 89.0702
-0.0396943 2.71051e-20 0.00136783 61.1801
-0.0396774 -2.71051e-20 0.0021149 48.5373
0.0396774 -2.71051e-20 0.0021149 61.0037
-0.039584 3.87215e-21 0.00366033 1334.94
0.039584 5.80823e-21 0.00366035 1336.53
-0.0396652 0 0.0028356 115.669
0.0396652 5.42101e-20 0.0028356 122.745
0.0398974 -1.05409e-20 0.000433584 862.17
-0.0398974 1.50584e-21 0.000433597 863.78
-0.0397723 1.35525e-20 0.00404307 1660.93
0.0397724 1.35525e-20 0.00404309 1661.13
-0.0398261 -1.35525e-20 0.00397859 1585.06
0.0398262 0 0.00397863 1585.31
-0.0400266 0 5.89696e-14 1178.58
0.0400285 -3.07049e-21 5.87113e-14 1177.49
-0.0400315 0 6.38781e-07 1176.82
-0.0400248 -2.25875e-21 0.000878018 296.907
0.0400248 5.64689e-22 0.000878006 307.144
-0.0400176 -7.99976e-22 0.0017143 59.6231
0.0400177 -5.64689e-22 0.00171429 77.7218
-0.0399832 -2.25875e-21 0.00248314 77.0978
0.0399832 1.12938e-21 0.00248314 87.691
-0.0399582 2.25875e-21 0.00322758 442.784
0.0399582 0 0.00322761 443.843
-0.0399279 -6.77626e-21 0.00368191 1078.76
0.0399279 -4.51751e-21 0.00368193 1076.65
-0.0399096 -1.35525e-20 0.00407855 1528.71
0.0399096 1.35525e-20 0.00407855 1529
0.0400594 1.35525e-20 0.00398559 1404.82
-0.0400595 1.35525e-20 0.00398556 1404.47
0.0403283 2.71051e-20 0.00130595 88.5277
-0.0403283 2.71051e-20 0.00130595 69.0032
-0.0403037 -2.71051e-20 0.00209219 44.8541
0.0403037 2.71051e-20 0.0020922 58.561
-0.0402835 2.71051e-20 0.00284183 93.6002
0.0402835 0 0.00284185 103.987
-0.0403926 -3.01167e-21 0.000332751 796.68
0.0403926 2.25875e-21 0.00033272 798.181
-0.0402358 0 0.0035945 700.397
0.0402359 -1.35525e-20 0.00359453 694.284
-0.0402062 1.10114e-20 0.0041549 1391.01
0.0402063 1.35525e-20 0.00415492 1391.29
-0.0402146 5.0822e-21 0.00414562 1382.31
0.0402147 -1.69407e-21 0.0041457 1382.65
0.0402234 -8.47033e-22 0.00415933 1379.49
-0.0402234 9.31736e-21 0.00415934 1379.13
-0.0403023 -5.42101e-21 0.00393721 1329.24
0.0403024 1.35525e-20 0.00393724 1329.61
0.0405606 0 2.46956e-14 928.639
-0.0405608 -1.35525e-20 2.42881e-14 928.489
0.0406279 -1.12938e-22 0.0017081 72.8787
-0.0406279 -3.38813e-22 0.00170811 56.8623
-0.0406701 9.03502e-22 0.000834172 305.348
0.0406701 -2.25875e-21 0.000834157 322.109
-0.0406057 2.25875e-21 0.00247151 65.873
0.0406057 -2.25875e-21 0.00247151 75.6759
-0.0405666 0 0.0032346 353.095
0.0405666 0 0.00323462 361.109
0.0407119 1.35525e-20 1.9156e-14 955.951
-0.0407119 1.35525e-20 1.89963e-14 955.722
-0.0404943 -2.71051e-20 0.00422906 1344.55
0.0404943 1.35525e-20 0.00422907 1344.96
-0.0405856 -4.06576e-21 0.00374189 978.467
0.0405857 -1.35525e-21 0.00374191 983.409
-0.0406592 0 0.0042714 1139.66
0.0406593 6.77626e-21 0.00427142 1140.03
-0.0408969 -1.35525e-20 1.55407e-14 882.985
0.040897 0 1.56592e-14 883.183
0.0409487 -2.71051e-20 0.00130362 90.6652
-0.0409487 0 0.00130362 69.1347
0.0409201 -2.71051e-20 0.00208464 53.4069
-0.0409201 2.71051e-20 0.00208464 42.8113
0.0410085 0 0.000322013 760.739
-0.0410086 9.03502e-22 0.000321989 759.663
-0.0409146 -2.71051e-20 0.00282743 78.4567
0.0409146 -2.71051e-20 0.00282743 83.8044
-0.0408446 2.25875e-21 0.00406262 1174.23
0.0408446 4.51751e-21 0.00406268 1174.73
-0.040841 1.35525e-20 0.00431817 1148.21
0.040841 -6.77626e-21 0.00431818 1148.56
-0.0409362 0 0.00347644 269.488
0.0409362 0 0.00347646 306.472
0.0411092 0 7.77333e-15 873.387
-0.0411094 1.35525e-20 7.71879e-15 873.113
-0.040987 1.35525e-20 0.00435565 1396.56
0.0409871 -2.71051e-20 0.00435568 1396.97
0.0412469 -5.64689e-23 0.00170084 70.9815
-0.0412469 1.12938e-22 0.00170084 54.162
0.0413011 0 4.35779e-15 947.392
-0.0413012 2.71051e-20 4.34421e-15 946.977
0.0413201 -3.61401e-21 0.000890333 313.388
-0.0413202 2.71051e-21 0.000890341 293.1
0.0412697 1.04871e-21 0.00242837 72.7354
-0.0412697 -1.04871e-21 0.00242836 60.9577
-0.0412342 -2.25875e-21 0.00316528 159.422
0.0412342 -3.38813e-21 0.00316529 175.834
-0.0411643 1.35525e-20 0.00440134 1547.46
0.0411643 0 0.00440136 1547.84
-0.041201 -2.71051e-20 0.00424417 1610.71
0.041201 0 0.00424421 1611.11
-0.0412616 3.76459e-22 0.00386067 1051.94
0.0412616 1.12938e-21 0.00386068 1069.54
0.0415153 0 3.78842e-15 823.661
-0.0415153 -6.77626e-21 3.77685e-15 823.352
-0.0416021 1.6134e-22 0.000359044 699.499
0.0416022 4.03349e-23 0.000359349 700.97
0.0413811 3.38813e-21 0.00445724 1955.27
-0.0413812 -3.38813e-21 0.00445724 1954.9
-0.0415425 0 0.00282179 62.4718
0.0415425 2.71051e-20 0.0028218 76.0087
0.0416466 0 3.23184e-15 818.502
-0.0416468 -2.03288e-20 3.22112e-15 818.147
-0.0414291 3.38813e-21 0.00446959 1977.09
0.0414291 -3.38813e-21 0.00446961 1977.49
0.0416572 -2.71051e-20 0.00147066 78.0437
-0.0416573 -2.71051e-20 0.00147065 57.9091
-0.0414584 3.38813e-21 0.00440893 1976.62
0.0414585 3.38813e-21 0.00440886 1977.02
-0.0415524 0 0.00348653 206.703
0.0415524 -2.71051e-20 0.00348655 211.613
0.0416533 2.71051e-20 0.00196575 59.8042
-0.0416533 2.71051e-20 0.00196575 41.9332
-0.0416194 -2.25875e-21 0.00422692 1845.21
0.0416194 -4.51751e-21 0.00422695 1852.44
0.0418804 1.35525e-20 2.72775e-15 909.906
-0.0418805 0 2.71867e-15 909.373
0.0418772 0 0.000883258 325.276
-0.0418773 4.70574e-22 0.000883293 302.873
-0.0416429 -1.69407e-21 0.00452468 1964.44
0.0416433 1.69407e-21 0.00452479 1964.82
0.0418628 0 0.00171408 68.0861