# omega  POINT_DATA 27218
# x  y  z  omega
-4.06576e-20 -0.0106418 6.54156e-08 1043.36
4.06576e-20 0.0106418 6.54156e-08 1042.91
0 -0.0106418 0.000314253 932.252
1.69407e-21 0.0106418 0.000314436 931.8
-1.01644e-20 -0.0106418 0.000346253 943.503
-3.38813e-21 0.0106418 0.000346447 943.054
0 -0.0106418 0.000664285 1248.84
2.71051e-20 0.0106418 0.000664666 1248.49
-1.69407e-21 0.0106696 0.000329843 927.179
0 -0.0106696 0.000329653 927.621
-5.0822e-21 -0.0106418 0.000994701 1175.74
-1.69407e-21 0.0106418 0.000995075 1175.49
-1.69407e-21 -0.0106418 0.00102868 1190.43
1.69407e-21 0.0106418 0.00102909 1190.19
-1.35525e-20 -0.0106651 0.00100858 1171.88
1.86347e-20 0.0106651 0.00100897 1171.64
0 -0.0106418 0.00135925 1549.26
-1.35525e-20 0.0106418 0.00135964 1548.9
-3.38813e-21 -0.0106418 0.00170831 1287.52
0 0.0106418 0.00170849 1287.2
-6.77626e-21 -0.0106418 0.00174299 1281.13
2.20229e-20 0.0106418 0.0017432 1280.86
0 -0.0106634 0.00171659 1274.02
6.77626e-21 0.0106634 0.00171678 1273.69
0 0.0106417 0.002087 1339.05
0 -0.0106417 0.002087 1338.55
1.35525e-20 0.0108523 6.905e-08 962.586
2.71051e-20 -0.0108523 6.90492e-08 962.975
4.51751e-21 -0.0108537 0.000983441 1255.21
0 0.0108538 0.000983846 1254.97
-7.90564e-21 0.0109302 0.000328664 959.56
-5.64689e-21 -0.0109302 0.000328466 959.746
-9.03502e-21 -0.010876 0.00165246 1290.34
-2.25875e-21 0.010876 0.0016527 1290.18
-1.35525e-20 0.0110233 5.24961e-08 931.081
-2.03288e-20 -0.0110233 5.24971e-08 931.507
0 -0.0108444 0.00218791 909.126
-3.38813e-21 0.0108444 0.00218791 909.815
-6.77626e-21 0.010932 0.00223158 914.289
3.38813e-21 -0.010932 0.00223159 913.576
3.38813e-21 -0.0109511 0.00214941 831.586
-6.77626e-21 0.0109511 0.00214943 832.269
0 0.0111742 4.69561e-08 935.928
0 -0.0111743 4.69564e-08 936.456
-2.25875e-21 -0.0111377 0.00125157 888.038
-6.77626e-21 0.0111378 0.00125193 891.074
-6.77626e-21 -0.0111894 0.000675227 861.682
-1.01644e-20 0.0111894 0.00067554 864.028
1.35525e-20 0.0112788 0.000114381 885.324
-1.35525e-20 -0.0112788 0.000114338 885.855
0 0.0112886 3.37067e-08 882.495
1.35525e-20 -0.0112886 3.37059e-08 883.038
-6.77626e-21 -0.0111945 0.00167214 804.934
0 0.0111945 0.00167239 808.292
2.25875e-21 -0.011163 0.00198697 878.175
-5.64689e-21 0.011163 0.00198709 879.733
-2.71051e-20 0.011131 0.00233069 1200.3
0 -0.011131 0.00233069 1199.58
0 0.0114369 0.00031708 796.023
0 -0.0114369 0.00031693 796.654
-2.71051e-20 -0.011421 0.000929732 263.374
-2.71051e-20 0.011421 0.000930046 271.074
-2.71051e-20 -0.0114038 0.0015068 277.162
2.71051e-20 0.0114039 0.00150708 279.311
-1.35525e-20 -0.0113457 0.00243752 1244.22
1.35525e-20 0.0113457 0.00243753 1244.82
-1.35525e-20 -0.0116364 1.34784e-08 811.961
-1.35525e-20 0.0116364 1.34759e-08 811.43
0 -0.0116375 9.54413e-05 812.413
0 0.0116376 9.54576e-05 811.889
0 -0.0114303 0.0024797 1375.22
-6.77626e-21 0.0114304 0.00247971 1375.81
5.64689e-21 -0.0115074 0.00225281 1241.9
-1.12938e-21 0.0115075 0.00225288 1243.8
-1.35525e-20 -0.0117301 3.25942e-09 824.327
0 0.0117301 3.26008e-09 823.865
0 -0.0117195 0.000610229 521.998
-4.51751e-21 0.0117195 0.000610449 525.107
4.51751e-21 -0.0117028 0.00122422 207.443
-4.51751e-21 0.0117028 0.00122449 213.719
0 0.0118194 8.97007e-05 831.803
-1.35525e-20 -0.0118195 8.9705e-05 832.21
0 0.01182 3.03178e-09 831.973
0 -0.01182 3.03111e-09 832.38
-4.51751e-21 -0.0116772 0.0018372 535.704
2.25875e-21 0.0116772 0.00183735 545.503
0 -0.0116033 0.00256579 1817.35
2.71051e-20 0.0116033 0.00256582 1817.94
-5.42101e-20 0.0120204 0.00030712 848.632
-2.71051e-20 -0.0120205 0.000307029 848.927
0 -0.0117485 0.00263815 1890.76
-1.35525e-20 0.0117486 0.00263817 1891.24
0 -0.0120156 0.000917001 156.946
0 0.0120156 0.000917181 162.986
1.50584e-21 -0.0118318 0.00229966 1301.26
-3.01167e-21 0.0118319 0.00229972 1311.72
0 -0.0117786 0.00256188 1879.48
0 0.0117787 0.00256192 1879.97
0 -0.0119886 0.00155401 125.16
0 0.0119887 0.00155417 134.724
0 -0.012032 0.00210267 343.504
-2.71051e-20 0.012032 0.00210275 376.535
0 0.0122392 1.95024e-09 863.341
-1.35525e-20 -0.0122393 1.95023e-09 863.519
1.35525e-20 0.0122409 8.16763e-05 863.351
-1.35525e-20 -0.012241 8.16705e-05 863.528
0 -0.011987 0.00253932 2186.67
-2.71051e-20 0.0119871 0.00253936 2187.13
0 0.012321 1.74247e-09 867.127
0 -0.0123211 1.74247e-09 867.25
0 -0.0120123 0.00276923 1843.09
0 0.0120124 0.00276924 1843.48
5.64689e-21 -0.0123328 0.00060351 514.338
1.12938e-21 0.0123328 0.000603616 517.422
0 -0.0120725 0.00270714 1826.35
-1.35525e-20 0.0120726 0.00270715 1826.73
0 -0.0123288 0.00123239 127.675
0 0.0123288 0.00123252 134.746
1.35525e-20 0.0124027 1.58608e-09 870.914
-1.35525e-20 -0.0124029 1.58605e-09 870.995
0 0.012405 7.77949e-05 870.841
1.35525e-20 -0.0124051 7.77972e-05 870.923
6.77626e-21 -0.0123346 0.00185417 187.85
-2.25875e-21 0.0123346 0.00185426 198.144
0 -0.0121505 0.00283802 1684.54
-1.35525e-20 0.0121505 0.00283803 1684.88
-1.12938e-21 -0.0123063 0.00240165 1002.09
5.64689e-21 0.0123064 0.00240169 1007.68
-1.35525e-20 -0.0122683 0.00289782 1278.04
-1.35525e-20 0.0122684 0.00289784 1278.32
1.35525e-20 -0.0123167 0.00277203 1368.48
-1.35525e-20 0.0123167 0.00277205 1368.78
0 0.0126427 0.000300471 886.391
0 -0.0126428 0.000300435 886.35
2.71051e-20 -0.0126591 0.000913392 146.158
0 0.012659 0.000913471 152.859
-2.71051e-20 -0.0126618 0.00155274 80.9417
0 0.0126618 0.00155281 86.9966
2.71051e-20 -0.0125263 0.00271731 1088.77
0 0.0125263 0.00271734 1089.04
2.71051e-20 0.0124665 0.00299812 1117.67
-1.35525e-20 -0.0124665 0.00299814 1117.43
0 -0.0126643 0.00218644 188.785
-2.71051e-20 0.0126643 0.00218649 178.614
6.77626e-21 0.0128706 4.59712e-10 909.576
-6.77626e-21 -0.0128707 4.59687e-10 909.457
0 0.0128741 6.76249e-05 909.639
-6.77626e-21 -0.0128742 6.76189e-05 909.52
-2.71051e-20 0.0125733 0.00289917 1163.08
1.35525e-20 -0.0125733 0.00289922 1162.84
1.35525e-20 0.0129417 3.22177e-10 917.655
0 -0.0129418 3.22144e-10 917.503
-1.35525e-20 0.0125996 0.00306574 1320.71
0 -0.0125996 0.00306572 1320.38
-2.25875e-21 0.0129729 0.000593308 542.332
-2.25875e-21 -0.0129729 0.000593273 537.268
0 0.0130097 3.00406e-10 923.431
-6.77626e-21 -0.0130097 3.00375e-10 923.246
-6.77626e-21 0.0130126 6.19331e-05 923.32
0 -0.0130126 6.19352e-05 923.135
-3.38813e-21 -0.0129928 0.00122118 110.467
-1.12938e-21 0.0129928 0.00122123 120.527
0 -0.0127131 0.00312274 1319.81
0 0.0127131 0.00312278 1320.17
-1.35525e-20 -0.0127497 0.00301636 1322.88
-1.35525e-20 0.0127497 0.00301635 1323.23
-4.51751e-21 -0.0129973 0.00187881 108.805
-1.12938e-21 0.0129973 0.00187885 113.762
-4.96926e-21 -0.0129622 0.00258487 690.304
-9.03502e-22 0.0129622 0.0025849 698.715
2.71051e-20 -0.0129338 0.00296499 1440.16
2.71051e-20 0.0129338 0.00296502 1440.48
0 0.0132745 0.000290697 947.005
2.71051e-20 -0.0132746 0.000290697 946.738
0 0.0133097 0.000892132 164.211
0 -0.0133098 0.000892103 150.755
-6.77626e-21 -0.0129628 0.00324855 1645.03
6.77626e-21 0.0129628 0.00324857 1645.35
0 -0.0130138 0.00319442 1682.93
6.77626e-21 0.0130138 0.00319445 1683.24
0 -0.0133311 0.00153426 62.7236
0 0.0133311 0.0015343 76.6738
-1.35525e-20 -0.0130334 0.00328409 1832.23
0 0.0130335 0.00328412 1832.52
0 -0.0133253 0.00221294 99.3652
0 0.0133254 0.00221295 109.964
6.77626e-21 -0.0130971 0.00331595 1858.95
-6.77626e-21 0.0130971 0.00331598 1859.26
1.35525e-20 -0.0131128 0.00327452 1856.03
0 0.0131128 0.00327455 1856.34
0 0.0135215 4.37567e-11 1009.89
-6.77626e-21 -0.0135215 4.37417e-11 1009.65
6.77626e-21 0.013525 4.46982e-05 1010.04
0 -0.013525 4.46896e-05 1009.8
7.52918e-22 -0.01322 0.00300113 1341.04
2.25875e-21 0.01322 0.00300115 1355.6
0 -0.0135708 2.7414e-11 1022.01
0 0.0135708 2.74242e-11 1022.25
0 -0.0136156 2.60779e-11 1031.98
6.77626e-21 0.0136156 2.60872e-11 1032.21
6.77626e-21 -0.0136174 3.86816e-05 1031.82
0 0.0136174 3.86925e-05 1032.05
0 0.013613 0.000567026 607.559
0 -0.0136131 0.000567017 596.771
-2.71051e-20 -0.0133842 0.00278357 346.119
0 0.0133842 0.00278359 391.859
-2.25875e-21 0.0136535 0.00118312 130.116
-5.64689e-22 -0.0136536 0.00118311 110.282
2.71051e-20 -0.0133578 0.00322878 2189.29
-5.42101e-20 0.0133579 0.00322881 2189.58
-1.12938e-21 -0.0136671 0.00185452 69.8775
-4.51751e-21 0.0136672 0.00185453 83.1682
1.35525e-20 -0.0134202 0.00347787 1742.4
0 0.0134203 0.00347791 1742.7
0 -0.0134522 0.00343713 1734.05
0 0.0134523 0.00343717 1734.36
0 0.0139 0.000270267 1095.52
-2.71051e-20 -0.0139 0.000270258 1095.33
5.64689e-22 -0.0136756 0.0025133 176.944
-5.64689e-22 0.0136756 0.00251332 189.22
0 -0.0134921 0.00351385 1652.81
-1.35525e-20 0.0134922 0.00351387 1653.09
5.42101e-20 0.0139532 0.000842554 198.43
-5.42101e-20 -0.0139532 0.000842545 168.753
5.64689e-22 -0.0136462 0.00307161 1002.4
0 0.0136463 0.00307162 1009.44
0 -0.0135602 0.00354792 1398.29
-6.77626e-21 0.0135603 0.00354795 1398.65
0 -0.0135939 0.00346713 1451.63
-1.35525e-20 0.013594 0.00346717 1451.98
-5.42101e-20 0.0139954 0.00147861 79.2909
-2.71051e-20 -0.0139954 0.00147861 57.1649
5.42101e-20 -0.0139994 0.00216676 60.5219
0 0.0139994 0.00216678 67.5543
0 0.0141777 1.4792e-12 1330.7
-1.69407e-21 -0.0141778 1.47682e-12 1330.5
0 0.0141787 1.2541e-05 1330.88
0 -0.0141789 1.25123e-05 1330.68
-1.69407e-21 0.0141923 1.02466e-12 1342.46
1.69407e-21 -0.0141924 1.02347e-12 1342.23
0 0.0142041 9.50757e-06 1352.39
0 -0.0142042 9.48552e-06 1352.13
0 0.0142051 1.0097e-12 1352.42
-1.69407e-21 -0.0142052 1.00857e-12 1352.16
-1.69407e-22 0.0142399 0.000510993 814.743
5.64689e-23 -0.01424 0.000510997 789.556
0 -0.0138494 0.00338134 1084.79
0 0.0138495 0.00338137 1085.15
-2.71051e-20 -0.0139915 0.00283632 182.163
0 0.0139915 0.00283633 165.507
0 -0.0138215 0.00367867 1163.76
-1.35525e-20 0.0138216 0.0036787 1164.15
5.64689e-22 0.0143102 0.00109467 168.777
0 -0.0143102 0.00109467 131.412
-1.35525e-20 -0.013893 0.00360484 1193.37
0 0.0138931 0.00360489 1193.75
0 -0.0143537 7.6488e-13 1289.29
-1.69407e-21 0.0143541 7.64998e-13 1289.48
-1.35525e-20 -0.0139056 0.00372066 1305.84
0 0.0139057 0.00372068 1306.16
1.12938e-21 -0.0143405 0.00177729 55.8096
-1.41172e-21 0.0143405 0.0017773 71.4617
-2.71051e-20 0.014476 0.000224599 1586.18
0 -0.0144761 0.000224598 1585.91
0 -0.0139819 0.00376071 1311.17
0 0.013982 0.00376072 1311.5
-2.71051e-20 -0.0140112 0.00368366 1312.68
1.35525e-20 0.0140113 0.0036837 1313
1.12938e-21 -0.0143223 0.00249857 94.6796
5.64689e-22 0.0143224 0.00249858 96.7087
-2.71051e-20 0.014582 0.000746675 296.411
-2.71051e-20 -0.0145821 0.000746673 223.835
2.71051e-21 -0.0142718 0.00323775 690.103
4.51751e-22 0.0142719 0.00323777 699.085
-2.71051e-20 -0.0142272 0.00361841 1467.21
0 0.0142272 0.00361844 1467.52
0 0.0146963 0.000425145 886.502
3.01167e-21 -0.0146964 0.000425144 862.984
0 0.0146847 0.00134648 87.2136
0 -0.0146847 0.00134648 63.6034
0 0.014768 2.53725e-05 1193.06
0 -0.0147681 2.54118e-05 1192.55
0 0.0147706 9.09601e-14 1193.76
0 -0.0147706 9.09569e-14 1193.25
-6.77626e-21 0.0148059 6.69883e-15 1142.24
0 -0.014806 6.66558e-15 1141.6
0 -0.014659 0.00210816 43.1611
0 0.014659 0.00210816 53.1904
-6.77626e-21 -0.0142865 0.00391553 1726.09
0 0.0142866 0.00391558 1726.65
6.77626e-21 -0.0143135 0.00388585 1744.74
-6.77626e-21 0.0143136 0.00388592 1745.28
0 0.0148347 4.54511e-05 1087.26
0 -0.0148348 4.55279e-05 1086.49
0 0.0148461 5.76636e-15 1085.58
0 -0.0148463 5.73763e-15 1084.8
0 -0.0143216 0.00393365 1820.09
0 0.0143217 0.00393369 1820.58
-6.77626e-21 -0.0143519 0.00395506 1829.75
6.77626e-21 0.0143519 0.00395508 1830.26
0 -0.014364 0.00393203 1829.29
0 0.0143641 0.00393207 1829.8
-2.71051e-20 -0.014635 0.00283843 90.01
0 0.014635 0.00283845 98.1064
0 0.0144995 0.00366943 1365.58
8.47033e-22 0.0145102 0.00366649 1361.98
-1.41172e-22 -0.0145197 0.00367384 1336.89
0 0.0150122 0.000330156 735.005
2.71051e-20 -0.0150123 0.000330152 734.023
-8.47033e-22 0.0145873 0.00370018 1325.64
0 -0.0146766 0.00345532 345.221
2.71051e-20 0.0146766 0.00345534 402.081
1.69407e-22 0.0150077 0.00170828 73.9338
-3.95282e-22 -0.0150077 0.00170827 55.9026
8.13152e-21 0.0150925 0.000854694 330.735
9.93852e-21 -0.0150925 0.000854681 304.904
2.71051e-20 -0.0146272 0.00391091 2197.63
5.42101e-20 0.0146272 0.00391095 2198.35
1.01644e-21 -0.0149891 0.00242097 60.2036
-7.90564e-22 0.0149891 0.00242099 69.564
8.47033e-22 -0.0149586 0.00315962 204.838
-6.58803e-22 0.0149587 0.00315962 223.974
-6.77626e-21 -0.014702 0.00420283 1814.94
0 0.0147021 0.00420291 1815.41
-6.77626e-21 -0.0152975 8.17222e-05 606.883
-6.77626e-21 0.0152978 8.14897e-05 608.275
-6.77626e-21 -0.0147323 0.00417569 1813.75
0 0.0147325 0.0041758 1814.21
1.35525e-20 -0.015314 2.16441e-15 608.04
1.35525e-20 0.0153142 2.17317e-15 609.419
0 -0.0147475 0.004235 1787.96
0 0.0147476 0.00423506 1788.41
0 -0.014778 0.00425658 1840.15
-6.77626e-21 0.0147781 0.00425663 1840.54
0 -0.014793 0.00422587 1837.37
6.77626e-21 0.0147931 0.00422594 1837.76
0 0.0153882 1.38149e-16 562.831
0 -0.0153882 1.36928e-16 561.171
1.35525e-20 0.0154217 0.000114547 515.48
-6.77626e-21 -0.0154218 0.000114884 513.539
-5.64689e-22 -0.0149638 0.00384024 1114.29
-7.52918e-22 0.0149638 0.00384027 1133.47
-6.77626e-21 0.0154552 2.28099e-16 513.181
-6.77626e-21 -0.0154554 2.28503e-16 511.222
0 -0.0148468 0.00430527 1866.72
6.77626e-21 0.0148469 0.00430529 1867
2.71051e-20 0.0154606 0.00140664 90.2854
0 -0.0154606 0.00140663 63.5592
0 -0.0152777 0.00281385 54.2754
0 0.0152777 0.00281386 63.4645
-2.71051e-20 0.0154333 0.00193355 54.2136
2.71051e-20 -0.0154333 0.00193355 39.0744
0 0.0156222 0.00048004 350.598
-2.71051e-20 -0.0156222 0.000480036 348.025
2.71051e-20 -0.0152555 0.00350076 158.346
2.71051e-20 0.0152556 0.00350079 160.864
-1.35525e-20 -0.0150546 0.00445233 1680.93
6.77626e-21 0.0150547 0.00445239 1681.04
0 0.0157269 1.65675e-16 428.362
6.77626e-21 -0.0157276 1.66089e-16 425.427
8.47033e-22 -0.0151604 0.00422301 1504.8
2.82344e-22 0.0151605 0.00422311 1507.94
0 0.0156637 0.00166709 70.2048
0 -0.0156637 0.00166709 51.4744
1.24231e-21 -0.015616 0.00242546 42.7839
3.38813e-22 0.015616 0.00242547 56.4917
-5.64689e-22 0.0157781 0.000921737 215.689
1.31761e-21 -0.0157782 0.000921692 203.889
1.12938e-21 -0.0155828 0.00315318 80.9744
-5.64689e-22 0.0155828 0.00315319 93.7537
6.77626e-21 -0.0152441 0.00458644 1745.91
0 0.0152443 0.00458654 1745.88
-6.77626e-21 0.0159533 3.83645e-05 333.593
0 -0.0159534 3.82981e-05 330.267
2.71051e-20 0.015843 0.00192285 53.5977
0 -0.015843 0.00192286 36.3053
0 0.0159594 2.87839e-17 333.572
-6.77626e-21 -0.0159594 2.84889e-17 330.244
0 0.0159064 0.00142308 82.2117
-2.71051e-20 -0.0159064 0.00142306 65.4138
-1.12938e-21 -0.0155142 0.00388452 495.376
1.12938e-21 0.0155142 0.00388456 515.59
-1.35525e-20 -0.0153266 0.00464478 1818.8
0 0.0153267 0.00464485 1818.63
0 -0.01535 0.0046163 1798.96
-1.35525e-20 0.0153501 0.00461639 1798.81
0 -0.0153665 0.00467306 1636.3
-1.35525e-20 0.0153666 0.00467311 1636.32
-2.71051e-20 0.0160927 0.000505085 317.677
0 -0.0160928 0.000505072 313.636
-6.77626e-21 -0.0154309 0.00471863 1427.13
1.35525e-20 0.015431 0.00471864 1427.4
6.77626e-21 -0.0161373 9.11538e-18 321.334
0 0.0161376 9.31637e-18 325.065
-1.35525e-20 -0.0154622 0.00464659 1465.91
0 0.0154622 0.00464666 1466.12
-7.05861e-22 -0.0155558 0.00433293 1145.21
2.82344e-22 0.0155559 0.00433296 1158.67
-2.71051e-20 -0.0159329 0.00276854 36.22
2.71051e-20 0.0159329 0.00276855 52.6246
5.42101e-20 -0.015876 0.00349495 74.4264
-2.71051e-20 0.015876 0.00349497 97.0332
1.41172e-22 -0.0163022 0.00169287 48.9541
1.41172e-22 0.0163022 0.00169287 64.7775
2.71051e-20 -0.0158805 0.00413133 241.323
2.71051e-20 0.0158806 0.00413135 251.419
-2.71051e-20 -0.0157464 0.00463062 1325.47
2.71051e-20 0.0157465 0.00463067 1325.67
-1.35525e-20 -0.0156844 0.004898 1326.16
-1.35525e-20 0.0156845 0.0048981 1326.47
0 -0.0164403 0.000192195 301.544
0 0.0164404 0.000192073 306.184
-1.35525e-20 -0.0164599 2.18737e-18 301.702
1.35525e-20 0.0164599 2.23707e-18 306.332
2.25875e-21 -0.0163055 0.00229239 35.3033
0 0.0163055 0.00229239 53.8589
0 -0.0157621 0.0048391 1357.18
1.35525e-20 0.0157621 0.00483922 1357.45
-4.51751e-21 -0.0164587 0.00103727 179.648
6.77626e-21 0.0164587 0.00103728 189.902
1.12938e-22 -0.0162201 0.00310503 45.2685
-3.38813e-22 0.0162201 0.00310505 69.1739
-2.71051e-20 -0.0157673 0.00495663 1442.53
0 0.0157673 0.00495668 1442.72
1.35525e-20 0.0165552 1.89118e-18 308.224
1.35525e-20 -0.0165552 1.82985e-18 303.468
1.35525e-20 0.0158425 0.00500991 1409.21
-1.35525e-20 -0.0158425 0.00500989 1408.97
0 0.0158774 0.00492677 1420.32
0 -0.0158775 0.00492671 1420.09
-2.25875e-21 -0.0161858 0.00381853 117.917
0 0.0161859 0.00381855 143.499
-1.35525e-20 0.0166929 0.000101665 300.403
0 -0.0166931 0.000101735 295.203
-1.35525e-20 0.0166941 -1.9757e-18 300.401
0 -0.0166943 -1.99904e-18 295.202
4.51751e-22 -0.0161388 0.00451629 769.175
-2.03288e-21 0.0161388 0.00451633 791.16
0 -0.0165511 0.0027628 29.8188
0 0.0165511 0.0027628 53.772
2.71051e-20 -0.0160804 0.00488839 1519.71
0 0.0160804 0.00488844 1520.02
0 -0.0165195 0.00345964 43.7635
2.71051e-20 0.0165195 0.00345965 77.4068
0 -0.0160927 0.00518691 1644.86
0 0.0160929 0.00518705 1645.24
0 -0.0161328 0.00514885 1669.22
0 0.0161329 0.00514907 1669.55
6.77626e-21 -0.0161376 0.0052187 1756.24
6.77626e-21 0.0161377 0.00521878 1756.37
-2.71051e-20 -0.0164852 0.00415081 105.485
-2.71051e-20 0.0164853 0.00415084 142.174
-6.77626e-21 -0.0161812 0.00524952 1752.84
-6.77626e-21 0.0161812 0.00524953 1752.95
-6.77626e-21 -0.0162 0.00521518 1754.72
0 0.0162 0.00521526 1754.83
0 0.0169483 0.00175217 57.0427
0 -0.0169483 0.00175217 41.6639
0 -0.0168959 0.00247492 31.7891
-1.41172e-22 0.0168959 0.00247493 57.6709
5.42101e-20 0.0170685 0.000542394 279.993
0 -0.0170686 0.000542393 273.771
-9.41148e-22 -0.016348 0.00494369 1299.49
1.41172e-22 0.0163681 0.00495112 1297.82
5.64689e-22 -0.0168537 0.00309992 33.1985
-2.82344e-22 0.0168537 0.00309993 66.9182
2.71051e-20 -0.0165271 0.00473647 342.483
2.71051e-20 0.0165271 0.0047365 414.758
5.64689e-22 -0.0168198 0.00379489 58.7821
5.64689e-22 0.0168198 0.00379489 102.146
0 -0.0164532 0.00518907 1992.84
0 0.0164532 0.0051891 1992.89
-1.35525e-20 -0.0164986 0.00547411 1679.83
1.35525e-20 0.0164987 0.0054742 1679.97
0 -0.0168074 0.0044544 170.044
-2.82344e-21 0.0168075 0.00445442 226.057
1.35525e-20 -0.0165401 0.00543882 1678.7
1.35525e-20 0.0165402 0.00543896 1678.85
2.71051e-20 0.0171982 0.00274291 60.3111
2.71051e-20 -0.0171982 0.00274291 27.6392
0 -0.0165562 0.00551488 1653.63
0 0.0165562 0.0055149 1653.87
-2.71051e-20 -0.0171475 0.00343443 31.8634
5.42101e-20 0.0171475 0.00343443 76.3409
0 0.0165954 0.00554259 1721.43
-1.35525e-20 -0.0165954 0.00554261 1721.3
0 0.0166162 0.00550295 1717.19
-1.35525e-20 -0.0166162 0.00550291 1717.05
-1.41172e-22 -0.0167942 0.00511228 1021.09
-6.27432e-22 0.0168034 0.00511576 1046.07
0 0.0166838 0.00560512 1757.56
-6.77626e-21 -0.0166839 0.00560521 1757.38
-5.42101e-20 -0.0171381 0.00410853 54.9695
0 0.0171382 0.00410853 113.359
6.77626e-21 -0.0176356 5.15748e-05 258.623
0 0.0176356 5.15594e-05 265.758
6.77626e-21 -0.0176365 -8.88395e-19 258.611
0 0.0176365 -8.80501e-19 265.746
0 -0.0176257 0.00114318 151.274
1.12938e-21 0.0176257 0.00114318 162.534
-6.77626e-21 0.017701 -1.17471e-20 263.013
0 -0.017701 -1.19997e-20 255.784
0 0.0177564 5.70206e-05 260.398
0 -0.0177564 5.70366e-05 253.062
-2.11758e-22 -0.0174948 0.00304299 29.3444
-7.05861e-23 0.0174948 0.003043 67.5892
2.71051e-20 -0.0171005 0.00478727 157.713
2.71051e-20 0.0171005 0.00478729 215.005
0 0.01776 -9.77488e-21 260.38
0 -0.01776 -9.9944e-21 253.043
-1.41172e-21 -0.0176226 0.00231708 34.0619
0 0.0176226 0.00231708 61.4062
6.77626e-21 -0.016865 0.00573336 1619.89
1.35525e-20 0.0168651 0.00573338 1620.24
-1.12938e-21 -0.0169917 0.00554745 1458.75
0 0.0169918 0.00554746 1465.15
5.64689e-22 -0.0175404 0.00368248 38.7791
1.12938e-21 0.0175404 0.00368248 94.1763
-1.12938e-21 -0.0174309 0.00445116 81.8963
1.12938e-21 0.0174309 0.00445117 151.308
1.35525e-20 -0.0170276 0.00584842 1662.47
0 0.0170278 0.0058485 1662.85
-1.12938e-21 -0.0173594 0.00515914 452.503
-2.25875e-21 0.0173594 0.00515917 530.925
1.35525e-20 -0.0171315 0.00592198 1747.06
0 0.0171316 0.00592202 1747.44
-1.35525e-20 -0.0171628 0.0058861 1722.28
2.71051e-20 0.0171629 0.00588616 1722.68
0 -0.0171821 0.00595789 1525.69
-1.35525e-20 0.0171822 0.00595791 1526.23
-2.71051e-20 -0.017769 0.00410415 38.6816
0 0.017769 0.00410415 109.179
-5.42101e-20 -0.0182634 0.000578943 238.799
5.42101e-20 0.0182634 0.000578939 247.021
0 -0.0173972 0.00561048 1065.84
2.82344e-22 0.0173983 0.005612 1112.67
0 -0.0172648 0.00601707 1286.48
0 0.0172648 0.00601705 1287.21
-1.35525e-20 -0.0173077 0.00592609 1328.66
0 0.0173077 0.00592612 1329.35
0 0.0182204 0.00175681 59.7981
-5.42101e-20 -0.0182204 0.00175681 44.2833
-2.71051e-20 -0.0177285 0.00478169 77.0075
5.42101e-20 0.0177285 0.0047817 167.781
0 -0.0181282 0.00306192 25.9891
0 0.0181282 0.00306192 69.3983
9.88205e-22 0.0181211 0.00374048 95.325
-1.41172e-22 -0.0181211 0.00374048 32.2591
5.42101e-20 -0.0177324 0.00540771 228.683
0 0.0177325 0.00540772 325.283
-2.71051e-20 -0.0174849 0.00617225 1161.49
1.35525e-20 0.0174849 0.00617229 1162.22
0 -0.0175758 0.00590987 1180.62
0 0.0175758 0.00590988 1181.24
-1.12938e-21 -0.0180729 0.00442473 48.1214
0 0.0180729 0.00442474 127.854
0 -0.0175826 0.00610029 1183.31
-1.35525e-20 0.0175826 0.00610033 1184.03
0 -0.0175873 0.00624642 1251.07
2.71051e-20 0.0175873 0.00624644 1251.83
1.69407e-21 -0.018047 0.00508937 112.334
-5.64689e-22 0.018047 0.00508938 210.869
0 0.017673 0.00632955 1192.51
0 -0.017673 0.00632954 1191.58
-2.71051e-20 0.0177235 0.00621993 1208.2
0 -0.0177235 0.00621991 1207.31
0 -0.0188362 3.90687e-05 237.759
0 0.0188362 3.90693e-05 246.882
-6.77626e-21 -0.0188376 -1.39631e-21 237.762
6.77626e-21 0.0188376 -1.37533e-21 246.884
0 0.0184191 0.00406131 99.9019
0 -0.0184191 0.0040613 30.3567
6.77626e-21 -0.0188782 -3.44891e-23 237.654
6.77626e-21 0.0188782 -3.56432e-23 246.84
5.64689e-22 -0.0188457 0.00115779 142.396
5.64689e-22 0.0188457 0.00115779 154.529
-9.03502e-22 -0.017989 0.00579611 651.817
-2.71051e-21 0.017989 0.00579611 716.61
-6.77626e-21 -0.0189173 3.90223e-05 237.48
6.77626e-21 0.0189173 3.90242e-05 246.73
0 -0.0189184 -4.22742e-23 237.479
6.77626e-21 0.0189184 -4.34052e-23 246.73
-2.82344e-22 -0.0188016 0.00239367 36.0112
5.64689e-22 0.0188016 0.00239367 61.8579
2.71051e-20 -0.0179168 0.00619826 1249.99
0 0.0179168 0.00619827 1250.94
0 -0.0178342 0.00647803 1213.97
1.35525e-20 0.0178342 0.00647805 1215
0 -0.0183812 0.00473969 47.1924
0 0.0183812 0.00473969 135.437
0 -0.0179161 0.00640623 1233.57
2.71051e-20 0.0179161 0.00640626 1234.59
0 -0.0179071 0.00654735 1365.97
1.35525e-20 0.0179071 0.00654736 1366.93
-1.12938e-21 0.0187899 0.00359346 78.5485
1.12938e-21 -0.0187899 0.00359346 28.7513
-5.42101e-20 -0.0183614 0.0054084 92.6801
0 0.0183614 0.0054084 211.847
1.35525e-20 0.0179797 0.00661798 1214.52
0 -0.0179797 0.00661798 1213.4
-1.35525e-20 0.0180436 0.00652848 1234.71
0 -0.0180436 0.00652847 1233.63
-4.23516e-22 -0.0187173 0.00436434 35.7721
-1.27055e-21 0.0187173 0.00436434 103.68
-1.50584e-21 -0.018177 0.00625308 966.313
-1.50584e-21 0.018177 0.00625308 1005.74
0 -0.0181271 0.00676144 1215.63
1.35525e-20 0.0181271 0.00676146 1216.95
-2.71051e-20 -0.0183874 0.00602484 280.855
-2.71051e-20 0.0183874 0.00602485 404.343
2.71051e-20 -0.0182481 0.00651393 1262.93
2.71051e-20 0.0182481 0.00651394 1264.03
4.94103e-22 0.0187359 0.00501818 147.671
4.94103e-22 -0.0187359 0.00501817 61.7634
-1.35525e-20 -0.0182332 0.00669844 1238.36
-1.35525e-20 0.0182332 0.00669846 1239.69
0 -0.018217 0.00684899 1305.85
-2.71051e-20 0.0182171 0.00684899 1307.34
0 -0.0194643 0.000581954 236.4
-1.0842e-19 0.0194643 0.000581956 246.564
0 -0.0194401 0.00177497 46.0682
5.42101e-20 0.0194401 0.00177497 60.8503
1.12938e-21 -0.0186825 0.00571617 137.042
1.69407e-21 0.0186825 0.00571618 247.956
2.71051e-20 0.018308 0.00693726 1214.84
1.35525e-20 -0.018308 0.00693726 1212.93
-1.35525e-20 0.018365 0.00682515 1238.72
-1.35525e-20 -0.018365 0.00682514 1236.93
0 0.0191534 0.00414674 75.5033
-2.71051e-20 -0.0191534 0.00414674 30.1803
-5.42101e-20 -0.0194225 0.00303969 26.971
-5.42101e-20 0.0194225 0.00303969 57.8181
-2.71051e-20 0.01915 0.0045832 92.6898
0 -0.01915 0.0045832 34.5689
0 -0.0186305 0.00640894 690.505
1.807e-21 0.0186305 0.00640895 763.639
0 0.0193886 0.00369336 64.1403
-1.05879e-22 -0.0193877 0.00369516 29.0048
2.71051e-20 -0.0185455 0.00680231 1256.92
0 0.0185455 0.00680231 1258.83
-5.42101e-20 -0.019012 0.00537772 55.3547
-2.71051e-20 0.019012 0.00537773 134.493
-1.35525e-20 -0.0184497 0.00707482 1212.14
-2.71051e-20 0.0184497 0.00707483 1214.25
1.35525e-20 -0.018538 0.00700337 1234.46
0 0.018538 0.00700339 1236.52
0 -0.0193613 0.00436274 31.6501
1.35525e-20 0.0193613 0.00436274 73.8774
-1.35525e-20 -0.0185249 0.0071478 1381.44
-1.35525e-20 0.0185249 0.0071478 1383.35
-2.71051e-20 -0.0189858 0.00603642 108.939
2.71051e-20 0.0189858 0.00603643 229.519
0 0.018601 0.00722169 1215.44
-1.35525e-20 -0.018601 0.00722169 1213.24
-1.35525e-20 0.0186688 0.00713006 1237.77
0 -0.0186688 0.00713005 1235.65
0 0.0193578 0.00503068 95.7913
1.41172e-22 -0.0193578 0.00503068 41.8193
2.71051e-20 -0.0195829 0.00413333 29.7712
0 0.0195829 0.00413333 58.5195
6.02335e-21 -0.0188026 0.00685908 972.414
-1.50584e-21 0.0188026 0.00685908 1017.59
-3.38813e-21 0.0200409 2.97531e-05 247.348
0 -0.0200409 2.97438e-05 236.136
-3.38813e-21 0.0200414 5.6205e-24 247.347
3.38813e-21 -0.0200414 5.6332e-24 236.137
-6.77626e-21 -0.020072 -1.60497e-25 236.106
-6.77626e-21 0.020072 -1.56925e-25 247.374
-1.12938e-21 0.0200566 0.00116432 152.923
1.69407e-21 -0.0200566 0.00116432 143.108
0 -0.0195648 0.00457553 31.6895
0 0.0195648 0.00457553 66.5235
3.38813e-21 -0.020102 2.93805e-05 236.076
-6.77626e-21 0.020102 2.93892e-05 247.4
0 -0.0201024 -1.73084e-25 236.075
-3.38813e-21 0.0201024 -1.69595e-25 247.4
2.71051e-20 -0.0187404 0.00735707 1216.19
0 0.0187404 0.00735708 1218.72
2.71051e-20 -0.0190162 0.00663681 286.403
1.69407e-21 -0.0193208 0.00568921 66.505
1.12938e-21 0.0193208 0.00568921 141.382
2.71051e-20 0.0190162 0.00663681 426.734
-2.71051e-20 -0.0188683 0.00711623 1261.23
-2.71051e-20 0.0188683 0.00711623 1263.35
5.64689e-22 0.0200437 0.0023892 52.861
-5.64689e-22 -0.0200437 0.0023892 38.4573
-1.35525e-20 -0.0188522 0.00729488 1241.29
-1.35525e-20 0.0188522 0.0072949 1243.82
1.35525e-20 -0.0188339 0.00744777 1314.02
-2.71051e-20 0.0188339 0.00744777 1316.81
2.25875e-21 -0.0193083 0.00633279 144.644
0 0.0193083 0.00633279 253.906
-2.71051e-20 -0.0196626 0.005336 39.8942
-2.71051e-20 0.0196626 0.005336 80.0915
0 0.0189281 0.00753929 1223.4
-2.71051e-20 -0.0189281 0.0075393 1219.98
0 0.018987 0.00742577 1247.7
0 -0.018987 0.00742576 1244.47
-2.25875e-21 0.0200608 0.00364085 50.1876
-1.12938e-21 -0.0200608 0.00364085 28.918
5.29396e-23 -0.0200051 0.00433748 30.1728
3.75871e-21 0.0200051 0.00433749 55.234
-9.03502e-22 -0.0192547 0.00701653 696.267
1.50463e-37 0.0192547 0.00701654 771.487
2.71051e-20 -0.0196313 0.0059969 62.1801
0 0.0196313 0.0059969 122.029
2.71051e-20 -0.019165 0.00740556 1269.94
0 0.019165 0.00740556 1273.41
-1.35525e-20 -0.0190666 0.0076737 1229.35
1.35525e-20 0.0190666 0.00767372 1233.06
-1.35525e-20 -0.0191579 0.00760273 1254.7
1.35525e-20 0.0191579 0.00760276 1258.31
-1.35525e-20 -0.0191443 0.00774911 1412.62
0 0.0191443 0.00774911 1415.97
-1.12938e-21 0.0200588 0.00492596 62.2677
-5.64689e-21 -0.0200588 0.00492596 35.1481
5.42101e-20 0.0206698 0.000582857 248.19
0 -0.0206698 0.000582861 235.807
-2.71051e-20 -0.0196174 0.00664558 110.641
2.71051e-20 0.0196174 0.00664558 225.025
0 0.0206614 0.00177612 52.4294
0 -0.0206614 0.00177612 50.5428
-2.82344e-22 -0.0199641 0.0056435 46.0929
-9.88205e-22 0.0199641 0.00564351 83.9863
0 0.0192227 0.00782524 1246.98
0 -0.0192227 0.00782524 1243.23
0 0.019291 0.00773359 1269.17
1.35525e-20 -0.019291 0.00773358 1265.53
-6.02335e-21 -0.0194227 0.0074662 992.436
1.50584e-21 0.0194227 0.00746621 1037.68
0 -0.0206623 0.00301958 29.8467
-5.42101e-20 0.0206623 0.00301958 40.2681
-2.71051e-20 -0.0196377 0.00724853 293.2
2.71051e-20 0.0196377 0.00724854 430.954
0 -0.0193612 0.00795969 1257.31
2.71051e-20 0.0193612 0.00795972 1261.5
-2.11758e-22 0.0199857 0.00626967 137.16
-7.76447e-22 -0.0199857 0.00626967 75.524
-2.71051e-20 -0.0194876 0.00772288 1300.24
0 0.0194876 0.00772289 1303.82
-1.35525e-20 -0.0194741 0.00789919 1285.34
2.71051e-20 0.0194741 0.00789922 1289.53
1.35525e-20 -0.0194568 0.00805247 1363.39
0 0.0194568 0.00805249 1367.99
5.42101e-20 -0.020646 0.00431688 28.8172
-5.42101e-20 0.020646 0.00431688 40.8541
-1.69407e-21 -0.0199324 0.00695123 150.641
0 0.0199324 0.00695124 249.631
2.71051e-20 0.0204014 0.00542818 51.3754
2.71051e-20 -0.0204014 0.00542818 37.2032
-1.35525e-20 -0.0195522 0.0081451 1268.79
-1.35525e-20 0.0195522 0.0081451 1274.28
-2.71051e-20 -0.0196102 0.00803323 1294.02
-1.35525e-20 0.0196102 0.00803325 1299.24
0 -0.0206227 0.00497844 34.0133
0 0.0206227 0.00497844 45.4763
-5.42101e-20 0.0203983 0.00584945 65.4514
5.42101e-20 -0.0203983 0.00584945 41.4941
2.75286e-21 0.0206336 0.00497828 45.3604
-5.18808e-21 -0.0206336 0.00497828 33.9815
0 0.0212528 2.19599e-05 250.199
0 -0.0212528 2.19437e-05 237.041
3.38813e-21 0.0212529 7.60296e-27 250.198
0 -0.0212529 7.49097e-27 237.041
0 -0.0212756 -1.6878e-27 237.075
0 0.0212756 -1.64263e-27 250.265
4.51751e-22 -0.0198732 0.00763095 724.793
-1.807e-21 0.0198732 0.00763097 794.263
3.38813e-21 -0.0212981 -1.63418e-27 237.086
3.38813e-21 -0.0212981 2.16271e-05 237.086
0 0.0212981 -1.61625e-27 250.31
3.38813e-21 0.0212981 2.1644e-05 250.31
0 0.0212738 0.00116378 150.931
1.69407e-21 -0.0212739 0.00116378 145.579
0 -0.0202601 0.00662438 67.1675
-2.71051e-20 0.0202601 0.00662438 108.161
0 -0.0197861 0.00801629 1328.68
2.71051e-20 0.0197861 0.00801631 1334.28
-1.35525e-20 0.0206092 0.00563621 52.9672
0 -0.0206092 0.00563621 38.1507
-1.35525e-20 -0.0196952 0.00828391 1294.46
-1.35525e-20 0.0196953 0.00828395 1300.45
5.64689e-22 0.0212735 0.00238449 42.9929
0 -0.0212735 0.00238449 42.0758