# p  POINT_DATA 56513
# x  y  z  p
-0.0292381 0 8.09214e-08 0.00508246
0.0292381 0 8.09214e-08 0.00192795
0.0292381 -3.38813e-21 0.000233596 0.00192583
-0.0292381 3.38813e-21 0.000233441 0.00508248
0.029238 -3.38813e-21 0.000431066 0.00192578
-0.0292381 0 0.000430751 0.00508248
0.029238 -1.35525e-20 0.000664138 0.00192816
-0.029238 -6.77626e-21 0.000663676 0.00508245
0.029238 -3.38813e-21 0.000908366 0.00192702
-0.029238 0 0.000907922 0.0050825
-0.029238 -3.38813e-21 0.00111494 0.0050825
0.029238 3.38813e-21 0.00111544 0.00192708
-0.029238 0 0.00135903 0.00508244
0.0292379 0 0.00135951 0.00192861
-0.0292379 -3.38813e-21 0.00161391 0.00508251
0.0292379 0 0.00161421 0.00192778
-0.0292379 3.38813e-21 0.00183185 0.0050825
0.0292379 3.38813e-21 0.00183203 0.00192796
0.0292379 1.35525e-20 0.002087 0.00192944
-0.0292379 -1.35525e-20 0.002087 0.00508239
-0.0293159 -1.01644e-20 0.000332812 0.00508253
0.0293159 1.69407e-20 0.000333044 0.00192384
-0.0293201 -3.38813e-21 0.00100457 0.00508255
0.0293201 1.35525e-20 0.00100504 0.00192556
-0.0293199 0 0.0017002 0.00508256
0.0293199 3.38813e-21 0.00170046 0.00192658
-0.0294721 0 0.000122211 0.00508257
0.0294722 1.35525e-20 0.000122307 0.00192358
-0.0294728 0 7.47975e-08 0.00508257
0.0294728 0 7.47971e-08 0.00192357
-0.0294797 1.35525e-20 0.000527785 0.00508256
0.0294797 -1.35525e-20 0.000528144 0.00192386
-0.0294753 -1.35525e-20 0.000796291 0.00508256
0.0294753 1.35525e-20 0.000796753 0.00192461
-0.0294755 2.03288e-20 0.00118666 0.00508254
0.0294755 0 0.00118714 0.00192512
-0.0294683 -1.35525e-20 0.00147414 0.00508255
0.0294683 -1.35525e-20 0.00147454 0.00192564
-0.0294625 -6.77626e-21 0.00186309 0.00508251
0.0294626 -6.77626e-21 0.00186328 0.00192647
-0.029578 -1.35525e-20 6.64178e-08 0.0050826
0.029578 -2.71051e-20 6.64171e-08 0.00192304
-0.0295009 -1.35525e-20 0.00213468 0.00508238
0.0295009 6.77626e-21 0.00213468 0.00192874
-0.029587 1.35525e-20 0.000650836 0.00508258
0.0295871 -2.71051e-20 0.00065131 0.00192367
-0.0295378 1.35525e-20 0.00203786 0.00508241
0.0295378 1.35525e-20 0.00203793 0.00192763
-0.029584 -2.71051e-20 0.00130565 0.00508256
0.0295841 0 0.00130618 0.00192428
-0.0295849 -1.35525e-20 0.00192058 0.00508248
0.0295849 6.77626e-21 0.00192076 0.00192572
0.029649 0 0.00216152 0.00192467
-0.029649 0 0.00216152 0.00508252
-0.0297926 4.51751e-22 0.000963661 0.00508257
0.0297927 1.807e-21 0.000964146 0.00192278
-0.0298093 -1.35525e-20 7.62609e-08 0.00508266
0.0298093 -2.71051e-20 7.62598e-08 0.0019229
-0.0298204 9.03502e-22 0.000317447 0.00508267
0.0298205 1.12938e-21 0.000317662 0.00192246
-0.0297852 4.96926e-21 0.00156826 0.00508252
0.0297852 1.807e-21 0.00156862 0.0019234
-0.0297946 -1.12938e-21 0.00197115 0.00508257
0.0297946 3.38813e-21 0.0019713 0.00192238
-0.029885 -3.38813e-21 8.57338e-08 0.0050827
0.0298851 -3.38813e-21 8.5738e-08 0.00192165
0.0298185 -6.77626e-21 0.00219226 0.00192187
-0.0298186 -2.71051e-20 0.00219226 0.0050826
-0.0299229 0 0.00221118 0.00508268
0.0299229 -1.35525e-20 0.00221118 0.00192007
-0.0300582 0 1.01023e-07 0.00508279
0.0300583 0 1.01025e-07 0.00191771
-0.030042 0 0.00125419 0.00508279
0.0300421 -9.03502e-21 0.00125463 0.00191687
-0.030023 -7.7443e-21 0.00171052 0.00508276
0.0300231 -4.84019e-21 0.0017108 0.00191718
-0.0300766 0 0.00065666 0.00508286
0.0300767 4.51751e-21 0.000657051 0.00191597
-0.0301411 -6.77626e-21 0.000117994 0.00508285
0.0301411 6.77626e-21 0.000117999 0.00191607
-0.030143 0 9.36904e-08 0.00508285
0.0301431 0 9.3697e-08 0.00191608
-0.0300722 1.35525e-20 0.00223823 0.00508284
0.0300722 -1.35525e-20 0.00223824 0.00191587
-0.0302709 -1.35525e-20 0.000327812 0.00508295
0.0302709 0 0.000327976 0.0019136
-0.0302588 0 0.000959195 0.00508292
0.0302588 -1.35525e-20 0.000959517 0.00191357
-0.0302233 -1.12938e-21 0.00199374 0.00508297
0.0302233 -1.12938e-21 0.00199386 0.00191239
-0.0302513 -1.35525e-20 0.00155258 0.00508288
0.0302514 0 0.00155284 0.0019142
0.0303944 -1.01644e-20 0.00229663 0.00191189
-0.0303944 0 0.00229664 0.005083
-0.0305071 -3.38813e-21 4.03686e-05 0.00508309
0.0305071 3.38813e-21 4.03653e-05 0.00191113
-0.0305084 0 2.78813e-08 0.00508309
0.0305085 0 2.78788e-08 0.00191112
-0.0305355 0 2.44807e-08 0.0050831
0.0305355 -3.38813e-21 2.44807e-08 0.00191084
0.030464 0 0.00230926 0.00191155
-0.030464 6.77626e-21 0.00230926 0.00508301
0.0305559 -3.38813e-21 2.5605e-08 0.00191067
-0.0305559 0 2.56056e-08 0.00508312
0.0305566 0 2.16951e-05 0.00191067
-0.0305566 0 2.17024e-05 0.00508312
-0.0305496 7.05861e-23 0.00065626 0.00508311
0.0305496 -1.41172e-22 0.000656486 0.00191043
-0.0305132 1.50584e-21 0.00170668 0.00508309
0.0305132 1.8823e-22 0.00170684 0.00191022
-0.0305476 -3.38813e-22 0.00124506 0.00508309
0.0305476 2.25875e-22 0.00124529 0.00191039
-0.030501 -6.77626e-21 0.00231596 0.00508305
0.030501 0 0.00231596 0.00191092
0.0306237 0 3.57389e-08 0.00190932
-0.0306238 0 3.5746e-08 0.00508317
-0.0306099 -3.38813e-21 0.0021928 0.00508315
0.03061 0 0.00219279 0.00190912
-0.0307225 -3.38813e-21 0.00235612 0.00508315
0.0307226 0 0.00235614 0.00190894
-0.0308383 2.71051e-20 0.000320901 0.00508327
0.0308383 5.42101e-20 0.000320968 0.00190749
-0.0308116 0 0.00198356 0.0050833
0.0308116 2.25875e-21 0.00198362 0.00190643
-0.0309907 0 0.0010195 0.00508341
0.0309907 -8.13152e-21 0.00101961 0.00190377
-0.0309922 0 0.00150595 0.00508343
0.0309922 0 0.00150605 0.00190322
-0.0310394 0 9.17162e-08 0.00508346
0.0310395 0 9.17132e-08 0.00190242
-0.0310415 0 0.000119361 0.00508345
0.0310416 0 0.000119404 0.00190254
-0.030965 0 0.00240008 0.00508328
0.030965 0 0.00240009 0.00190654
-0.030982 0 0.00237269 0.00508329
0.030982 0 0.00237271 0.00190631
0.0310104 6.77626e-21 0.00240832 0.00190594
-0.0310104 6.77626e-21 0.00240832 0.0050833
0.0310179 6.77626e-21 0.00233587 0.00190572
-0.0310179 0 0.00233584 0.00508331
-0.0311223 9.03502e-21 0.000639224 0.00508346
0.0311223 -4.51751e-21 0.000639291 0.00190205
0.0310526 6.77626e-21 0.00237692 0.00190583
-0.0310526 -6.77626e-21 0.00237691 0.00508331
-0.0311458 1.35525e-20 9.71539e-08 0.00508354
0.0311459 0 9.71521e-08 0.00190081
0.031071 0 0.00241931 0.00190583
-0.0310711 -6.77626e-21 0.00241931 0.00508331
-0.0312091 -2.71051e-20 0.00177609 0.0050835
0.0312091 -2.71051e-20 0.00177613 0.00190151
-0.0312491 0 0.00122869 0.0050836
0.0312491 0 0.00122876 0.00189937
-0.0312857 0 8.40765e-08 0.00508365
0.0312858 -1.35525e-20 8.4069e-08 0.00189909
-0.0312916 0 0.000133791 0.00508365
0.0312917 1.35525e-20 0.000133817 0.00189906
-0.0313889 0 0.00201496 0.00508355
0.0313889 2.25875e-21 0.00201499 0.00190123
-0.0313958 -6.77626e-21 0.00247818 0.00508353
0.0313958 0 0.00247818 0.00190092
-0.0314932 0 0.00040878 0.00508376
0.0314932 0 0.000408784 0.00189666
-0.0315059 0 0.000915866 0.00508373
0.0315059 0 0.000915906 0.00189643
-0.0314281 0 0.00241762 0.00508358
0.0314281 0 0.00241764 0.00189995
-0.0315016 0 0.00151814 0.00508371
0.0315016 2.25875e-21 0.00151817 0.0018968
0.0314986 -1.35525e-20 0.00234883 0.00189779
-0.0314986 1.35525e-20 0.00234879 0.00508367
0.0315086 0 0.00249863 0.00189757
-0.0315086 -1.35525e-20 0.00249863 0.00508368
0.0316957 1.35525e-20 0.0001271 0.0018938
-0.0316957 0 0.000127012 0.00508388
0.0316993 0 1.28441e-08 0.0018937
-0.0316993 0 1.28327e-08 0.00508388
-0.0317724 0 0.000610883 0.0050839
0.0317724 2.71051e-20 0.000610893 0.00189268
-0.0317679 0 0.00121729 0.00508389
0.0317679 0 0.0012173 0.00189281
-0.0317537 0 0.00187022 0.00508384
0.0317537 2.71051e-20 0.00187023 0.00189369
0.0317093 2.71051e-20 0.00253502 0.00189056
-0.0317093 2.71051e-20 0.00253502 0.00508399
-0.0318341 -1.35525e-20 3.55262e-10 0.00508394
0.0318342 1.35525e-20 3.5768e-10 0.00189173
0.0317532 -1.8823e-22 0.00228382 0.00188933
-0.0317532 -1.31761e-21 0.00228381 0.00508407
-0.0319513 -1.35525e-20 4.55429e-10 0.00508401
0.0319515 1.35525e-20 4.57735e-10 0.00189034
-0.0319524 1.35525e-20 0.000127633 0.00508401
0.0319526 0 0.000127717 0.00189031
-0.0318828 0 0.00256647 0.00508395
0.0318828 0 0.00256647 0.00189083
-0.0319995 4.51751e-21 0.0009146 0.00508403
0.0319996 0 0.000914606 0.00189041
-0.0320112 0 0.000400505 0.00508405
0.0320112 0 0.0004005 0.00188968
0.0320267 -2.25875e-21 0.00227705 0.00188809
-0.0320267 -1.12938e-21 0.00227704 0.00508408
0.0320296 0 0.00251382 0.00188888
-0.0320296 0 0.00251381 0.00508403
-0.0320975 2.25875e-21 0.00153739 0.00508408
0.0320975 -2.25875e-21 0.0015374 0.00188968
-0.0320427 6.77626e-21 0.00259544 0.00508402
0.0320427 -6.77626e-21 0.00259544 0.00188889
-0.0321203 -9.03502e-21 0.00203437 0.00508417
0.0321203 -4.51751e-21 0.00203437 0.00188617
-0.032135 0 0.00238954 0.00508403
0.032135 0 0.00238955 0.00188889
0.0322923 1.35525e-20 0.000126387 0.00188587
-0.0322923 1.35525e-20 0.000126365 0.00508429
0.0323016 1.35525e-20 2.23457e-09 0.00188576
-0.0323016 -1.35525e-20 2.23356e-09 0.00508429
-0.0322103 1.35525e-20 0.00262583 0.00508412
0.0322103 1.35525e-20 0.00262583 0.00188738
-0.0322717 -1.35525e-20 0.00254335 0.00508417
0.0322718 -1.35525e-20 0.00254336 0.00188667
-0.032418 0 2.33101e-09 0.0050844
0.032418 -1.35525e-20 2.33195e-09 0.00188399
-0.0324263 4.51751e-21 0.000612604 0.0050844
0.0324263 0 0.000612601 0.00188409
-0.0324222 -9.03502e-21 0.00112452 0.00508439
0.0324222 0 0.00112451 0.00188423
-0.032412 0 0.00187553 0.00508437
0.0324121 5.42101e-20 0.00187553 0.00188417
-0.0323801 -1.35525e-20 0.0026566 0.00508429
0.0323802 -1.35525e-20 0.00265661 0.001885
-0.0324113 1.69407e-21 0.00229689 0.00508434
0.0324113 1.12938e-21 0.0022969 0.00188415
-0.032547 1.35525e-20 2.20754e-09 0.00508452
0.032547 -1.35525e-20 2.20837e-09 0.00188233
-0.0325489 -1.35525e-20 0.000125731 0.00508452
0.0325489 0 0.00012575 0.00188233
-0.0326035 0 0.00269705 0.00508452
0.0326035 -6.77626e-21 0.00269706 0.00188106
-0.032737 -2.71051e-20 0.00030837 0.00508467
0.032737 0 0.000308358 0.00187999
-0.0327282 2.25875e-21 0.00154832 0.00508469
0.0327282 -6.77626e-21 0.00154831 0.0018792
-0.0326737 -4.51751e-21 0.00254228 0.00508458
0.0326738 -9.03502e-21 0.00254228 0.00188064
-0.0327075 0 0.00206775 0.00508462
0.0327075 4.51751e-21 0.00206775 0.0018802
-0.032708 2.03288e-20 0.002716 0.00508462
0.0327081 0 0.00271601 0.00187973
-0.0328421 -4.51751e-21 0.000917741 0.0050848
0.0328421 4.51751e-21 0.000917735 0.00187761
-0.0328866 0 1.93643e-09 0.00508482
0.0328867 0 1.93682e-09 0.00187782
-0.032889 1.35525e-20 0.000149427 0.00508482
0.032889 1.35525e-20 0.000149442 0.00187782
-0.0329824 -1.35525e-20 0.000542132 0.00508487
0.0329824 5.80823e-21 0.00054211 0.00187681
-0.0330371 -2.71051e-20 1.79015e-09 0.00508494
0.0330372 -1.35525e-20 1.79044e-09 0.00187559
-0.0329464 2.71051e-20 0.00275916 0.00508475
0.0329464 0 0.00275917 0.00187873
-0.0329864 -5.64689e-22 0.00235373 0.0050848
0.0329864 -3.38813e-22 0.00235373 0.00187772
-0.0330505 0 0.00123121 0.00508496
0.0330505 0 0.00123119 0.00187495
-0.03302 -2.71051e-20 0.00190069 0.00508489
0.03302 2.71051e-20 0.00190069 0.00187641
-0.0332006 -1.35525e-20 2.0216e-09 0.00508509
0.0332007 -2.71051e-20 2.02177e-09 0.00187336
-0.0333521 6.77626e-21 0.000302612 0.00508523
0.0333521 -9.03502e-21 0.000302604 0.00187132
-0.0333579 -2.25875e-21 0.000916469 0.00508523
0.0333579 2.25875e-21 0.000916441 0.00187126
0.0332522 6.77626e-21 0.00281453 0.0018743
-0.0332522 -2.71051e-20 0.00281452 0.00508501
-0.0333432 2.25875e-21 0.00156281 0.00508523
0.0333432 1.35525e-20 0.0015628 0.00187123
-0.0332953 -3.38813e-21 0.00276394 0.00508505
0.0332953 0 0.00276393 0.00187374
-0.0333121 -1.35525e-20 0.00282536 0.00508507
0.0333121 0 0.00282536 0.00187345
-0.03334 -2.25875e-21 0.00259806 0.00508511
0.03334 -1.12938e-21 0.00259806 0.00187309
-0.0333776 2.25875e-21 0.00214892 0.0050852
0.0333777 -2.25875e-21 0.00214893 0.00187143
-0.0334909 0 2.97205e-09 0.00508536
0.0334909 -2.71051e-20 2.97158e-09 0.00186939
-0.0336619 -2.71051e-20 3.2006e-09 0.00508552
0.0336619 0 3.20002e-09 0.001867
0.0336674 -2.71051e-20 0.000602311 0.0018671
-0.0336674 0 0.000602349 0.00508552
0.0336288 -2.71051e-20 0.00191753 0.00186823
-0.0336288 2.71051e-20 0.00191755 0.00508546
0.0336642 0 0.00123321 0.00186759
-0.0336642 0 0.00123324 0.00508551
-0.0335885 2.71051e-20 0.00287539 0.00508537
0.0335885 0 0.00287539 0.001869
-0.0336882 -2.71051e-20 0.0024221 0.00508551
0.0336883 0 0.00242211 0.00186707
-0.0338384 -1.35525e-20 2.82155e-09 0.00508568
0.0338384 1.35525e-20 2.82101e-09 0.0018647
0.0338129 -2.71051e-20 0.00291608 0.00186515
-0.033813 0 0.00291609 0.00508565
-0.0339781 -4.51751e-21 0.000302701 0.00508583
0.0339781 0 0.000302675 0.00186289
-0.0339808 -6.77626e-21 0.000914762 0.00508584
0.0339808 2.25875e-21 0.000914701 0.00186343
0.0339745 -2.25875e-21 0.00155861 0.00186446
-0.0339745 -9.03502e-21 0.00155866 0.0050858
-0.0339481 2.25875e-21 0.0026758 0.0050858
0.0339481 4.51751e-22 0.00267579 0.00186321
-0.0339879 1.58113e-20 0.00215835 0.00508577
0.0339879 -2.25875e-21 0.00215833 0.00186446
-0.0341105 -1.35525e-20 1.81923e-09 0.00508596
0.0341105 -1.35525e-20 1.81899e-09 0.00186112
0.0340317 0 0.00295577 0.0018631
-0.0340318 0 0.00295579 0.00508577
-0.0342884 -2.71051e-20 1.43984e-09 0.00508616
0.0342884 -2.71051e-20 1.43965e-09 0.00185879
-0.0342943 -2.71051e-20 0.000598991 0.00508618
0.0342943 2.71051e-20 0.000598921 0.00185883
0.0342171 -1.35525e-20 0.00298939 0.00186181
-0.0342172 4.06576e-20 0.0029894 0.00508585
0.0342949 0 0.00244804 0.0018588
-0.0342949 0 0.00244806 0.0050861
-0.034362 0 0.00129504 0.00508629
0.034362 -9.68038e-21 0.00129496 0.00185751
-0.0343655 1.16165e-20 0.00179159 0.00508629
0.0343655 1.54886e-20 0.00179153 0.00185715
0.0343352 1.35525e-20 0.00301088 0.00186094
-0.0343353 1.35525e-20 0.00301089 0.00508599
-0.0344682 1.35525e-20 1.2842e-09 0.00508638
0.0344682 2.71051e-20 1.284e-09 0.00185642
-0.0345084 -9.03502e-21 0.000909454 0.00508641
0.0345084 -1.35525e-20 0.000909369 0.00185614
-0.034518 -9.03502e-21 0.00215838 0.00508638
0.034518 -4.51751e-21 0.00215835 0.00185552
-0.0346072 -4.51751e-21 0.000300821 0.00508654
0.0346072 0 0.000300778 0.00185455
0.0346152 2.71051e-20 0.00154283 0.00185381
-0.0346152 2.71051e-20 0.00154291 0.00508656
0.034558 -4.51751e-22 0.00272776 0.00185823
-0.034558 1.58113e-21 0.00272776 0.00508632
0.0345977 1.35525e-20 0.00305919 0.00185585
-0.0345977 0 0.0030592 0.00508637
-0.0347356 0 9.21309e-10 0.00508669
0.0347357 1.35525e-20 9.21242e-10 0.00185282
-0.0346831 -6.77626e-21 0.00307474 0.00508648
0.0346831 6.77626e-21 0.00307474 0.00185375
-0.0349165 2.71051e-20 7.6471e-10 0.0050869
0.0349166 0 7.64643e-10 0.00185039
-0.0349264 4.51751e-21 0.000691164 0.0050869
0.0349264 -4.51751e-21 0.000691082 0.00185018
0.0349292 -2.25875e-21 0.00121438 0.00185013
-0.0349292 0 0.00121448 0.00508689
0.0349324 1.35525e-20 0.00185859 0.00185024
-0.0349324 -4.51751e-21 0.00185866 0.00508687
0.0348922 1.35525e-20 0.00311391 0.00184503
-0.0348922 1.01644e-20 0.00311391 0.00508709
0.0349975 -2.25875e-21 0.00246507 0.00184852
-0.0349975 2.25875e-21 0.00246508 0.00508691
-0.0350985 0 7.01007e-10 0.00508711
0.0350985 1.35525e-20 7.00941e-10 0.00184779
-0.035002 9.03502e-21 0.00285808 0.00508705
0.035002 0 0.00285808 0.00184599
-0.0352406 2.25875e-21 0.000295905 0.00508728
0.0352407 6.77626e-21 0.000295859 0.00184576
-0.0352487 0 0.00089372 0.00508725
0.0352487 -2.71051e-20 0.000893614 0.00184581
0.0351342 1.69407e-21 0.00315794 0.0018457
-0.0351342 -1.69407e-21 0.00315795 0.00508702
0.0352503 0 0.00152768 0.0018464
-0.0352503 2.71051e-20 0.00152777 0.00508723
-0.0351477 0 0.00316042 0.00508702
0.0351478 -1.69407e-21 0.00316043 0.00184564
0.0351794 0 0.00281731 0.00184567
-0.0351794 0 0.00281732 0.00508704
-0.035153 0 0.00314567 0.00508702
0.035153 -1.69407e-21 0.00314559 0.00184566
0.0352564 0 0.00217228 0.00184718
-0.0352564 0 0.00217232 0.00508717
-0.0353734 -1.35525e-20 5.21809e-10 0.00508744
0.0353735 0 5.21779e-10 0.00184389
-0.0352366 1.69407e-21 0.0031769 0.00508711
0.0352373 -3.38813e-21 0.00317703 0.00184474
-0.0353097 0 0.00290012 0.00508704
0.0353097 1.35525e-20 0.00290013 0.00184521
-0.0355532 0 4.57365e-10 0.00508769
0.0355533 0 4.57336e-10 0.00184126
0.0355671 -6.77626e-21 0.00119581 0.00184123
-0.0355671 4.51751e-21 0.00119592 0.00508766
0.0355696 9.03502e-21 0.00184838 0.00184164
-0.0355696 6.77626e-21 0.00184845 0.00508766
-0.0356124 2.25875e-21 0.000622322 0.00508771
0.0356125 -4.51751e-21 0.000622242 0.00184035
0.0355744 -6.77626e-21 0.00250427 0.00184078
-0.0355744 -1.58113e-20 0.00250428 0.00508762
-0.035529 3.38813e-21 0.0032312 0.00508736
0.0355292 -3.38813e-21 0.00323122 0.00184234
-0.0355423 0 0.00321267 0.00508738
0.0355424 0 0.00321273 0.00184219
0.0355811 -9.03502e-21 0.00287218 0.0018414
-0.0355811 -1.35525e-20 0.00287218 0.00508748
-0.035574 -3.38813e-21 0.00316175 0.00508744
-0.0355672 0 0.0032382 0.00508742
0.0355741 0 0.0031619 0.00184157
0.0355673 0 0.00323821 0.00184175
-0.0357312 -1.35525e-20 4.06834e-10 0.00508787
0.0357313 -1.35525e-20 4.06801e-10 0.00183845
-0.0356064 6.77626e-21 0.00321772 0.00508749
0.0356064 0 0.00321777 0.0018411
0.0356195 3.38813e-21 0.00324783 0.00184079
-0.0356195 0 0.00324784 0.00508751
-0.0358766 0 0.000193571 0.00508805
0.0358767 1.35525e-20 0.000193555 0.00183641
-0.035885 0 0.000875629 0.00508806
0.035885 0 0.000875535 0.00183607
-0.0358906 0 0.00150725 0.0050881
0.0358906 -2.71051e-20 0.00150716 0.0018365
0.0358881 -2.71051e-20 0.00216694 0.00183622
-0.0358881 0 0.00216698 0.00508813
-0.0358664 6.77626e-21 0.00295102 0.00508787
0.0358665 1.35525e-20 0.00295103 0.001838
-0.0360201 -1.35525e-20 2.47881e-10 0.00508822
0.0360202 2.71051e-20 2.47868e-10 0.00183447
-0.036024 1.35525e-20 0.00332287 0.00508805
0.0360241 0 0.00332289 0.00183622
-0.0361957 0 1.96858e-10 0.00508848
0.0361958 0 1.96841e-10 0.00183233
-0.0362011 -2.25875e-21 0.000563546 0.00508848
0.0362011 -2.25875e-21 0.000563484 0.00183198
-0.03606 1.35525e-20 0.00326851 0.00508808
0.0360601 -1.35525e-20 0.00326857 0.00183617
-0.036206 2.25875e-21 0.00117895 0.00508853
0.0362061 4.51751e-21 0.00117887 0.00183237
0.0362045 4.51751e-21 0.00184383 0.00183256
-0.0362045 0 0.00184388 0.00508854
0.0361888 -2.25875e-21 0.00253169 0.00183384
-0.0361888 4.51751e-21 0.0025317 0.00508839
-0.0361316 0 0.00334265 0.00508812
0.0361316 -1.35525e-20 0.00334265 0.00183629
0.0361687 -6.77626e-21 0.00293434 0.00183582
-0.0361687 -2.25875e-21 0.00293434 0.00508819
0.0361567 6.77626e-21 0.00314741 0.00183574
-0.0361567 1.35525e-20 0.00314727 0.00508816
-0.0363723 0 1.67562e-10 0.00508858
0.0363723 1.35525e-20 1.67547e-10 0.00182987
0.0362562 0 0.00328574 0.00183452
-0.0362563 -1.35525e-20 0.00328569 0.00508827
0.0363065 6.77626e-21 0.00337454 0.00183364
-0.0363067 6.77626e-21 0.00337457 0.00508834
-0.0365138 0 0.000190564 0.00508876
0.0365138 9.03502e-21 0.000190552 0.0018281
-0.0365218 2.71051e-20 0.000861999 0.00508901
0.0365219 0 0.000861929 0.00182755
-0.0365244 0 0.00149847 0.00508896
0.0365244 0 0.00149841 0.00182928
0.0365145 0 0.00218148 0.00182803
-0.0365145 5.42101e-20 0.00218151 0.00508897
-0.0364788 -1.35525e-20 0.00289752 0.00508846
0.0364788 1.35525e-20 0.00289755 0.00183402
-0.0366526 0 8.42588e-11 0.00508892
0.0366527 0 8.42553e-11 0.0018264
-0.036569 -5.42101e-21 0.00323416 0.00508866
0.036569 1.35525e-20 0.00323419 0.00183128
-0.0365532 -1.35525e-20 0.00341957 0.00508872
0.0365533 -1.35525e-20 0.00341959 0.00182979
-0.0367898 1.58113e-20 0.000598955 0.00508929
0.0367898 2.25875e-21 0.000598917 0.0018246
-0.036834 0 5.5588e-11 0.00508923
0.0368341 0 5.55862e-11 0.00182463
-0.0368407 2.25875e-21 0.00116968 0.00508944
0.0368407 2.25875e-21 0.00116963 0.00182491
0.0368348 -4.51751e-21 0.00184465 0.00182586
-0.0368348 6.77626e-21 0.00184468 0.00508936
0.0368045 1.58113e-20 0.00255346 0.00182631
-0.0368045 -2.25875e-21 0.00255346 0.00508922
0.0367777 -2.71051e-20 0.00346047 0.00182625
-0.0367777 2.71051e-20 0.00346047 0.00508909
-0.0368393 1.35525e-21 0.00303407 0.0050892
0.0368393 1.35525e-21 0.00303408 0.00182546
-0.0370199 1.35525e-20 4.78303e-11 0.0050893
0.0370199 -1.35525e-20 4.78279e-11 0.00182214
-0.0371489 -2.25875e-21 0.000281507 0.00508953
0.0371489 2.25875e-21 0.000281494 0.00182052
0.0371548 -2.71051e-20 0.000855626 0.00182039
-0.0371548 0 0.000855666 0.00508996
0.0371549 2.71051e-20 0.00149516 0.00182242
-0.0371549 0 0.00149519 0.00508983
0.0371441 0 0.00218077 0.00182359
-0.0371441 -2.71051e-20 0.00218078 0.00508968
0.0370564 6.77626e-21 0.00351129 0.00182122
-0.0370564 -1.35525e-20 0.00351131 0.00508956
0.03727 0 2.98638e-11 0.00181903
-0.03727 0 2.9863e-11 0.00508964
-0.0371712 2.71051e-20 0.00278261 0.00508968
0.0371713 2.71051e-20 0.00278261 0.00182041
-0.0371159 -1.35525e-20 0.00352216 0.00508966
0.037116 -1.69407e-20 0.00352218 0.00182025
-0.0371348 -4.51751e-21 0.00333173 0.00508967
0.0371348 0 0.00333177 0.00182048
-0.0374605 0 2.22234e-11 0.00509
0.0374605 0 2.22235e-11 0.00181689
-0.0374674 4.51751e-21 0.000637841 0.00509028
0.0374674 1.807e-20 0.000637823 0.00181621
0.0374702 -4.51751e-21 0.00116461 0.00181685
-0.0374702 -2.25875e-21 0.00116464 0.00509036
0.0374665 0 0.00183966 0.00181741
-0.0374665 -3.38813e-21 0.00183967 0.00509027
-0.0374682 -1.12938e-21 0.00249666 0.0050902
0.0374682 0 0.00249666 0.00181698
-0.0374675 0 0.00307365 0.00509021
0.0374675 1.88079e-37 0.00307365 0.00181606
-0.0374246 2.71051e-20 0.00357844 0.00508998
0.0374247 1.35525e-20 0.00357845 0.00181581
-0.0376529 -2.71051e-20 1.86806e-11 0.00509013
0.0376529 -1.35525e-20 1.86807e-11 0.00181388
-0.0377742 1.12938e-20 0.000280154 0.00509038
0.0377742 2.25875e-21 0.000280151 0.00181236
-0.0377819 0 0.000851859 0.00509085
0.0377819 2.71051e-20 0.00085184 0.00181193
0.0377838 2.71051e-20 0.00149135 0.00181263
-0.0377838 0 0.00149136 0.0050908
-0.0376598 6.77626e-21 0.00362112 0.00509059
0.0376599 1.35525e-20 0.00362114 0.00181191
0.0377819 2.71051e-20 0.00216934 0.00181091
-0.0377819 0 0.00216935 0.00509079
0.0377773 -5.42101e-20 0.00279682 0.00181324
-0.0377773 0 0.00279681 0.00509065
0.0378849 0 1.07538e-11 0.00181091
-0.0378849 0 1.07533e-11 0.00509049
-0.0377229 -6.77626e-21 0.00353461 0.00509079
0.037723 -6.77626e-21 0.00353476 0.00181087
-0.0377797 -1.12938e-21 0.00335602 0.00509085
0.0377798 0 0.00335605 0.00181088
0.0377789 0 0.00364262 0.00181151
-0.037779 -6.77626e-21 0.00364263 0.00509071
-0.0380777 2.71051e-20 7.23455e-12 0.00509087
0.0380777 0 7.23493e-12 0.00180901
-0.0380891 4.51751e-21 0.000630694 0.00509118
0.0380891 0 0.00063069 0.00180854
-0.0380959 -6.77626e-21 0.00115829 0.0050913
0.0380959 2.25875e-21 0.00115829 0.00180867
0.0380968 -1.12938e-21 0.0018338 0.00180792
-0.0380968 1.12938e-21 0.0018338 0.00509127
-0.0379952 -1.35525e-20 0.00368181 0.00509069
0.0379952 1.35525e-20 0.00368182 0.00181243
-0.0380943 0 0.00250862 0.0050912
0.0380943 -1.12938e-21 0.00250862 0.00180809
-0.0380787 -9.03502e-21 0.0030417 0.0050911
0.0380786 -4.51751e-21 0.00304173 0.00180965
-0.0382652 -1.35525e-20 6.08684e-12 0.00509114
0.0382652 -1.35525e-20 6.08729e-12 0.00180617
-0.0381485 0 0.00370958 0.00509088
0.0381486 6.77626e-21 0.0037096 0.00181429
-0.0383423 0 0.000233962 0.00509133
0.0383424 0 0.000233961 0.00180514
-0.0384028 0 0.000843267 0.00509177
0.0384028 -2.71051e-20 0.000843267 0.00180525
0.03841 -5.42101e-20 0.00148247 0.00180482
-0.03841 0 0.00148247 0.00509176
0.0384072 2.71051e-20 0.00217116 0.00180324
-0.0384072 0 0.00217116 0.00509175
-0.0383453 4.51751e-22 0.00341218 0.00509133
0.0383454 3.16226e-21 0.0034122 0.00181213
0.0385067 -1.35525e-20 3.26257e-12 0.00180304
-0.0385067 1.35525e-20 3.26167e-12 0.0050916
-0.0384087 -2.71051e-20 0.00283718 0.00509162
0.0384087 2.71051e-20 0.0028372 0.00180486
0.0383428 6.77626e-21 0.0037445 0.00181128
-0.0383428 6.77626e-21 0.0037445 0.0050913
-0.0384723 -1.35525e-20 0.00376794 0.0050916
0.0384723 1.35525e-20 0.00376795 0.00180618
0.038689 0 2.10859e-12 0.00180099
-0.038689 2.71051e-20 2.10763e-12 0.00509202
-0.0387011 0 0.000532365 0.00509209
0.0387011 4.51751e-21 0.000532366 0.00180115
-0.0387193 0 0.00114082 0.00509223
0.0387193 -1.12938e-21 0.00114082 0.00180153
-0.0387249 1.12938e-21 0.00181992 0.00509227
0.0387249 0 0.00181992 0.00180063
-0.0387232 0 0.00251541 0.00509214
0.0387232 -5.64689e-21 0.00251542 0.00180115
-0.0386563 1.35525e-20 0.00380866 0.00509269
0.0386563 6.77626e-21 0.00380867 0.00179573
0.0388555 1.35525e-20 1.85497e-12 0.00179812
-0.0388555 2.71051e-20 1.85378e-12 0.00509236
-0.0386905 0 0.00364409 0.00509256
0.0386905 1.35525e-20 0.00364412 0.00179691
0.0387735 3.38813e-21 0.00324313 0.00179848
-0.0387735 -2.82344e-21 0.00324312 0.00509221
0.0389089 2.71051e-21 0.000183068 0.00179751
-0.038909 5.42101e-21 0.000183055 0.00509247
0.0390203 0 0.000818063 0.00179846
-0.0390203 0 0.000818062 0.00509257
0.038876 0 0.00384256 0.00179563
-0.038876 0 0.00384255 0.00509217
-0.0390393 0 0.00145448 0.00509279
0.0390393 2.71051e-20 0.00145449 0.0017977
0.0390375 0 0.00215195 0.00179683
-0.0390375 -2.71051e-20 0.00215195 0.00509276
-0.038928 0 0.00385208 0.00509215
0.038928 -6.77626e-21 0.0038521 0.00179488
-0.0389527 3.38813e-21 0.00379162 0.00509213
0.0389528 0 0.00379157 0.00179478
-0.0390404 0 0.00284503 0.00509243
0.0390404 0 0.00284504 0.00179956
0.0391596 -1.35525e-20 9.066e-13 0.00179294
-0.0391598 1.35525e-20 9.04288e-13 0.00509286
0.0391706 0 0.000114816 0.00179276
-0.0391707 -2.71051e-20 0.000114772 0.00509288
-0.0391098 1.12938e-20 0.00361355 0.00509218
0.0391098 9.03502e-21 0.00361357 0.00179299
0.0393055 1.35525e-20 6.52206e-13 0.0017898
-0.0393056 -1.35525e-20 6.49692e-13 0.00509296
0.0393117 -4.51751e-21 0.000500429 0.0017922
-0.0393117 -9.03502e-21 0.000500434 0.00509281
0.0393492 0 0.00108804 0.00179215
-0.0393492 -1.12938e-21 0.00108803 0.00509315
-0.0393637 2.25875e-21 0.00177645 0.00509353
0.0393637 -3.38813e-21 0.00177646 0.00179106
0.0394217 1.35525e-20 8.7629e-05 0.00178619
-0.0394218 0 8.75788e-05 0.00509286
0.0394266 0 6.05533e-13 0.0017863
-0.0394266 0 6.03128e-13 0.00509287
-0.0393554 0 0.00249989 0.00509337
0.0393554 1.12938e-21 0.00249989 0.00179284
-0.0392461 0 0.0039114 0.00509267
0.0392465 1.69407e-21 0.00391149 0.00179004
-0.0393554 1.807e-21 0.00323461 0.00509315
0.0393554 -4.51751e-22 0.00323463 0.0017895
-0.0393295 0 0.00392838 0.00509276
0.0393297 0 0.0039284 0.00178898
-0.0393343 0 0.00392289 0.00509277
0.0393344 -1.69407e-21 0.00392294 0.00178888
-0.039341 0 0.00393113 0.0050928
0.0393412 0 0.00393114 0.00178863
-0.0393435 8.47033e-21 0.00390909 0.00509281
0.0393436 -1.69407e-21 0.00390918 0.00178857
-0.0393533 0 0.00392488 0.00509285
0.0393533 0 0.00392492 0.00178832
-0.0393598 0 0.003936 0.00509288
0.0393599 0 0.00393599 0.00178806
0.0396051 -2.71051e-20 0.000230835 0.00178236
-0.0396052 0 0.000230845 0.00509313
0.0396385 0 0.000745352 0.00179143
-0.0396385 0 0.000745355 0.00509289
0.0396943 0 0.00136783 0.00178146
-0.0396943 2.71051e-20 0.00136783 0.00509429
-0.0396774 -2.71051e-20 0.0021149 0.00509428
0.0396774 -2.71051e-20 0.0021149 0.00178773
-0.039584 3.87215e-21 0.00366033 0.00509349
0.039584 5.80823e-21 0.00366035 0.00178489
-0.0396652 0 0.0028356 0.00509404
0.0396652 5.42101e-20 0.0028356 0.00178707
0.0398974 -1.05409e-20 0.000433584 0.00178538
-0.0398974 1.50584e-21 0.000433597 0.00509396
-0.0397723 1.35525e-20 0.00404307 0.00509412
0.0397724 1.35525e-20 0.00404309 0.00178124
-0.0398261 -1.35525e-20 0.00397859 0.00509418
0.0398262 0 0.00397863 0.00178164
-0.0400266 0 5.89696e-14 0.00509461
0.0400285 -3.07049e-21 5.87113e-14 0.00178365
-0.0400315 0 6.38781e-07 0.00509462
-0.0400248 -2.25875e-21 0.000878018 0.00509464
0.0400248 5.64689e-22 0.000878006 0.00178456
-0.0400176 -7.99976e-22 0.0017143 0.00509485
0.0400177 -5.64689e-22 0.00171429 0.0017843
-0.0399832 -2.25875e-21 0.00248314 0.00509477
0.0399832 1.12938e-21 0.00248314 0.00178398
-0.0399582 2.25875e-21 0.00322758 0.00509441
0.0399582 0 0.00322761 0.00178398
-0.0399279 -6.77626e-21 0.00368191 0.00509417
0.0399279 -4.51751e-21 0.00368193 0.00178369
-0.0399096 -1.35525e-20 0.00407855 0.00509411
0.0399096 1.35525e-20 0.00407855 0.00178098
0.0400594 1.35525e-20 0.00398559 0.00177907
-0.0400595 1.35525e-20 0.00398556 0.0050948
0.0403283 2.71051e-20 0.00130595 0.0017853
-0.0403283 2.71051e-20 0.00130595 0.0050952
-0.0403037 -2.71051e-20 0.00209219 0.00509537
0.0403037 2.71051e-20 0.0020922 0.00178347
-0.0402835 2.71051e-20 0.00284183 0.0050954
0.0402835 0 0.00284185 0.00177764
-0.0403926 -3.01167e-21 0.000332751 0.00509648
0.0403926 2.25875e-21 0.00033272 0.00178112
-0.0402358 0 0.0035945 0.00509444
0.0402359 -1.35525e-20 0.00359453 0.0017855
-0.0402062 1.10114e-20 0.0041549 0.00509542
0.0402063 1.35525e-20 0.00415492 0.00177472
-0.0402146 5.0822e-21 0.00414562 0.00509546
0.0402147 -1.69407e-21 0.0041457 0.00177465
0.0402234 -8.47033e-22 0.00415933 0.00177475
-0.0402234 9.31736e-21 0.00415934 0.00509542
-0.0403023 -5.42101e-21 0.00393721 0.00509522
0.0403024 1.35525e-20 0.00393724 0.00177808
0.0405606 0 2.46956e-14 0.00178032
-0.0405608 -1.35525e-20 2.42881e-14 0.00509651
0.0406279 -1.12938e-22 0.0017081 0.00178148
-0.0406279 -3.38813e-22 0.00170811 0.00509594
-0.0406701 9.03502e-22 0.000834172 0.00509629
0.0406701 -2.25875e-21 0.000834157 0.00177828
-0.0406057 2.25875e-21 0.00247151 0.00509569
0.0406057 -2.25875e-21 0.00247151 0.0017805
-0.0405666 0 0.0032346 0.00509556
0.0405666 0 0.00323462 0.00177662
0.0407119 1.35525e-20 1.9156e-14 0.00177946
-0.0407119 1.35525e-20 1.89963e-14 0.0050962
-0.0404943 -2.71051e-20 0.00422906 0.00509488
0.0404943 1.35525e-20 0.00422907 0.00177734
-0.0405856 -4.06576e-21 0.00374189 0.00509545
0.0405857 -1.35525e-21 0.00374191 0.00177593
-0.0406592 0 0.0042714 0.00509501
0.0406593 6.77626e-21 0.00427142 0.00177926
-0.0408969 -1.35525e-20 1.55407e-14 0.0050957
0.040897 0 1.56592e-14 0.00177938
0.0409487 -2.71051e-20 0.00130362 0.00177331
-0.0409487 0 0.00130362 0.00509711
0.0409201 -2.71051e-20 0.00208464 0.00178414
-0.0409201 2.71051e-20 0.00208464 0.0050961
0.0410085 0 0.000322013 0.00177919
-0.0410086 9.03502e-22 0.000321989 0.00509549
-0.0409146 -2.71051e-20 0.00282743 0.00509588
0.0409146 -2.71051e-20 0.00282743 0.00177692