# pMean  POINT_DATA 27218
# x  y  z  pMean
-4.06576e-20 -0.0106418 6.54156e-08 0.00506298
4.06576e-20 0.0106418 6.54156e-08 0.00248176
0 -0.0106418 0.000314253 0.00506294
1.69407e-21 0.0106418 0.000314436 0.00248329
-1.01644e-20 -0.0106418 0.000346253 0.00506294
-3.38813e-21 0.0106418 0.000346447 0.00248324
0 -0.0106418 0.000664285 0.00506301
2.71051e-20 0.0106418 0.000664666 0.00248165
-1.69407e-21 0.0106696 0.000329843 0.00248353
0 -0.0106696 0.000329653 0.00506292
-5.0822e-21 -0.0106418 0.000994701 0.00506299
-1.69407e-21 0.0106418 0.000995075 0.00248333
-1.69407e-21 -0.0106418 0.00102868 0.00506299
1.69407e-21 0.0106418 0.00102909 0.0024833
-1.35525e-20 -0.0106651 0.00100858 0.00506297
1.86347e-20 0.0106651 0.00100897 0.00248362
0 -0.0106418 0.00135925 0.00506302
-1.35525e-20 0.0106418 0.00135964 0.00248176
-3.38813e-21 -0.0106418 0.00170831 0.00506298
0 0.0106418 0.00170849 0.00248382
-6.77626e-21 -0.0106418 0.00174299 0.00506298
2.20229e-20 0.0106418 0.0017432 0.00248379
0 -0.0106634 0.00171659 0.00506296
6.77626e-21 0.0106634 0.00171678 0.00248416
0 0.0106417 0.002087 0.00248112
0 -0.0106417 0.002087 0.00506305
1.35525e-20 0.0108523 6.905e-08 0.00248405
2.71051e-20 -0.0108523 6.90492e-08 0.00506282
4.51751e-21 -0.0108537 0.000983441 0.00506283
0 0.0108538 0.000983846 0.00248467
-7.90564e-21 0.0109302 0.000328664 0.00248449
-5.64689e-21 -0.0109302 0.000328466 0.00506276
-9.03502e-21 -0.010876 0.00165246 0.00506281
-2.25875e-21 0.010876 0.0016527 0.00248524
-1.35525e-20 0.0110233 5.24961e-08 0.00248462
-2.03288e-20 -0.0110233 5.24971e-08 0.00506273
0 -0.0108444 0.00218791 0.00506297
-3.38813e-21 0.0108444 0.00218791 0.002483
-6.77626e-21 0.010932 0.00223158 0.00248366
3.38813e-21 -0.010932 0.00223159 0.00506292
3.38813e-21 -0.0109511 0.00214941 0.0050629
-6.77626e-21 0.0109511 0.00214943 0.00248401
0 0.0111742 4.69561e-08 0.00248387
0 -0.0111743 4.69564e-08 0.00506271
-2.25875e-21 -0.0111377 0.00125157 0.00506272
-6.77626e-21 0.0111378 0.00125193 0.00248517
-6.77626e-21 -0.0111894 0.000675227 0.00506268
-1.01644e-20 0.0111894 0.00067554 0.0024848
1.35525e-20 0.0112788 0.000114381 0.00248478
-1.35525e-20 -0.0112788 0.000114338 0.0050626
0 0.0112886 3.37067e-08 0.0024847
1.35525e-20 -0.0112886 3.37059e-08 0.00506261
-6.77626e-21 -0.0111945 0.00167214 0.00506272
0 0.0111945 0.00167239 0.00248465
2.25875e-21 -0.011163 0.00198697 0.00506272
-5.64689e-21 0.011163 0.00198709 0.00248549
-2.71051e-20 0.011131 0.00233069 0.00248502
0 -0.011131 0.00233069 0.00506275
0 0.0114369 0.00031708 0.00248556
0 -0.0114369 0.00031693 0.00506252
-2.71051e-20 -0.011421 0.000929732 0.00506262
-2.71051e-20 0.011421 0.000930046 0.00248538
-2.71051e-20 -0.0114038 0.0015068 0.00506261
2.71051e-20 0.0114039 0.00150708 0.00248575
-1.35525e-20 -0.0113457 0.00243752 0.00506239
1.35525e-20 0.0113457 0.00243753 0.00249114
-1.35525e-20 -0.0116364 1.34784e-08 0.0050624
-1.35525e-20 0.0116364 1.34759e-08 0.00248697
0 -0.0116375 9.54413e-05 0.00506239
0 0.0116376 9.54576e-05 0.0024871
0 -0.0114303 0.0024797 0.00506233
-6.77626e-21 0.0114304 0.00247971 0.00249158
5.64689e-21 -0.0115074 0.00225281 0.00506229
-1.12938e-21 0.0115075 0.00225288 0.00249136
-1.35525e-20 -0.0117301 3.25942e-09 0.00506235
0 0.0117301 3.26008e-09 0.00248752
0 -0.0117195 0.000610229 0.00506237
-4.51751e-21 0.0117195 0.000610449 0.00248771
4.51751e-21 -0.0117028 0.00122422 0.0050624
-4.51751e-21 0.0117028 0.00122449 0.0024877
0 0.0118194 8.97007e-05 0.00248823
-1.35525e-20 -0.0118195 8.9705e-05 0.0050623
0 0.01182 3.03178e-09 0.00248822
0 -0.01182 3.03111e-09 0.0050623
-4.51751e-21 -0.0116772 0.0018372 0.00506239
2.25875e-21 0.0116772 0.00183735 0.00248758
0 -0.0116033 0.00256579 0.00506232
2.71051e-20 0.0116033 0.00256582 0.00248927
-5.42101e-20 0.0120204 0.00030712 0.00248988
-2.71051e-20 -0.0120205 0.000307029 0.00506216
0 -0.0117485 0.00263815 0.00506228
-1.35525e-20 0.0117486 0.00263817 0.00248956
0 -0.0120156 0.000917001 0.00506219
0 0.0120156 0.000917181 0.00248979
1.50584e-21 -0.0118318 0.00229966 0.00506221
-3.01167e-21 0.0118319 0.00229972 0.00248983
0 -0.0117786 0.00256188 0.00506224
0 0.0117787 0.00256192 0.00248998
0 -0.0119886 0.00155401 0.0050622
0 0.0119887 0.00155417 0.00248948
0 -0.012032 0.00210267 0.00506224
-2.71051e-20 0.012032 0.00210275 0.00248695
0 0.0122392 1.95024e-09 0.00249126
-1.35525e-20 -0.0122393 1.95023e-09 0.00506204
1.35525e-20 0.0122409 8.16763e-05 0.00249129
-1.35525e-20 -0.012241 8.16705e-05 0.00506204
0 -0.011987 0.00253932 0.00506218
-2.71051e-20 0.0119871 0.00253936 0.00248987
0 0.012321 1.74247e-09 0.00249171
0 -0.0123211 1.74247e-09 0.00506199
0 -0.0120123 0.00276923 0.00506221
0 0.0120124 0.00276924 0.00249049
5.64689e-21 -0.0123328 0.00060351 0.00506201
1.12938e-21 0.0123328 0.000603616 0.00249197
0 -0.0120725 0.00270714 0.00506216
-1.35525e-20 0.0120726 0.00270715 0.00249101
0 -0.0123288 0.00123239 0.00506202
0 0.0123288 0.00123252 0.00249227
1.35525e-20 0.0124027 1.58608e-09 0.00249225
-1.35525e-20 -0.0124029 1.58605e-09 0.00506196
0 0.012405 7.77949e-05 0.00249226
1.35525e-20 -0.0124051 7.77972e-05 0.00506196
6.77626e-21 -0.0123346 0.00185417 0.00506203
-2.25875e-21 0.0123346 0.00185426 0.00249175
0 -0.0121505 0.00283802 0.00506213
-1.35525e-20 0.0121505 0.00283803 0.00249151
-1.12938e-21 -0.0123063 0.00240165 0.00506204
5.64689e-21 0.0123064 0.00240169 0.00249213
-1.35525e-20 -0.0122683 0.00289782 0.00506204
-1.35525e-20 0.0122684 0.00289784 0.00249448
1.35525e-20 -0.0123167 0.00277203 0.005062
-1.35525e-20 0.0123167 0.00277205 0.00249449
0 0.0126427 0.000300471 0.00249375
0 -0.0126428 0.000300435 0.00506183
2.71051e-20 -0.0126591 0.000913392 0.00506185
0 0.012659 0.000913471 0.00249452
-2.71051e-20 -0.0126618 0.00155274 0.00506183
0 0.0126618 0.00155281 0.00249532
2.71051e-20 -0.0125263 0.00271731 0.00506189
0 0.0125263 0.00271734 0.00249634
2.71051e-20 0.0124665 0.00299812 0.00249623
-1.35525e-20 -0.0124665 0.00299814 0.0050619
0 -0.0126643 0.00218644 0.00506185
-2.71051e-20 0.0126643 0.00218649 0.00249541
6.77626e-21 0.0128706 4.59712e-10 0.00249516
-6.77626e-21 -0.0128707 4.59687e-10 0.00506169
0 0.0128741 6.76249e-05 0.00249518
-6.77626e-21 -0.0128742 6.76189e-05 0.00506169
-2.71051e-20 0.0125733 0.00289917 0.00249676
1.35525e-20 -0.0125733 0.00289922 0.00506183
1.35525e-20 0.0129417 3.22177e-10 0.00249556
0 -0.0129418 3.22144e-10 0.00506165
-1.35525e-20 0.0125996 0.00306574 0.00249503
0 -0.0125996 0.00306572 0.00506186
-2.25875e-21 0.0129729 0.000593308 0.0024962
-2.25875e-21 -0.0129729 0.000593273 0.00506168
0 0.0130097 3.00406e-10 0.00249598
-6.77626e-21 -0.0130097 3.00375e-10 0.00506161
-6.77626e-21 0.0130126 6.19331e-05 0.00249599
0 -0.0130126 6.19352e-05 0.00506161
-3.38813e-21 -0.0129928 0.00122118 0.0050617
-1.12938e-21 0.0129928 0.00122123 0.00249704
0 -0.0127131 0.00312274 0.00506169
0 0.0127131 0.00312278 0.00249736
-1.35525e-20 -0.0127497 0.00301636 0.00506166
-1.35525e-20 0.0127497 0.00301635 0.00249758
-4.51751e-21 -0.0129973 0.00187881 0.0050617
-1.12938e-21 0.0129973 0.00187885 0.00249676
-4.96926e-21 -0.0129622 0.00258487 0.00506169
-9.03502e-22 0.0129622 0.0025849 0.0024957
2.71051e-20 -0.0129338 0.00296499 0.0050615
2.71051e-20 0.0129338 0.00296502 0.00249883
0 0.0132745 0.000290697 0.00249759
2.71051e-20 -0.0132746 0.000290697 0.00506145
0 0.0133097 0.000892132 0.00249895
0 -0.0133098 0.000892103 0.00506158
-6.77626e-21 -0.0129628 0.00324855 0.00506157
6.77626e-21 0.0129628 0.00324857 0.00249722
0 -0.0130138 0.00319442 0.00506155
6.77626e-21 0.0130138 0.00319445 0.00249735
0 -0.0133311 0.00153426 0.00506151
0 0.0133311 0.0015343 0.0024994
-1.35525e-20 -0.0130334 0.00328409 0.0050616
0 0.0130335 0.00328412 0.00249593
0 -0.0133253 0.00221294 0.00506158
0 0.0133254 0.00221295 0.00249684
6.77626e-21 -0.0130971 0.00331595 0.0050616
-6.77626e-21 0.0130971 0.00331598 0.00249563
1.35525e-20 -0.0131128 0.00327452 0.00506158
0 0.0131128 0.00327455 0.00249589
0 0.0135215 4.37567e-11 0.0024989
-6.77626e-21 -0.0135215 4.37417e-11 0.00506122
6.77626e-21 0.013525 4.46982e-05 0.00249892
0 -0.013525 4.46896e-05 0.00506122
7.52918e-22 -0.01322 0.00300113 0.00506155
2.25875e-21 0.01322 0.00300115 0.00249505
0 -0.0135708 2.7414e-11 0.00506118
0 0.0135708 2.74242e-11 0.00249915
0 -0.0136156 2.60779e-11 0.00506113
6.77626e-21 0.0136156 2.60872e-11 0.00249934
6.77626e-21 -0.0136174 3.86816e-05 0.00506113
0 0.0136174 3.86925e-05 0.00249935
0 0.013613 0.000567026 0.00249961
0 -0.0136131 0.000567017 0.0050613
-2.71051e-20 -0.0133842 0.00278357 0.00506166
0 0.0133842 0.00278359 0.00249056
-2.25875e-21 0.0136535 0.00118312 0.00250061
-5.64689e-22 -0.0136536 0.00118311 0.0050614
2.71051e-20 -0.0133578 0.00322878 0.00506153
-5.42101e-20 0.0133579 0.00322881 0.00249538
-1.12938e-21 -0.0136671 0.00185452 0.00506139
-4.51751e-21 0.0136672 0.00185453 0.00249955
1.35525e-20 -0.0134202 0.00347787 0.00506156
0 0.0134203 0.00347791 0.00249565
0 -0.0134522 0.00343713 0.00506154
0 0.0134523 0.00343717 0.00249595
0 0.0139 0.000270267 0.00250086
-2.71051e-20 -0.0139 0.000270258 0.00506088
5.64689e-22 -0.0136756 0.0025133 0.00506142
-5.64689e-22 0.0136756 0.00251332 0.00249599
0 -0.0134921 0.00351385 0.00506153
-1.35525e-20 0.0134922 0.00351387 0.00249594
5.42101e-20 0.0139532 0.000842554 0.00250101
-5.42101e-20 -0.0139532 0.000842545 0.00506131
5.64689e-22 -0.0136462 0.00307161 0.00506143
0 0.0136463 0.00307162 0.0024959
0 -0.0135602 0.00354792 0.00506147
-6.77626e-21 0.0135603 0.00354795 0.0024982
0 -0.0135939 0.00346713 0.00506144
-1.35525e-20 0.013594 0.00346717 0.00249822
-5.42101e-20 0.0139954 0.00147861 0.00250297
-2.71051e-20 -0.0139954 0.00147861 0.00506121
5.42101e-20 -0.0139994 0.00216676 0.00506124
0 0.0139994 0.00216678 0.00249892
0 0.0141777 1.4792e-12 0.00250567
-1.69407e-21 -0.0141778 1.47682e-12 0.00506087
0 0.0141787 1.2541e-05 0.00250567
0 -0.0141789 1.25123e-05 0.00506087
-1.69407e-21 0.0141923 1.02466e-12 0.00250593
1.69407e-21 -0.0141924 1.02347e-12 0.00506087
0 0.0142041 9.50757e-06 0.0025061
0 -0.0142042 9.48552e-06 0.00506086
0 0.0142051 1.0097e-12 0.0025061
-1.69407e-21 -0.0142052 1.00857e-12 0.00506086
-1.69407e-22 0.0142399 0.000510993 0.0025031
5.64689e-23 -0.01424 0.000510997 0.00506109
0 -0.0138494 0.00338134 0.00506133
0 0.0138495 0.00338137 0.00249985
-2.71051e-20 -0.0139915 0.00283632 0.00506121
0 0.0139915 0.00283633 0.00249771
0 -0.0138215 0.00367867 0.00506125
-1.35525e-20 0.0138216 0.0036787 0.00249776
5.64689e-22 0.0143102 0.00109467 0.00250209
0 -0.0143102 0.00109467 0.00506116
-1.35525e-20 -0.013893 0.00360484 0.0050612
0 0.0138931 0.00360489 0.00249773
0 -0.0143537 7.6488e-13 0.00506086
-1.69407e-21 0.0143541 7.64998e-13 0.00250818
-1.35525e-20 -0.0139056 0.00372066 0.00506123
0 0.0139057 0.00372068 0.00249504
1.12938e-21 -0.0143405 0.00177729 0.00506107
-1.41172e-21 0.0143405 0.0017773 0.00250057
-2.71051e-20 0.014476 0.000224599 0.00251099
0 -0.0144761 0.000224598 0.00506084
0 -0.0139819 0.00376071 0.00506105
0 0.013982 0.00376072 0.00249525
-2.71051e-20 -0.0140112 0.00368366 0.00506104
1.35525e-20 0.0140113 0.0036837 0.0024956
1.12938e-21 -0.0143223 0.00249857 0.00506114
5.64689e-22 0.0143224 0.00249858 0.00249551
-2.71051e-20 0.014582 0.000746675 0.00249832
-2.71051e-20 -0.0145821 0.000746673 0.00506136
2.71051e-21 -0.0142718 0.00323775 0.00506109
4.51751e-22 0.0142719 0.00323777 0.00249321
-2.71051e-20 -0.0142272 0.00361841 0.00506079
0 0.0142272 0.00361844 0.00249448
0 0.0146963 0.000425145 0.00250934
3.01167e-21 -0.0146964 0.000425144 0.005061
0 0.0146847 0.00134648 0.00250622
0 -0.0146847 0.00134648 0.00506076
0 0.014768 2.53725e-05 0.00251417
0 -0.0147681 2.54118e-05 0.00506085
0 0.0147706 9.09601e-14 0.00251418
0 -0.0147706 9.09569e-14 0.00506085
-6.77626e-21 0.0148059 6.69883e-15 0.00251439
0 -0.014806 6.66558e-15 0.00506086
0 -0.014659 0.00210816 0.00506104
0 0.014659 0.00210816 0.00249522
-6.77626e-21 -0.0142865 0.00391553 0.00506097
0 0.0142866 0.00391558 0.00249166
6.77626e-21 -0.0143135 0.00388585 0.00506096
-6.77626e-21 0.0143136 0.00388592 0.00249167
0 0.0148347 4.54511e-05 0.00251548
0 -0.0148348 4.55279e-05 0.00506076
0 0.0148461 5.76636e-15 0.00251553
0 -0.0148463 5.73763e-15 0.00506075
0 -0.0143216 0.00393365 0.00506102
0 0.0143217 0.00393369 0.00249074
-6.77626e-21 -0.0143519 0.00395506 0.00506107
6.77626e-21 0.0143519 0.00395508 0.00248984
0 -0.014364 0.00393203 0.00506105
0 0.0143641 0.00393207 0.00249009
-2.71051e-20 -0.014635 0.00283843 0.00506103
0 0.014635 0.00283845 0.00249027
0 0.0144995 0.00366943 0.00248921
8.47033e-22 0.0145102 0.00366649 0.00248899
-1.41172e-22 -0.0145197 0.00367384 0.00506099
0 0.0150122 0.000330156 0.00251831
2.71051e-20 -0.0150123 0.000330152 0.00506075
-8.47033e-22 0.0145873 0.00370018 0.00248871
0 -0.0146766 0.00345532 0.00506115
2.71051e-20 0.0146766 0.00345534 0.00248339
1.69407e-22 0.0150077 0.00170828 0.00250361
-3.95282e-22 -0.0150077 0.00170827 0.00506088
8.13152e-21 0.0150925 0.000854694 0.00251344
9.93852e-21 -0.0150925 0.000854681 0.0050608
2.71051e-20 -0.0146272 0.00391091 0.00506104
5.42101e-20 0.0146272 0.00391095 0.00248901
1.01644e-21 -0.0149891 0.00242097 0.00506082
-7.90564e-22 0.0149891 0.00242099 0.00249656
8.47033e-22 -0.0149586 0.00315962 0.00506087
-6.58803e-22 0.0149587 0.00315962 0.00248963
-6.77626e-21 -0.014702 0.00420283 0.00506119
0 0.0147021 0.00420291 0.0024865
-6.77626e-21 -0.0152975 8.17222e-05 0.00506039
-6.77626e-21 0.0152978 8.14897e-05 0.00252546
-6.77626e-21 -0.0147323 0.00417569 0.00506116
0 0.0147325 0.0041758 0.00248677
1.35525e-20 -0.015314 2.16441e-15 0.00506038
1.35525e-20 0.0153142 2.17317e-15 0.00252546
0 -0.0147475 0.004235 0.00506109
0 0.0147476 0.00423506 0.00248706
0 -0.014778 0.00425658 0.00506098
-6.77626e-21 0.0147781 0.00425663 0.00248677
0 -0.014793 0.00422587 0.00506098
6.77626e-21 0.0147931 0.00422594 0.00248692
0 0.0153882 1.38149e-16 0.00252575
0 -0.0153882 1.36928e-16 0.00506052
1.35525e-20 0.0154217 0.000114547 0.00252806
-6.77626e-21 -0.0154218 0.000114884 0.00506038
-5.64689e-22 -0.0149638 0.00384024 0.00506095
-7.52918e-22 0.0149638 0.00384027 0.00248748
-6.77626e-21 0.0154552 2.28099e-16 0.00252819
-6.77626e-21 -0.0154554 2.28503e-16 0.00506037
0 -0.0148468 0.00430527 0.00506106
6.77626e-21 0.0148469 0.00430529 0.00248635
2.71051e-20 0.0154606 0.00140664 0.00250393
0 -0.0154606 0.00140663 0.00506129
0 -0.0152777 0.00281385 0.00506064
0 0.0152777 0.00281386 0.00249184
-2.71051e-20 0.0154333 0.00193355 0.00250727
2.71051e-20 -0.0154333 0.00193355 0.0050607
0 0.0156222 0.00048004 0.0025364
-2.71051e-20 -0.0156222 0.000480036 0.00506003
2.71051e-20 -0.0152555 0.00350076 0.00506064
2.71051e-20 0.0152556 0.00350079 0.00249162
-1.35525e-20 -0.0150546 0.00445233 0.00506161
6.77626e-21 0.0150547 0.00445239 0.00248242
0 0.0157269 1.65675e-16 0.00253591
6.77626e-21 -0.0157276 1.66089e-16 0.00506013
8.47033e-22 -0.0151604 0.00422301 0.00506169
2.82344e-22 0.0151605 0.00422311 0.00248314
0 0.0156637 0.00166709 0.00251309
0 -0.0156637 0.00166709 0.0050604
1.24231e-21 -0.015616 0.00242546 0.00506029
3.38813e-22 0.015616 0.00242547 0.00250082
-5.64689e-22 0.0157781 0.000921737 0.0025311
1.31761e-21 -0.0157782 0.000921692 0.00506016
1.12938e-21 -0.0155828 0.00315318 0.0050605
-5.64689e-22 0.0155828 0.00315319 0.00249255
6.77626e-21 -0.0152441 0.00458644 0.00506088
0 0.0152443 0.00458654 0.00248498
-6.77626e-21 0.0159533 3.83645e-05 0.00254263
0 -0.0159534 3.82981e-05 0.0050599
2.71051e-20 0.015843 0.00192285 0.00251151
0 -0.015843 0.00192286 0.00505988
0 0.0159594 2.87839e-17 0.00254262
-6.77626e-21 -0.0159594 2.84889e-17 0.0050599
0 0.0159064 0.00142308 0.00252439
-2.71051e-20 -0.0159064 0.00142306 0.00506009
-1.12938e-21 -0.0155142 0.00388452 0.00506069
1.12938e-21 0.0155142 0.00388456 0.00248934
-1.35525e-20 -0.0153266 0.00464478 0.00506073
0 0.0153267 0.00464485 0.00248589
0 -0.01535 0.0046163 0.00506072
-1.35525e-20 0.0153501 0.00461639 0.00248601
0 -0.0153665 0.00467306 0.00506085
-1.35525e-20 0.0153666 0.00467311 0.00248507
-2.71051e-20 0.0160927 0.000505085 0.00254816
0 -0.0160928 0.000505072 0.0050598
-6.77626e-21 -0.0154309 0.00471863 0.00506069
1.35525e-20 0.015431 0.00471864 0.00248607
6.77626e-21 -0.0161373 9.11538e-18 0.00505988
0 0.0161376 9.31637e-18 0.00254396
-1.35525e-20 -0.0154622 0.00464659 0.00506069
0 0.0154622 0.00464666 0.00248634
-7.05861e-22 -0.0155558 0.00433293 0.00506075
2.82344e-22 0.0155559 0.00433296 0.00248622
-2.71051e-20 -0.0159329 0.00276854 0.00506014
2.71051e-20 0.0159329 0.00276855 0.00249516
5.42101e-20 -0.015876 0.00349495 0.00506054
-2.71051e-20 0.015876 0.00349497 0.00249204
1.41172e-22 -0.0163022 0.00169287 0.00505983
1.41172e-22 0.0163022 0.00169287 0.00252243
2.71051e-20 -0.0158805 0.00413133 0.00506046
2.71051e-20 0.0158806 0.00413135 0.00249012
-2.71051e-20 -0.0157464 0.00463062 0.00506064
2.71051e-20 0.0157465 0.00463067 0.00248576
-1.35525e-20 -0.0156844 0.004898 0.0050603
-1.35525e-20 0.0156845 0.0048981 0.00248521
0 -0.0164403 0.000192195 0.00505979
0 0.0164404 0.000192073 0.00254847
-1.35525e-20 -0.0164599 2.18737e-18 0.00505979
1.35525e-20 0.0164599 2.23707e-18 0.00254853
2.25875e-21 -0.0163055 0.00229239 0.00506005
0 0.0163055 0.00229239 0.00250404
0 -0.0157621 0.0048391 0.00506023
1.35525e-20 0.0157621 0.00483922 0.00248541
-4.51751e-21 -0.0164587 0.00103727 0.00505989
6.77626e-21 0.0164587 0.00103728 0.00253658
1.12938e-22 -0.0162201 0.00310503 0.00506033
-3.38813e-22 0.0162201 0.00310505 0.00249369
-2.71051e-20 -0.0157673 0.00495663 0.00506036
0 0.0157673 0.00495668 0.00248354
1.35525e-20 0.0165552 1.89118e-18 0.00254401
1.35525e-20 -0.0165552 1.82985e-18 0.00505997
1.35525e-20 0.0158425 0.00500991 0.00248476
-1.35525e-20 -0.0158425 0.00500989 0.00505991
0 0.0158774 0.00492677 0.00248499
0 -0.0158775 0.00492671 0.00505992
-2.25875e-21 -0.0161858 0.00381853 0.00506043
0 0.0161859 0.00381855 0.00249211
-1.35525e-20 0.0166929 0.000101665 0.00254724
0 -0.0166931 0.000101735 0.00505978
-1.35525e-20 0.0166941 -1.9757e-18 0.00254723
0 -0.0166943 -1.99904e-18 0.00505978
4.51751e-22 -0.0161388 0.00451629 0.00506026
-2.03288e-21 0.0161388 0.00451633 0.00248624
0 -0.0165511 0.0027628 0.00506029
0 0.0165511 0.0027628 0.00249184
2.71051e-20 -0.0160804 0.00488839 0.00505944
0 0.0160804 0.00488844 0.00248543
0 -0.0165195 0.00345964 0.0050604
2.71051e-20 0.0165195 0.00345965 0.00249353
0 -0.0160927 0.00518691 0.00505983
0 0.0160929 0.00518705 0.00248104
0 -0.0161328 0.00514885 0.00505983
0 0.0161329 0.00514907 0.00248091
6.77626e-21 -0.0161376 0.0052187 0.00506005
6.77626e-21 0.0161377 0.00521878 0.00247887
-2.71051e-20 -0.0164852 0.00415081 0.00506034
-2.71051e-20 0.0164853 0.00415084 0.00249284
-6.77626e-21 -0.0161812 0.00524952 0.00506019
-6.77626e-21 0.0161812 0.00524953 0.00247703
-6.77626e-21 -0.0162 0.00521518 0.00506014
0 0.0162 0.00521526 0.00247751
0 0.0169483 0.00175217 0.00252261
0 -0.0169483 0.00175217 0.00506008
0 -0.0168959 0.00247492 0.00505994
-1.41172e-22 0.0168959 0.00247493 0.00250672
5.42101e-20 0.0170685 0.000542394 0.00254673
0 -0.0170686 0.000542393 0.00505989
-9.41148e-22 -0.016348 0.00494369 0.00506007
1.41172e-22 0.0163681 0.00495112 0.00247887
5.64689e-22 -0.0168537 0.00309992 0.00506028
-2.82344e-22 0.0168537 0.00309993 0.0024943
2.71051e-20 -0.0165271 0.00473647 0.00506054
2.71051e-20 0.0165271 0.0047365 0.00247794
5.64689e-22 -0.0168198 0.00379489 0.00506042
5.64689e-22 0.0168198 0.00379489 0.00248954
0 -0.0164532 0.00518907 0.0050603
0 0.0164532 0.0051891 0.00247466
-1.35525e-20 -0.0164986 0.00547411 0.00506053
1.35525e-20 0.0164987 0.0054742 0.00246922
0 -0.0168074 0.0044544 0.00506011
-2.82344e-21 0.0168075 0.00445442 0.00248718
1.35525e-20 -0.0165401 0.00543882 0.00506047
1.35525e-20 0.0165402 0.00543896 0.00246948
2.71051e-20 0.0171982 0.00274291 0.00251278
2.71051e-20 -0.0171982 0.00274291 0.00505948
0 -0.0165562 0.00551488 0.00506026
0 0.0165562 0.0055149 0.00246936
-2.71051e-20 -0.0171475 0.00343443 0.00506092
5.42101e-20 0.0171475 0.00343443 0.0024802
0 0.0165954 0.00554259 0.00246924
-1.35525e-20 -0.0165954 0.00554261 0.00505986
0 0.0166162 0.00550295 0.00246941
-1.35525e-20 -0.0166162 0.00550291 0.00505988
-1.41172e-22 -0.0167942 0.00511228 0.00506018
-6.27432e-22 0.0168034 0.00511576 0.0024735
0 0.0166838 0.00560512 0.00246615
-6.77626e-21 -0.0166839 0.00560521 0.00506012
-5.42101e-20 -0.0171381 0.00410853 0.00506006
0 0.0171382 0.00410853 0.00249115
6.77626e-21 -0.0176356 5.15748e-05 0.00505952
0 0.0176356 5.15594e-05 0.00256441
6.77626e-21 -0.0176365 -8.88395e-19 0.00505952
0 0.0176365 -8.80501e-19 0.00256442
0 -0.0176257 0.00114318 0.00505959
1.12938e-21 0.0176257 0.00114318 0.00254958
-6.77626e-21 0.017701 -1.17471e-20 0.00256653
0 -0.017701 -1.19997e-20 0.00505947
0 0.0177564 5.70206e-05 0.00256865
0 -0.0177564 5.70366e-05 0.00505943
-2.11758e-22 -0.0174948 0.00304299 0.00505996
-7.05861e-23 0.0174948 0.003043 0.00250049
2.71051e-20 -0.0171005 0.00478727 0.00505953
2.71051e-20 0.0171005 0.00478729 0.00248706
0 0.01776 -9.77488e-21 0.00256869
0 -0.01776 -9.9944e-21 0.00505943
-1.41172e-21 -0.0176226 0.00231708 0.00505958
0 0.0176226 0.00231708 0.00251921
6.77626e-21 -0.016865 0.00573336 0.00506129
1.35525e-20 0.0168651 0.00573338 0.00245854
-1.12938e-21 -0.0169917 0.00554745 0.00506182
0 0.0169918 0.00554746 0.00245834
5.64689e-22 -0.0175404 0.00368248 0.00506018
1.12938e-21 0.0175404 0.00368248 0.00248596
-1.12938e-21 -0.0174309 0.00445116 0.00505979
1.12938e-21 0.0174309 0.00445117 0.00248303
1.35525e-20 -0.0170276 0.00584842 0.00505991
0 0.0170278 0.0058485 0.0024576
-1.12938e-21 -0.0173594 0.00515914 0.00505973
-2.25875e-21 0.0173594 0.00515917 0.00246954
1.35525e-20 -0.0171315 0.00592198 0.00505952
0 0.0171316 0.00592202 0.00245586
-1.35525e-20 -0.0171628 0.0058861 0.00505954
2.71051e-20 0.0171629 0.00588616 0.00245598
0 -0.0171821 0.00595789 0.0050599
-1.35525e-20 0.0171822 0.00595791 0.00245224
-2.71051e-20 -0.017769 0.00410415 0.00505989
0 0.017769 0.00410415 0.0024787
-5.42101e-20 -0.0182634 0.000578943 0.00505907
5.42101e-20 0.0182634 0.000578939 0.00258585
0 -0.0173972 0.00561048 0.00505976
2.82344e-22 0.0173983 0.005612 0.00245547
0 -0.0172648 0.00601707 0.00505937
0 0.0172648 0.00601705 0.0024508
-1.35525e-20 -0.0173077 0.00592609 0.00505945
0 0.0173077 0.00592612 0.00245224
0 0.0182204 0.00175681 0.00254197
-5.42101e-20 -0.0182204 0.00175681 0.00505931
-2.71051e-20 -0.0177285 0.00478169 0.00505966
5.42101e-20 0.0177285 0.0047817 0.00247527
0 -0.0181282 0.00306192 0.00505949
0 0.0181282 0.00306192 0.00250184
9.88205e-22 0.0181211 0.00374048 0.00248756
-1.41172e-22 -0.0181211 0.00374048 0.00505973
5.42101e-20 -0.0177324 0.00540771 0.00505921
0 0.0177325 0.00540772 0.00245593
-2.71051e-20 -0.0174849 0.00617225 0.0050587
1.35525e-20 0.0174849 0.00617229 0.00244869
0 -0.0175758 0.00590987 0.00505961
0 0.0175758 0.00590988 0.00244278
-1.12938e-21 -0.0180729 0.00442473 0.00505993
0 0.0180729 0.00442474 0.002469
0 -0.0175826 0.00610029 0.00505865
-1.35525e-20 0.0175826 0.00610033 0.0024499
0 -0.0175873 0.00624642 0.00505886
2.71051e-20 0.0175873 0.00624644 0.00244888
1.69407e-21 -0.018047 0.00508937 0.00506017
-5.64689e-22 0.018047 0.00508938 0.00245214
0 0.017673 0.00632955 0.00246781
0 -0.017673 0.00632954 0.00505712
-2.71051e-20 0.0177235 0.00621993 0.0024651
0 -0.0177235 0.00621991 0.00505739
0 -0.0188362 3.90687e-05 0.00505871
0 0.0188362 3.90693e-05 0.00257848
-6.77626e-21 -0.0188376 -1.39631e-21 0.00505871
6.77626e-21 0.0188376 -1.37533e-21 0.0025785
0 0.0184191 0.00406131 0.00249127
0 -0.0184191 0.0040613 0.00505966
6.77626e-21 -0.0188782 -3.44891e-23 0.00505868
6.77626e-21 0.0188782 -3.56432e-23 0.00257811
5.64689e-22 -0.0188457 0.00115779 0.00505885
5.64689e-22 0.0188457 0.00115779 0.00255229
-9.03502e-22 -0.017989 0.00579611 0.00505931
-2.71051e-21 0.017989 0.00579611 0.00244463
-6.77626e-21 -0.0189173 3.90223e-05 0.00505866
6.77626e-21 0.0189173 3.90242e-05 0.00257815
0 -0.0189184 -4.22742e-23 0.00505866
6.77626e-21 0.0189184 -4.34052e-23 0.00257816
-2.82344e-22 -0.0188016 0.00239367 0.005059
5.64689e-22 0.0188016 0.00239367 0.00249502
2.71051e-20 -0.0179168 0.00619826 0.00505666
0 0.0179168 0.00619827 0.00247078
0 -0.0178342 0.00647803 0.00505725
1.35525e-20 0.0178342 0.00647805 0.00245725
0 -0.0183812 0.00473969 0.00506044
0 0.0183812 0.00473969 0.00243324
0 -0.0179161 0.00640623 0.00505753
2.71051e-20 0.0179161 0.00640626 0.00245245
0 -0.0179071 0.00654735 0.00505889
1.35525e-20 0.0179071 0.00654736 0.00242915
-1.12938e-21 0.0187899 0.00359346 0.00246085
1.12938e-21 -0.0187899 0.00359346 0.00506027
-5.42101e-20 -0.0183614 0.0054084 0.00506134
0 0.0183614 0.0054084 0.00244358
1.35525e-20 0.0179797 0.00661798 0.00241824
0 -0.0179797 0.00661798 0.00505906
-1.35525e-20 0.0180436 0.00652848 0.00242185
0 -0.0180436 0.00652847 0.00505896
-4.23516e-22 -0.0187173 0.00436434 0.0050607
-1.27055e-21 0.0187173 0.00436434 0.00244607
-1.50584e-21 -0.018177 0.00625308 0.00505886
-1.50584e-21 0.018177 0.00625308 0.00242774
0 -0.0181271 0.00676144 0.00505897
1.35525e-20 0.0181271 0.00676146 0.00241389
-2.71051e-20 -0.0183874 0.00602484 0.00505973
-2.71051e-20 0.0183874 0.00602485 0.00241143
2.71051e-20 -0.0182481 0.00651393 0.00506004
2.71051e-20 0.0182481 0.00651394 0.00240205
4.94103e-22 0.0187359 0.00501818 0.00242161
4.94103e-22 -0.0187359 0.00501817 0.00506004
-1.35525e-20 -0.0182332 0.00669844 0.00505883
-1.35525e-20 0.0182332 0.00669846 0.00241679
0 -0.018217 0.00684899 0.00505865
-2.71051e-20 0.0182171 0.00684899 0.00242259
0 -0.0194643 0.000581954 0.00505832
-1.0842e-19 0.0194643 0.000581956 0.00257054
0 -0.0194401 0.00177497 0.00505869
5.42101e-20 0.0194401 0.00177497 0.00250988
1.12938e-21 -0.0186825 0.00571617 0.00506034
1.69407e-21 0.0186825 0.00571618 0.00241432
2.71051e-20 0.018308 0.00693726 0.0024566
1.35525e-20 -0.018308 0.00693726 0.00505648
-1.35525e-20 0.018365 0.00682515 0.00245056
-1.35525e-20 -0.018365 0.00682514 0.00505687
0 0.0191534 0.00414674 0.00241679
-2.71051e-20 -0.0191534 0.00414674 0.00506295
-5.42101e-20 -0.0194225 0.00303969 0.00505851
-5.42101e-20 0.0194225 0.00303969 0.00242599
-2.71051e-20 0.01915 0.0045832 0.00239923
0 -0.01915 0.0045832 0.00505997
0 -0.0186305 0.00640894 0.00505904
1.807e-21 0.0186305 0.00640895 0.00241005
0 0.0193886 0.00369336 0.00242391
-1.05879e-22 -0.0193877 0.00369516 0.005057
2.71051e-20 -0.0185455 0.00680231 0.00505589
0 0.0185455 0.00680231 0.00246235
-5.42101e-20 -0.019012 0.00537772 0.00505949
-2.71051e-20 0.019012 0.00537773 0.00239953
-1.35525e-20 -0.0184497 0.00707482 0.00505638
-2.71051e-20 0.0184497 0.00707483 0.00244666
1.35525e-20 -0.018538 0.00700337 0.00505672
0 0.018538 0.00700339 0.00243856
0 -0.0193613 0.00436274 0.00505538
1.35525e-20 0.0193613 0.00436274 0.0024032
-1.35525e-20 -0.0185249 0.0071478 0.00505814
-1.35525e-20 0.0185249 0.0071478 0.002405
-2.71051e-20 -0.0189858 0.00603642 0.00506083
2.71051e-20 0.0189858 0.00603643 0.00240138
0 0.018601 0.00722169 0.00238795
-1.35525e-20 -0.018601 0.00722169 0.00505831
-1.35525e-20 0.0186688 0.00713006 0.00239292
0 -0.0186688 0.00713005 0.00505822
0 0.0193578 0.00503068 0.00238283
1.41172e-22 -0.0193578 0.00503068 0.00505674
2.71051e-20 -0.0195829 0.00413333 0.00505061
0 0.0195829 0.00413333 0.00241179
6.02335e-21 -0.0188026 0.00685908 0.00505802
-1.50584e-21 0.0188026 0.00685908 0.00239993
-3.38813e-21 0.0200409 2.97531e-05 0.0025288
0 -0.0200409 2.97438e-05 0.00505784
-3.38813e-21 0.0200414 5.6205e-24 0.00252882
3.38813e-21 -0.0200414 5.6332e-24 0.00505784
-6.77626e-21 -0.020072 -1.60497e-25 0.00505782
-6.77626e-21 0.020072 -1.56925e-25 0.00252668
-1.12938e-21 0.0200566 0.00116432 0.00249036
1.69407e-21 -0.0200566 0.00116432 0.00505802
0 -0.0195648 0.00457553 0.00504884
0 0.0195648 0.00457553 0.00237408
3.38813e-21 -0.020102 2.93805e-05 0.00505779
-6.77626e-21 0.020102 2.93892e-05 0.00252474
0 -0.0201024 -1.73084e-25 0.00505779
-3.38813e-21 0.0201024 -1.69595e-25 0.00252474
2.71051e-20 -0.0187404 0.00735707 0.00505805
0 0.0187404 0.00735708 0.00238664
2.71051e-20 -0.0190162 0.00663681 0.00505864
1.69407e-21 -0.0193208 0.00568921 0.00505968
1.12938e-21 0.0193208 0.00568921 0.00237608
2.71051e-20 0.0190162 0.00663681 0.00237303
-2.71051e-20 -0.0188683 0.00711623 0.00505932
-2.71051e-20 0.0188683 0.00711623 0.00236568
5.64689e-22 0.0200437 0.0023892 0.00240424
-5.64689e-22 -0.0200437 0.0023892 0.00505835
-1.35525e-20 -0.0188522 0.00729488 0.00505789
-1.35525e-20 0.0188522 0.0072949 0.00239167
1.35525e-20 -0.0188339 0.00744777 0.00505765
-2.71051e-20 0.0188339 0.00744777 0.00240589
2.25875e-21 -0.0193083 0.00633279 0.00506042
0 0.0193083 0.00633279 0.00237066
-2.71051e-20 -0.0196626 0.005336 0.00505798
-2.71051e-20 0.0196626 0.005336 0.00236481
0 0.0189281 0.00753929 0.00245915
-2.71051e-20 -0.0189281 0.0075393 0.00505504
0 0.018987 0.00742577 0.00244876
0 -0.018987 0.00742576 0.00505551
-2.25875e-21 0.0200608 0.00364085 0.00234491
-1.12938e-21 -0.0200608 0.00364085 0.00505589
5.29396e-23 -0.0200051 0.00433748 0.00505159
3.75871e-21 0.0200051 0.00433749 0.00234352
-9.03502e-22 -0.0192547 0.00701653 0.00505856
1.50463e-37 0.0192547 0.00701654 0.00238626
2.71051e-20 -0.0196313 0.0059969 0.00506031
0 0.0196313 0.0059969 0.00233942
2.71051e-20 -0.019165 0.00740556 0.00505436
0 0.019165 0.00740556 0.00246988
-1.35525e-20 -0.0190666 0.0076737 0.00505496
1.35525e-20 0.0190666 0.00767372 0.00245092
-1.35525e-20 -0.0191579 0.00760273 0.00505539
1.35525e-20 0.0191579 0.00760276 0.00243905
-1.35525e-20 -0.0191443 0.00774911 0.00505708
0 0.0191443 0.00774911 0.00239406
-1.12938e-21 0.0200588 0.00492596 0.00231877
-5.64689e-21 -0.0200588 0.00492596 0.00505496
5.42101e-20 0.0206698 0.000582857 0.00248248
0 -0.0206698 0.000582861 0.00505732
-2.71051e-20 -0.0196174 0.00664558 0.00506201
2.71051e-20 0.0196174 0.00664558 0.00236699
0 0.0206614 0.00177612 0.00239672
0 -0.0206614 0.00177612 0.00505777
-2.82344e-22 -0.0199641 0.0056435 0.00505854
-9.88205e-22 0.0199641 0.00564351 0.00232673
0 0.0192227 0.00782524 0.00237146
0 -0.0192227 0.00782524 0.00505739
0 0.019291 0.00773359 0.00237744