# U  POINT_DATA 56513
# x  y  z  U_x  U_y  U_z
-0.0292381 0 8.09214e-08 0 0 0
0.0292381 0 8.09214e-08 0 0 0
0.0292381 -3.38813e-21 0.000233596 0 0 0
-0.0292381 3.38813e-21 0.000233441 0 0 0
0.029238 -3.38813e-21 0.000431066 0 0 0
-0.0292381 0 0.000430751 0 0 0
0.029238 -1.35525e-20 0.000664138 0 0 0
-0.029238 -6.77626e-21 0.000663676 0 0 0
0.029238 -3.38813e-21 0.000908366 0 0 0
-0.029238 0 0.000907922 0 0 0
-0.029238 -3.38813e-21 0.00111494 0 0 0
0.029238 3.38813e-21 0.00111544 0 0 0
-0.029238 0 0.00135903 0 0 0
0.0292379 0 0.00135951 0 0 0
-0.0292379 -3.38813e-21 0.00161391 0 0 0
0.0292379 0 0.00161421 0 0 0
-0.0292379 3.38813e-21 0.00183185 0 0 0
0.0292379 3.38813e-21 0.00183203 0 0 0
0.0292379 1.35525e-20 0.002087 0 0 0
-0.0292379 -1.35525e-20 0.002087 0 0 0
-0.0293159 -1.01644e-20 0.000332812 1.5751e-06 -5.07852e-07 8.10954e-08
0.0293159 1.69407e-20 0.000333044 8.52478e-06 2.25258e-07 2.6468e-06
-0.0293201 -3.38813e-21 0.00100457 1.31392e-05 -5.50353e-06 -2.77398e-07
0.0293201 1.35525e-20 0.00100504 0.000378732 -0.000146594 -6.06332e-06
-0.0293199 0 0.0017002 1.39154e-05 -5.9105e-06 1.48343e-06
0.0293199 3.38813e-21 0.00170046 0.000379577 -0.000145601 -2.23218e-05
-0.0294721 0 0.000122211 4.73531e-06 -1.52678e-06 2.43802e-07
0.0294722 1.35525e-20 0.000122307 2.56284e-05 6.77202e-07 7.95718e-06
-0.0294728 0 7.47975e-08 0 0 0
0.0294728 0 7.47971e-08 0 0 0
-0.0294797 1.35525e-20 0.000527785 4.88657e-06 -1.57555e-06 2.5159e-07
0.0294797 -1.35525e-20 0.000528144 2.64475e-05 6.98846e-07 8.21151e-06
-0.0294753 -1.35525e-20 0.000796291 3.79482e-05 -1.58952e-05 -8.01177e-07
0.0294753 1.35525e-20 0.000796753 0.00109369 -0.000423328 -1.75094e-05
-0.0294755 2.03288e-20 0.00118666 3.80052e-05 -1.59191e-05 -8.0238e-07
0.0294755 0 0.00118714 0.00109535 -0.00042397 -1.7536e-05
-0.0294683 -1.35525e-20 0.00147414 3.91117e-05 -1.66125e-05 4.16944e-06
0.0294683 -1.35525e-20 0.00147454 0.00106679 -0.000409208 -6.27348e-05
-0.0294625 -6.77626e-21 0.00186309 3.81377e-05 -1.61988e-05 4.0656e-06
0.0294626 -6.77626e-21 0.00186328 0.00104019 -0.000399004 -6.11705e-05
-0.029578 -1.35525e-20 6.64178e-08 0 0 0
0.029578 -2.71051e-20 6.64171e-08 0 0 0
-0.0295009 -1.35525e-20 0.00213468 0 0 0
0.0295009 6.77626e-21 0.00213468 0 0 0
-0.029587 1.35525e-20 0.000650836 3.0966e-05 -1.32886e-05 -2.87977e-07
0.0295871 -2.71051e-20 0.00065131 0.00106538 -0.000431371 9.93133e-06
-0.0295378 1.35525e-20 0.00203786 2.99012e-05 -1.53285e-05 2.87377e-06
0.0295378 1.35525e-20 0.00203793 0.000891152 -0.000400899 -6.83348e-05
-0.029584 -2.71051e-20 0.00130565 6.53748e-05 -2.67649e-05 1.64823e-06
0.0295841 0 0.00130618 0.00178727 -0.000688725 -2.92087e-05
-0.0295849 -1.35525e-20 0.00192058 5.76546e-05 -2.4585e-05 3.68955e-06
0.0295849 6.77626e-21 0.00192076 0.00155066 -0.000615372 -9.01637e-05
0.029649 0 0.00216152 0 0 0
-0.029649 0 0.00216152 0 0 0
-0.0297926 4.51751e-22 0.000963661 8.67871e-05 -3.09535e-05 4.22015e-06
0.0297927 1.807e-21 0.000964146 0.00254299 -0.00088642 -2.9163e-05
-0.0298093 -1.35525e-20 7.62609e-08 0 0 0
0.0298093 -2.71051e-20 7.62598e-08 0 0 0
-0.0298204 9.03502e-22 0.000317447 1.57902e-05 -6.10069e-06 8.06537e-07
0.0298205 1.12938e-21 0.000317662 0.000229843 -7.85885e-05 -5.06705e-06
-0.0297852 4.96926e-21 0.00156826 9.46595e-05 -3.47347e-05 1.53258e-06
0.0297852 1.807e-21 0.00156862 0.00260449 -0.000920141 -5.39143e-05
-0.0297946 -1.12938e-21 0.00197115 5.92717e-05 -2.19173e-05 5.01591e-07
0.0297946 3.38813e-21 0.0019713 0.00164133 -0.000613032 -6.7124e-05
-0.029885 -3.38813e-21 8.57338e-08 0 0 0
0.0298851 -3.38813e-21 8.5738e-08 0 0 0
0.0298185 -6.77626e-21 0.00219226 0 0 0
-0.0298186 -2.71051e-20 0.00219226 0 0 0
-0.0299229 0 0.00221118 0 0 0
0.0299229 -1.35525e-20 0.00221118 0 0 0
-0.0300582 0 1.01023e-07 0 0 0
0.0300583 0 1.01025e-07 0 0 0
-0.030042 0 0.00125419 0.000138052 -5.39828e-05 2.18758e-06
0.0300421 -9.03502e-21 0.00125463 0.00377694 -0.00137211 -2.38857e-05
-0.030023 -7.7443e-21 0.00171052 0.000129717 -5.02498e-05 6.54406e-07
0.0300231 -4.84019e-21 0.0017108 0.00341925 -0.00123592 -5.3131e-05
-0.0300766 0 0.00065666 7.76732e-05 -2.97005e-05 2.43027e-06
0.0300767 4.51751e-21 0.000657051 0.00241451 -0.000869182 -1.15222e-05
-0.0301411 -6.77626e-21 0.000117994 4.55154e-06 -1.94259e-06 -7.6066e-08
0.0301411 6.77626e-21 0.000117999 2.40205e-05 -6.93633e-06 -3.66582e-08
-0.030143 0 9.36904e-08 0 0 0
0.0301431 0 9.3697e-08 0 0 0
-0.0300722 1.35525e-20 0.00223823 0 0 0
0.0300722 -1.35525e-20 0.00223824 0 0 0
-0.0302709 -1.35525e-20 0.000327812 1.12693e-05 -4.63921e-06 -2.38665e-07
0.0302709 0 0.000327976 0.000855074 -0.000302174 -4.41567e-06
-0.0302588 0 0.000959195 0.000140568 -5.62679e-05 3.32146e-06
0.0302588 -1.35525e-20 0.000959517 0.00408677 -0.00146538 -2.54285e-05
-0.0302233 -1.12938e-21 0.00199374 0.000101938 -4.14913e-05 -2.38453e-06
0.0302233 -1.12938e-21 0.00199386 0.00262904 -0.000934467 2.92203e-05
-0.0302513 -1.35525e-20 0.00155258 0.000164889 -6.69471e-05 -1.51567e-06
0.0302514 0 0.00155284 0.00442395 -0.0015907 2.85613e-05
0.0303944 -1.01644e-20 0.00229663 0 0 0
-0.0303944 0 0.00229664 0 0 0
-0.0305071 -3.38813e-21 4.03686e-05 1.55735e-06 -6.64676e-07 -2.60267e-08
0.0305071 3.38813e-21 4.03653e-05 8.21781e-06 -2.37303e-06 -1.25413e-08
-0.0305084 0 2.78813e-08 0 0 0
0.0305085 0 2.78788e-08 0 0 0
-0.0305355 0 2.44807e-08 0 0 0
0.0305355 -3.38813e-21 2.44807e-08 0 0 0
0.030464 0 0.00230926 0 0 0
-0.030464 6.77626e-21 0.00230926 0 0 0
0.0305559 -3.38813e-21 2.5605e-08 0 0 0
-0.0305559 0 2.56056e-08 0 0 0
0.0305566 0 2.16951e-05 3.62306e-05 -1.40044e-05 -2.14038e-06
-0.0305566 0 2.17024e-05 7.99797e-07 -4.24361e-07 4.8682e-08
-0.0305496 7.05861e-23 0.00065626 9.50731e-05 -3.81334e-05 1.49823e-06
0.0305496 -1.41172e-22 0.000656486 0.00319692 -0.00113302 -7.22093e-06
-0.0305132 1.50584e-21 0.00170668 0.000178923 -7.30238e-05 6.64184e-07
0.0305132 1.8823e-22 0.00170684 0.00455451 -0.00163655 1.78374e-05
-0.0305476 -3.38813e-22 0.00124506 0.000195087 -7.83574e-05 2.05835e-06
0.0305476 2.25875e-22 0.00124529 0.00520156 -0.00186279 5.12134e-06
-0.030501 -6.77626e-21 0.00231596 0 0 0
0.030501 0 0.00231596 0 0 0
0.0306237 0 3.57389e-08 0 0 0
-0.0306238 0 3.5746e-08 0 0 0
-0.0306099 -3.38813e-21 0.0021928 6.01543e-05 -2.58227e-05 1.3616e-06
0.03061 0 0.00219279 0.00147154 -0.00053646 -3.29155e-06
-0.0307225 -3.38813e-21 0.00235612 0 0 0
0.0307226 0 0.00235614 0 0 0
-0.0308383 2.71051e-20 0.000320901 9.68668e-06 -4.47206e-06 4.90365e-07
0.0308383 5.42101e-20 0.000320968 0.00185849 -0.000617911 6.3793e-07
-0.0308116 0 0.00198356 0.000160824 -6.80685e-05 3.03277e-06
0.0308116 2.25875e-21 0.00198362 0.00390913 -0.00141214 -2.02753e-06
-0.0309907 0 0.0010195 0.000233623 -9.2726e-05 2.58151e-06
0.0309907 -8.13152e-21 0.00101961 0.00619318 -0.00220176 -7.03621e-06
-0.0309922 0 0.00150595 0.00028172 -0.000113872 6.08629e-06
0.0309922 0 0.00150605 0.00686592 -0.00245895 -3.05151e-05
-0.0310394 0 9.17162e-08 0 0 0
0.0310395 0 9.17132e-08 0 0 0
-0.0310415 0 0.000119361 2.99934e-06 -1.1566e-06 1.17921e-07
0.0310416 0 0.000119404 0.00106062 -0.000344527 9.27913e-06
-0.030965 0 0.00240008 0 0 0
0.030965 0 0.00240009 0 0 0
-0.030982 0 0.00237269 2.1224e-05 -9.5021e-06 9.00758e-07
0.030982 0 0.00237271 0.000489499 -0.000176153 -3.20135e-06
0.0310104 6.77626e-21 0.00240832 0 0 0
-0.0310104 6.77626e-21 0.00240832 0 0 0
0.0310179 6.77626e-21 0.00233587 0.000870224 -0.000309218 9.72839e-07
-0.0310179 0 0.00233584 3.95359e-05 -1.68553e-05 1.09453e-06
-0.0311223 9.03502e-21 0.000639224 0.000128904 -5.39835e-05 -2.8239e-07
0.0311223 -4.51751e-21 0.000639291 0.00437934 -0.00159509 2.59698e-05
0.0310526 6.77626e-21 0.00237692 0.000705531 -0.000272148 -9.54222e-06
-0.0310526 -6.77626e-21 0.00237691 3.19742e-05 -1.61691e-05 1.81213e-06
-0.0311458 1.35525e-20 9.71539e-08 0 0 0
0.0311459 0 9.71521e-08 0 0 0
0.031071 0 0.00241931 0 0 0
-0.0310711 -6.77626e-21 0.00241931 0 0 0
-0.0312091 -2.71051e-20 0.00177609 0.000267703 -0.000116884 1.15386e-05
0.0312091 -2.71051e-20 0.00177613 0.00617331 -0.00227935 -0.000111049
-0.0312491 0 0.00122869 0.000290045 -0.000123882 6.13721e-06
0.0312491 0 0.00122876 0.00714323 -0.00261683 -3.42691e-05
-0.0312857 0 8.40765e-08 0 0 0
0.0312858 -1.35525e-20 8.4069e-08 0 0 0
-0.0312916 0 0.000133791 3.50584e-06 -1.94392e-06 5.49403e-08
0.0312917 1.35525e-20 0.000133817 0.0013723 -0.000511611 3.34742e-06
-0.0313889 0 0.00201496 0.000246202 -0.000104389 1.0797e-05
0.0313889 2.25875e-21 0.00201499 0.00561526 -0.00197727 -8.2192e-05
-0.0313958 -6.77626e-21 0.00247818 0 0 0
0.0313958 0 0.00247818 0 0 0
-0.0314932 0 0.00040878 5.38311e-05 -2.42283e-05 2.08917e-07
0.0314932 0 0.000408784 0.00338374 -0.0012893 6.79225e-06
-0.0315059 0 0.000915866 0.000265755 -0.000111175 5.58724e-06
0.0315059 0 0.000915906 0.00710456 -0.00252689 -7.00552e-06
-0.0314281 0 0.00241762 5.43607e-05 -2.74898e-05 3.08088e-06
0.0314281 0 0.00241764 0.00119955 -0.000462708 -1.62237e-05
-0.0315016 0 0.00151814 0.000354817 -0.000148322 9.45066e-06
0.0315016 2.25875e-21 0.00151817 0.00834354 -0.0029576 -6.97725e-05
0.0314986 -1.35525e-20 0.00234883 0.00184824 -0.000654206 4.55737e-06
-0.0314986 1.35525e-20 0.00234879 9.10289e-05 -3.90155e-05 2.3465e-06
0.0315086 0 0.00249863 0 0 0
-0.0315086 -1.35525e-20 0.00249863 0 0 0
0.0316957 1.35525e-20 0.0001271 0.0013041 -0.000486183 3.18105e-06
-0.0316957 0 0.000127012 3.32991e-06 -1.84637e-06 5.21833e-08
0.0316993 0 1.28441e-08 0 0 0
-0.0316993 0 1.28327e-08 0 0 0
-0.0317724 0 0.000610883 0.000163745 -7.16078e-05 1.96154e-06
0.0317724 2.71051e-20 0.000610893 0.00531891 -0.0019801 5.47853e-06
-0.0317679 0 0.00121729 0.000362081 -0.000156112 7.00817e-06
0.0317679 0 0.0012173 0.00848919 -0.00310089 -3.27002e-05
-0.0317537 0 0.00187022 0.000341121 -0.000146423 1.04105e-05
0.0317537 2.71051e-20 0.00187023 0.00727457 -0.00263951 -8.28431e-05
0.0317093 2.71051e-20 0.00253502 0 0 0
-0.0317093 2.71051e-20 0.00253502 0 0 0
-0.0318341 -1.35525e-20 3.55262e-10 0 0 0
0.0318342 1.35525e-20 3.5768e-10 0 0 0
0.0317532 -1.8823e-22 0.00228382 0.00411104 -0.00139238 -9.57772e-05
-0.0317532 -1.31761e-21 0.00228381 0.000206569 -7.78524e-05 1.03891e-05
-0.0319513 -1.35525e-20 4.55429e-10 0 0 0
0.0319515 1.35525e-20 4.57735e-10 0 0 0
-0.0319524 1.35525e-20 0.000127633 3.56489e-06 -1.7436e-06 7.50489e-08
0.0319526 0 0.000127717 0.0015159 -0.000566396 -1.26236e-05
-0.0318828 0 0.00256647 0 0 0
0.0318828 0 0.00256647 0 0 0
-0.0319995 4.51751e-21 0.0009146 0.000326732 -0.000143698 5.42885e-06
0.0319996 0 0.000914606 0.00815574 -0.00293713 -3.93523e-05
-0.0320112 0 0.000400505 5.0083e-05 -2.20131e-05 4.49842e-07
0.0320112 0 0.0004005 0.00382118 -0.00143615 -1.72578e-05
0.0320267 -2.25875e-21 0.00227705 0.00489511 -0.00171263 -5.59326e-05
-0.0320267 -1.12938e-21 0.00227704 0.000239057 -9.95819e-05 8.21044e-06
0.0320296 0 0.00251382 0.0014857 -0.000516739 -2.68005e-05
-0.0320296 0 0.00251381 7.03766e-05 -2.96655e-05 3.47476e-06
-0.0320975 2.25875e-21 0.00153739 0.000463353 -0.00019974 3.45678e-06
0.0320975 -2.25875e-21 0.0015374 0.0100142 -0.00357913 4.62974e-05
-0.0320427 6.77626e-21 0.00259544 0 0 0
0.0320427 -6.77626e-21 0.00259544 0 0 0
-0.0321203 -9.03502e-21 0.00203437 0.000366693 -0.0001544 7.9203e-06
0.0321203 -4.51751e-21 0.00203437 0.00742715 -0.00263267 -2.03573e-05
-0.032135 0 0.00238954 0.000176663 -7.73267e-05 7.78409e-06
0.032135 0 0.00238955 0.0037848 -0.00133157 -6.64463e-05
0.0322923 1.35525e-20 0.000126387 0.0015001 -0.000560492 -1.2492e-05
-0.0322923 1.35525e-20 0.000126365 3.52942e-06 -1.72626e-06 7.43023e-08
0.0323016 1.35525e-20 2.23457e-09 0 0 0
-0.0323016 -1.35525e-20 2.23356e-09 0 0 0
-0.0322103 1.35525e-20 0.00262583 0 0 0
0.0322103 1.35525e-20 0.00262583 0 0 0
-0.0322717 -1.35525e-20 0.00254335 8.31283e-05 -3.50406e-05 4.10436e-06
0.0322718 -1.35525e-20 0.00254336 0.00175493 -0.000610377 -3.16571e-05
-0.032418 0 2.33101e-09 0 0 0
0.032418 -1.35525e-20 2.33195e-09 0 0 0
-0.0324263 4.51751e-21 0.000612604 0.000206341 -8.96523e-05 2.40837e-06
0.0324263 0 0.000612601 0.00639535 -0.00227419 -1.75174e-05
-0.0324222 -9.03502e-21 0.00112452 0.000445247 -0.000192677 4.9836e-06
0.0324222 0 0.00112451 0.0098722 -0.00351099 2.69838e-06
-0.032412 0 0.00187553 0.000474904 -0.000203715 7.73695e-06
0.0324121 5.42101e-20 0.00187553 0.00920277 -0.00327324 5.91837e-05
-0.0323801 -1.35525e-20 0.0026566 0 0 0
0.0323802 -1.35525e-20 0.00265661 0 0 0
-0.0324113 1.69407e-21 0.00229689 0.000293718 -0.000126095 8.40603e-06
0.0324113 1.12938e-21 0.0022969 0.00573323 -0.00201949 -2.61477e-06
-0.032547 1.35525e-20 2.20754e-09 0 0 0
0.032547 -1.35525e-20 2.20837e-09 0 0 0
-0.0325489 -1.35525e-20 0.000125731 3.55902e-06 -1.64749e-06 5.00077e-08
0.0325489 0 0.00012575 0.00161557 -0.000568074 -9.07853e-07
-0.0326035 0 0.00269705 0 0 0
0.0326035 -6.77626e-21 0.00269706 0 0 0
-0.032737 -2.71051e-20 0.00030837 8.75746e-06 -3.82987e-06 1.97219e-07
0.032737 0 0.000308358 0.0036144 -0.00124831 3.75677e-06
-0.0327282 2.25875e-21 0.00154832 0.000587275 -0.000253951 1.00825e-05
0.0327282 -6.77626e-21 0.00154831 0.011493 -0.00408535 6.64888e-05
-0.0326737 -4.51751e-21 0.00254228 0.000165705 -6.96749e-05 5.01511e-06
0.0326738 -9.03502e-21 0.00254228 0.00304793 -0.00104692 2.7522e-05
-0.0327075 0 0.00206775 0.000484038 -0.000207713 1.10788e-05
0.0327075 4.51751e-21 0.00206775 0.00908897 -0.0032263 5.71882e-05
-0.032708 2.03288e-20 0.002716 0 0 0
0.0327081 0 0.00271601 0 0 0
-0.0328421 -4.51751e-21 0.000917741 0.000436769 -0.00019004 4.4146e-06
0.0328421 4.51751e-21 0.000917735 0.00975953 -0.00344862 1.1799e-05
-0.0328866 0 1.93643e-09 0 0 0
0.0328867 0 1.93682e-09 0 0 0
-0.032889 1.35525e-20 0.000149427 4.22979e-06 -1.95799e-06 5.94327e-08
0.032889 1.35525e-20 0.000149442 0.00191995 -0.000675102 -1.0789e-06
-0.0329824 -1.35525e-20 0.000542132 0.000165252 -7.11652e-05 1.91397e-06
0.0329824 5.80823e-21 0.00054211 0.00586253 -0.00205258 5.17868e-06
-0.0330371 -2.71051e-20 1.79015e-09 0 0 0
0.0330372 -1.35525e-20 1.79044e-09 0 0 0
-0.0329464 2.71051e-20 0.00275916 0 0 0
0.0329464 0 0.00275917 0 0 0
-0.0329864 -5.64689e-22 0.00235373 0.000386464 -0.00017022 1.34113e-05
0.0329864 -3.38813e-22 0.00235373 0.0069542 -0.00246828 1.66581e-05
-0.0330505 0 0.00123121 0.000591025 -0.000254966 8.77785e-06
0.0330505 0 0.00123119 0.0115068 -0.00406529 4.75669e-05
-0.03302 -2.71051e-20 0.00190069 0.000604561 -0.000262201 1.37766e-05
0.03302 2.71051e-20 0.00190069 0.0107433 -0.00380747 7.18569e-05
-0.0332006 -1.35525e-20 2.0216e-09 0 0 0
0.0332007 -2.71051e-20 2.02177e-09 0 0 0
-0.0333521 6.77626e-21 0.000302612 5.55188e-05 -2.44666e-05 6.2187e-07
0.0333521 -9.03502e-21 0.000302604 0.00379203 -0.00131419 -1.16433e-06
-0.0333579 -2.25875e-21 0.000916469 0.000499897 -0.000220982 6.87463e-06
0.0333579 2.25875e-21 0.000916441 0.0105206 -0.003719 2.57016e-05
0.0332522 6.77626e-21 0.00281453 0 0 0
-0.0332522 -2.71051e-20 0.00281452 0 0 0
-0.0333432 2.25875e-21 0.00156281 0.000715857 -0.000314449 1.52057e-05
0.0333432 1.35525e-20 0.0015628 0.0130105 -0.00462972 7.61403e-05
-0.0332953 -3.38813e-21 0.00276394 7.09239e-05 -3.17538e-05 2.79522e-06
0.0332953 0 0.00276393 0.0012315 -0.000439863 1.23163e-06
-0.0333121 -1.35525e-20 0.00282536 0 0 0
0.0333121 0 0.00282536 0 0 0
-0.03334 -2.25875e-21 0.00259806 0.000273842 -0.000123035 1.09259e-05
0.03334 -1.12938e-21 0.00259806 0.00473967 -0.00169651 9.20108e-07
-0.0333776 2.25875e-21 0.00214892 0.000611974 -0.000265203 2.20178e-05
0.0333777 -2.25875e-21 0.00214893 0.0104841 -0.00366141 2.72379e-05
-0.0334909 0 2.97205e-09 0 0 0
0.0334909 -2.71051e-20 2.97158e-09 0 0 0
-0.0336619 -2.71051e-20 3.2006e-09 0 0 0
0.0336619 0 3.20002e-09 0 0 0
0.0336674 -2.71051e-20 0.000602311 0.00761313 -0.00267048 -3.56659e-06
-0.0336674 0 0.000602349 0.000292775 -0.000130265 4.22605e-06
0.0336288 -2.71051e-20 0.00191753 0.0123814 -0.00436856 0.00010251
-0.0336288 2.71051e-20 0.00191755 0.00075531 -0.000331026 1.84651e-05
0.0336642 0 0.00123321 0.0127576 -0.00450657 5.43582e-05
-0.0336642 0 0.00123324 0.000707831 -0.000312304 1.18751e-05
-0.0335885 2.71051e-20 0.00287539 0 0 0
0.0335885 0 0.00287539 0 0 0
-0.0336882 -2.71051e-20 0.0024221 0.000520057 -0.000229958 1.95883e-05
0.0336883 0 0.00242211 0.00832087 -0.00291812 4.51627e-05
-0.0338384 -1.35525e-20 2.82155e-09 0 0 0
0.0338384 1.35525e-20 2.82101e-09 0 0 0
0.0338129 -2.71051e-20 0.00291608 0 0 0
-0.033813 0 0.00291609 0 0 0
-0.0339781 -4.51751e-21 0.000302701 6.33986e-05 -2.84201e-05 7.75606e-07
0.0339781 0 0.000302675 0.00406389 -0.00141148 -1.80333e-05
-0.0339808 -6.77626e-21 0.000914762 0.000591676 -0.0002646 9.25964e-06
0.0339808 2.25875e-21 0.000914701 0.0114342 -0.00402558 1.65464e-06
0.0339745 -2.25875e-21 0.00155861 0.0145271 -0.00515262 8.13697e-05
-0.0339745 -9.03502e-21 0.00155866 0.000870039 -0.00038596 1.89022e-05
-0.0339481 2.25875e-21 0.0026758 0.000336512 -0.000166525 1.71213e-05
0.0339481 4.51751e-22 0.00267579 0.00542063 -0.00200708 3.63094e-05
-0.0339879 1.58113e-20 0.00215835 0.000776768 -0.00034808 2.35645e-05
0.0339879 -2.25875e-21 0.00215833 0.0124893 -0.00440548 0.00012726
-0.0341105 -1.35525e-20 1.81923e-09 0 0 0
0.0341105 -1.35525e-20 1.81899e-09 0 0 0
0.0340317 0 0.00295577 0 0 0
-0.0340318 0 0.00295579 0 0 0
-0.0342884 -2.71051e-20 1.43984e-09 0 0 0
0.0342884 -2.71051e-20 1.43965e-09 0 0 0
-0.0342943 -2.71051e-20 0.000598991 0.000339673 -0.000153701 4.55193e-06
0.0342943 2.71051e-20 0.000598921 0.00812646 -0.00286444 -1.82761e-06
0.0342171 -1.35525e-20 0.00298939 0 0 0
-0.0342172 4.06576e-20 0.0029894 0 0 0
0.0342949 0 0.00244804 0.00988518 -0.00343345 0.000127808
-0.0342949 0 0.00244806 0.00066702 -0.00029741 2.29428e-05
-0.034362 0 0.00129504 0.000919995 -0.000412325 1.55023e-05
0.034362 -9.68038e-21 0.00129496 0.0148167 -0.00526404 0.000110316
-0.0343655 1.16165e-20 0.00179159 0.000989433 -0.000439976 2.08905e-05
0.0343655 1.54886e-20 0.00179153 0.0152039 -0.00538515 0.000164447
0.0343352 1.35525e-20 0.00301088 0 0 0
-0.0343353 1.35525e-20 0.00301089 0 0 0
-0.0344682 1.35525e-20 1.2842e-09 0 0 0
0.0344682 2.71051e-20 1.284e-09 0 0 0
-0.0345084 -9.03502e-21 0.000909454 0.000670964 -0.000305463 9.67532e-06
0.0345084 -1.35525e-20 0.000909369 0.0120788 -0.00427146 2.96333e-05
-0.034518 -9.03502e-21 0.00215838 0.000947093 -0.000418482 2.54948e-05
0.034518 -4.51751e-21 0.00215835 0.0140942 -0.00494524 0.000199122
-0.0346072 -4.51751e-21 0.000300821 7.50846e-05 -3.41487e-05 7.43679e-07
0.0346072 0 0.000300778 0.00427327 -0.00149925 -4.1822e-06
0.0346152 2.71051e-20 0.00154283 0.0164455 -0.00585723 0.000170802
-0.0346152 2.71051e-20 0.00154291 0.00107661 -0.000481689 1.98351e-05
0.034558 -4.51751e-22 0.00272776 0.00709138 -0.00250698 5.98517e-05
-0.034558 1.58113e-21 0.00272776 0.000486388 -0.000226571 2.53576e-05
0.0345977 1.35525e-20 0.00305919 0 0 0
-0.0345977 0 0.0030592 0 0 0
-0.0347356 0 9.21309e-10 0 0 0
0.0347357 1.35525e-20 9.21242e-10 0 0 0
-0.0346831 -6.77626e-21 0.00307474 0 0 0
0.0346831 6.77626e-21 0.00307474 0 0 0
-0.0349165 2.71051e-20 7.6471e-10 0 0 0
0.0349166 0 7.64643e-10 0 0 0
-0.0349264 4.51751e-21 0.000691164 0.000541762 -0.000249797 8.32769e-06
0.0349264 -4.51751e-21 0.000691082 0.0103462 -0.00367062 2.81911e-05
0.0349292 -2.25875e-21 0.00121438 0.0150113 -0.00534972 0.000121014
-0.0349292 0 0.00121448 0.000967229 -0.000438169 1.64647e-05
0.0349324 1.35525e-20 0.00185859 0.016476 -0.0058239 0.000268501
-0.0349324 -4.51751e-21 0.00185866 0.00114433 -0.00050932 2.42691e-05
0.0348922 1.35525e-20 0.00311391 0 0 0
-0.0348922 1.01644e-20 0.00311391 0 0 0
0.0349975 -2.25875e-21 0.00246507 0.0121692 -0.004184 0.000245159
-0.0349975 2.25875e-21 0.00246508 0.000883989 -0.000389227 2.70758e-05
-0.0350985 0 7.01007e-10 0 0 0
0.0350985 1.35525e-20 7.00941e-10 0 0 0
-0.035002 9.03502e-21 0.00285808 0.000469879 -0.000197177 2.39187e-05
0.035002 0 0.00285808 0.00616829 -0.00198552 4.94649e-05
-0.0352406 2.25875e-21 0.000295905 8.9514e-05 -4.08556e-05 6.54942e-07
0.0352407 6.77626e-21 0.000295859 0.00443831 -0.0015631 3.56012e-07
-0.0352487 0 0.00089372 0.000822211 -0.000380402 1.42445e-05
0.0352487 -2.71051e-20 0.000893614 0.0133178 -0.00474926 4.97065e-05
0.0351342 1.69407e-21 0.00315794 0 0 0
-0.0351342 -1.69407e-21 0.00315795 0 0 0
0.0352503 0 0.00152768 0.0177885 -0.00636952 0.000231349
-0.0352503 2.71051e-20 0.00152777 0.00125754 -0.000565801 2.24417e-05
-0.0351477 0 0.00316042 0 0 0
0.0351478 -1.69407e-21 0.00316043 0 0 0
0.0351794 0 0.00281731 0.00748616 -0.00241932 9.60175e-05
-0.0351794 0 0.00281732 0.00055747 -0.000243419 2.49014e-05
-0.035153 0 0.00314567 2.62437e-05 -1.1915e-05 1.33585e-06
0.035153 -1.69407e-21 0.00314559 0.000370802 -0.00011328 1.974e-06
0.0352564 0 0.00217228 0.0171301 -0.00598625 0.000453302
-0.0352564 0 0.00217232 0.00124575 -0.000552198 2.67992e-05
-0.0353734 -1.35525e-20 5.21809e-10 0 0 0
0.0353735 0 5.21779e-10 0 0 0
-0.0352366 1.69407e-21 0.0031769 0 0 0
0.0352373 -3.38813e-21 0.00317703 0 0 0
-0.0353097 0 0.00290012 0.00049779 -0.000220236 2.36289e-05
0.0353097 1.35525e-20 0.00290013 0.00667696 -0.00209265 7.92558e-05
-0.0355532 0 4.57365e-10 0 0 0
0.0355533 0 4.57336e-10 0 0 0
0.0355671 -6.77626e-21 0.00119581 0.0158553 -0.00565277 0.000170092
-0.0355671 4.51751e-21 0.00119592 0.00111375 -0.00050643 1.6893e-05
0.0355696 9.03502e-21 0.00184838 0.0181262 -0.00638159 0.000388869
-0.0355696 6.77626e-21 0.00184845 0.00136401 -0.000608218 2.72574e-05
-0.0356124 2.25875e-21 0.000622322 0.000494954 -0.000228847 6.47284e-06
0.0356125 -4.51751e-21 0.000622242 0.00945613 -0.00334577 4.2163e-05
0.0355744 -6.77626e-21 0.00250427 0.0137184 -0.00469168 0.00038442
-0.0355744 -1.58113e-20 0.00250428 0.00106909 -0.000473401 3.15287e-05
-0.035529 3.38813e-21 0.0032312 0 0 0
0.0355292 -3.38813e-21 0.00323122 0 0 0
-0.0355423 0 0.00321267 4.21874e-05 -1.82434e-05 2.39853e-06
0.0355424 0 0.00321273 0.000563169 -0.00017213 4.76171e-06
0.0355811 -9.03502e-21 0.00287218 0.00823107 -0.00268375 0.000190468
-0.0355811 -1.35525e-20 0.00287218 0.000641822 -0.000286737 2.59948e-05
-0.035574 -3.38813e-21 0.00316175 0.000147471 -6.48609e-05 5.9008e-06
-0.0355672 0 0.0032382 0 0 0
0.0355741 0 0.0031619 0.0018449 -0.000596279 4.88986e-05
0.0355673 0 0.00323821 0 0 0
-0.0357312 -1.35525e-20 4.06834e-10 0 0 0
0.0357313 -1.35525e-20 4.06801e-10 0 0 0
-0.0356064 6.77626e-21 0.00321772 6.32019e-05 -2.70122e-05 2.10875e-06
0.0356064 0 0.00321777 0.000745393 -0.000228476 3.23963e-05
0.0356195 3.38813e-21 0.00324783 0 0 0
-0.0356195 0 0.00324784 0 0 0
-0.0358766 0 0.000193571 5.67741e-06 -2.47753e-06 -9.02738e-08
0.0358767 1.35525e-20 0.000193555 0.00279452 -0.000943649 8.17628e-06
-0.035885 0 0.000875629 0.000931735 -0.000428354 8.90736e-06
0.035885 0 0.000875535 0.0136907 -0.00487686 9.0245e-05
-0.0358906 0 0.00150725 0.00145762 -0.000657102 2.22254e-05
0.0358906 -2.71051e-20 0.00150716 0.0188443 -0.00668675 0.000310187
0.0358881 -2.71051e-20 0.00216694 0.0189648 -0.00655649 0.000562903
-0.0358881 0 0.00216698 0.0015065 -0.00066382 3.76874e-05
-0.0358664 6.77626e-21 0.00295102 0.000658096 -0.000298478 2.65731e-05
0.0358665 1.35525e-20 0.00295103 0.00811284 -0.00265262 0.000248764
-0.0360201 -1.35525e-20 2.47881e-10 0 0 0
0.0360202 2.71051e-20 2.47868e-10 0 0 0
-0.036024 1.35525e-20 0.00332287 0 0 0
0.0360241 0 0.00332289 0 0 0
-0.0361957 0 1.96858e-10 0 0 0
0.0361958 0 1.96841e-10 0 0 0
-0.0362011 -2.25875e-21 0.000563546 0.000482816 -0.00021366 3.75969e-06
0.0362011 -2.25875e-21 0.000563484 0.0089599 -0.00317532 6.04309e-05
-0.03606 1.35525e-20 0.00326851 0.000139368 -5.95655e-05 4.65007e-06
0.0360601 -1.35525e-20 0.00326857 0.00164552 -0.000504379 7.15176e-05
-0.036206 2.25875e-21 0.00117895 0.0012675 -0.000570473 1.72169e-05
0.0362061 4.51751e-21 0.00117887 0.0165322 -0.00590331 0.000229236
0.0362045 4.51751e-21 0.00184383 0.0194913 -0.00685087 0.000483743
-0.0362045 0 0.00184388 0.00159813 -0.00071711 3.57608e-05
0.0361888 -2.25875e-21 0.00253169 0.0155105 -0.00529973 0.000491754
-0.0361888 4.51751e-21 0.0025317 0.001305 -0.000582979 4.2903e-05
-0.0361316 0 0.00334265 0 0 0
0.0361316 -1.35525e-20 0.00334265 0 0 0
0.0361687 -6.77626e-21 0.00293434 0.00969824 -0.00321869 0.000292779
-0.0361687 -2.25875e-21 0.00293434 0.00081235 -0.000372096 3.50345e-05
0.0361567 6.77626e-21 0.00314741 0.00491905 -0.00161083 0.00016579
-0.0361567 1.35525e-20 0.00314727 0.000418827 -0.000188915 1.74737e-05
-0.0363723 0 1.67562e-10 0 0 0
0.0363723 1.35525e-20 1.67547e-10 0 0 0
0.0362562 0 0.00328574 0.00232753 -0.000731011 8.58059e-05
-0.0362563 -1.35525e-20 0.00328569 0.000205341 -9.08335e-05 8.85206e-06
0.0363065 6.77626e-21 0.00337454 0 0 0
-0.0363067 6.77626e-21 0.00337457 0 0 0
-0.0365138 0 0.000190564 6.27622e-06 -1.91112e-06 8.62022e-07
0.0365138 9.03502e-21 0.000190552 0.00274445 -0.000979792 2.22404e-05
-0.0365218 2.71051e-20 0.000861999 0.00103388 -0.000441636 5.10689e-06
0.0365219 0 0.000861929 0.0140927 -0.00503844 0.000117739
-0.0365244 0 0.00149847 0.00166577 -0.000762977 3.32185e-05
0.0365244 0 0.00149841 0.0197419 -0.00709141 0.000402943
0.0365145 0 0.00218148 0.0205797 -0.00712498 0.000663024
-0.0365145 5.42101e-20 0.00218151 0.0017734 -0.000791018 5.05149e-05
-0.0364788 -1.35525e-20 0.00289752 0.00105659 -0.000488751 5.09232e-05
0.0364788 1.35525e-20 0.00289755 0.0121133 -0.00402587 0.000371373
-0.0366526 0 8.42588e-11 0 0 0
0.0366527 0 8.42553e-11 0 0 0
-0.036569 -5.42101e-21 0.00323416 0.000476201 -0.000220506 2.33948e-05
0.036569 1.35525e-20 0.00323419 0.0055285 -0.00179155 0.000169985
-0.0365532 -1.35525e-20 0.00341957 0 0 0
0.0365533 -1.35525e-20 0.00341959 0 0 0
-0.0367898 1.58113e-20 0.000598955 0.000603867 -0.000257512 5.49577e-07
0.0367898 2.25875e-21 0.000598917 0.00976927 -0.00351653 8.57512e-05
-0.036834 0 5.5588e-11 0 0 0
0.0368341 0 5.55862e-11 0 0 0
-0.0368407 2.25875e-21 0.00116968 0.00143027 -0.000638645 1.69936e-05
0.0368407 2.25875e-21 0.00116963 0.0171754 -0.00620417 0.000277621
0.0368348 -4.51751e-21 0.00184465 0.0208738 -0.00740487 0.000590189
-0.0368348 6.77626e-21 0.00184468 0.0018596 -0.000841045 4.34063e-05
0.0368045 1.58113e-20 0.00255346 0.0174338 -0.00592693 0.000616033
-0.0368045 -2.25875e-21 0.00255346 0.00158609 -0.00070661 5.28357e-05
0.0367777 -2.71051e-20 0.00346047 0 0 0
-0.0367777 2.71051e-20 0.00346047 0 0 0
-0.0368393 1.35525e-21 0.00303407 0.000986186 -0.000441887 4.30554e-05
0.0368393 1.35525e-21 0.00303408 0.0108612 -0.00352709 0.000380741
-0.0370199 1.35525e-20 4.78303e-11 0 0 0
0.0370199 -1.35525e-20 4.78279e-11 0 0 0
-0.0371489 -2.25875e-21 0.000281507 0.000124348 -5.32674e-05 2.20522e-06
0.0371489 2.25875e-21 0.000281494 0.00457657 -0.00170361 4.24103e-05
0.0371548 -2.71051e-20 0.000855626 0.0144552 -0.00521751 0.000135858
-0.0371548 0 0.000855666 0.0011415 -0.000488192 -5.74047e-06
0.0371549 2.71051e-20 0.00149516 0.0206989 -0.0075689 0.00046139
-0.0371549 0 0.00149519 0.00190709 -0.00087417 3.65107e-05
0.0371441 0 0.00218077 0.02256 -0.00786772 0.0008355
-0.0371441 -2.71051e-20 0.00218078 0.00209796 -0.000940766 5.37746e-05
0.0370564 6.77626e-21 0.00351129 0 0 0
-0.0370564 -1.35525e-20 0.00351131 0 0 0
0.03727 0 2.98638e-11 0 0 0
-0.03727 0 2.9863e-11 0 0 0
-0.0371712 2.71051e-20 0.00278261 0.00161515 -0.000714014 5.76128e-05
0.0371713 2.71051e-20 0.00278261 0.0172214 -0.00569656 0.000691704
-0.0371159 -1.35525e-20 0.00352216 0 0 0
0.037116 -1.69407e-20 0.00352218 0 0 0
-0.0371348 -4.51751e-21 0.00333173 0.000509064 -0.000243618 2.62441e-05
0.0371348 0 0.00333177 0.00553251 -0.00171258 0.000257001
-0.0374605 0 2.22234e-11 0 0 0
0.0374605 0 2.22235e-11 0 0 0
-0.0374674 4.51751e-21 0.000637841 0.000805147 -0.000350839 -6.95325e-06
0.0374674 1.807e-20 0.000637823 0.0111667 -0.00406424 0.000129415
0.0374702 -4.51751e-21 0.00116461 0.0178288 -0.00651938 0.000338554
-0.0374702 -2.25875e-21 0.00116464 0.00161132 -0.000726168 1.00466e-05
0.0374665 0 0.00183966 0.0223267 -0.00799581 0.000718199
-0.0374665 -3.38813e-21 0.00183967 0.0021636 -0.000980082 4.31684e-05
-0.0374682 -1.12938e-21 0.00249666 0.00202779 -0.000900499 5.64108e-05
0.0374682 0 0.00249666 0.0208294 -0.00707719 0.000867324
-0.0374675 0 0.00307365 0.00123826 -0.000557971 4.78786e-05
0.0374675 1.88079e-37 0.00307365 0.012697 -0.00410275 0.000573155
-0.0374246 2.71051e-20 0.00357844 0 0 0
0.0374247 1.35525e-20 0.00357845 0 0 0
-0.0376529 -2.71051e-20 1.86806e-11 0 0 0
0.0376529 -1.35525e-20 1.86807e-11 0 0 0
-0.0377742 1.12938e-20 0.000280154 0.00013298 -5.88589e-05 2.46458e-06
0.0377742 2.25875e-21 0.000280151 0.00468134 -0.00174238 6.49481e-05
-0.0377819 0 0.000851859 0.00126034 -0.000560735 -1.53316e-05
0.0377819 2.71051e-20 0.00085184 0.0147911 -0.00535982 0.00019051
0.0377838 2.71051e-20 0.00149135 0.0217174 -0.00805732 0.000579845
-0.0377838 0 0.00149136 0.0021746 -0.000999262 2.6345e-05
-0.0376598 6.77626e-21 0.00362112 0 0 0
0.0376599 1.35525e-20 0.00362114 0 0 0
0.0377819 2.71051e-20 0.00216934 0.0243859 -0.00851697 0.000999622
-0.0377819 0 0.00216935 0.00248183 -0.00111182 5.63525e-05
0.0377773 -5.42101e-20 0.00279682 0.019939 -0.00652982 0.00097996
-0.0377773 0 0.00279681 0.00199923 -0.000874582 5.91914e-05
0.0378849 0 1.07538e-11 0 0 0
-0.0378849 0 1.07533e-11 0 0 0
-0.0377229 -6.77626e-21 0.00353461 0.000298593 -0.000146655 1.67183e-05
0.037723 -6.77626e-21 0.00353476 0.00288134 -0.000919842 0.000146102
-0.0377797 -1.12938e-21 0.00335602 0.000875785 -0.000419356 4.50444e-05
0.0377798 0 0.00335605 0.00846504 -0.00270308 0.000419425
0.0377789 0 0.00364262 0 0 0
-0.037779 -6.77626e-21 0.00364263 0 0 0
-0.0380777 2.71051e-20 7.23455e-12 0 0 0
0.0380777 0 7.23493e-12 0 0 0
-0.0380891 4.51751e-21 0.000630694 0.000875614 -0.000396816 -8.87383e-06
0.0380891 0 0.00063069 0.0113536 -0.00418385 0.000170523
-0.0380959 -6.77626e-21 0.00115829 0.0018071 -0.000824247 6.18685e-06
0.0380959 2.25875e-21 0.00115829 0.0184968 -0.00684605 0.000430318
0.0380968 -1.12938e-21 0.0018338 0.0237509 -0.0085844 0.000864974
-0.0380968 1.12938e-21 0.0018338 0.00250156 -0.00112591 4.42415e-05
-0.0379952 -1.35525e-20 0.00368181 0 0 0
0.0379952 1.35525e-20 0.00368182 0 0 0