# Solver information
# Time        	alpha.water_solver	alpha.water_initial	alpha.water_final	alpha.water_iters	alpha.water_converged	k_solver      	k_initial     	k_final       	k_iters       	k_converged   	p_rgh_solver  	p_rgh_initial 	p_rgh_final   	p_rgh_iters   	p_rgh_converged	omega_solver  	omega_initial 	omega_final   	omega_iters   	omega_converged
0.00060006    	smoothSolver	0.000000e+00	0.000000e+00	0	true	smoothSolver	1.000000e+00	1.047020e-02	1	true	GAMG	1.000000e+00	4.908720e-03	3	true	smoothSolver	1.368030e-03	1.017460e-04	1	true
0.00132005    	smoothSolver	1.480940e-04	3.730760e-09	2	true	smoothSolver	1.300420e-01	1.058540e-05	1	true	GAMG	9.234110e-04	7.306060e-06	7	true	smoothSolver	2.387740e-05	2.175610e-08	1	true
0.00218415    	smoothSolver	2.256320e-04	5.004830e-10	3	true	smoothSolver	6.051130e-02	7.091010e-06	1	true	GAMG	1.148490e-03	7.546430e-06	3	true	smoothSolver	2.841160e-05	2.738160e-08	1	true
0.0032209     	smoothSolver	1.917730e-04	4.046870e-10	3	true	smoothSolver	4.316710e-02	8.461570e-06	1	true	GAMG	1.047780e-03	8.664370e-06	3	true	smoothSolver	3.429010e-05	5.615270e-08	1	true
0.004465      	smoothSolver	2.229190e-04	7.620550e-10	3	true	smoothSolver	3.545750e-02	1.101440e-05	1	true	GAMG	1.004650e-03	6.563280e-06	3	true	smoothSolver	4.189350e-05	1.307540e-07	1	true
0.00594977    	smoothSolver	2.653640e-04	1.998020e-09	3	true	smoothSolver	3.128250e-02	1.618590e-05	1	true	GAMG	1.100490e-03	4.516160e-06	3	true	smoothSolver	5.189940e-05	3.049700e-07	1	true
0.00771286    	smoothSolver	3.147810e-04	5.158910e-09	3	true	smoothSolver	2.894370e-02	2.366760e-05	1	true	GAMG	1.244910e-03	1.136950e-05	2	true	smoothSolver	6.567850e-05	8.013800e-07	1	true
0.00977314    	smoothSolver	3.769950e-04	3.078900e-10	4	true	smoothSolver	2.744970e-02	3.710390e-05	1	true	GAMG	1.397820e-03	1.290600e-05	2	true	smoothSolver	8.533620e-05	1.844980e-06	1	true
0.0121368     	smoothSolver	4.410020e-04	8.592360e-10	4	true	smoothSolver	2.647650e-02	5.568230e-05	1	true	GAMG	1.559280e-03	1.443140e-05	2	true	smoothSolver	1.122880e-04	2.905880e-06	1	true
0.0148015     	smoothSolver	5.055100e-04	3.077770e-09	4	true	smoothSolver	2.593840e-02	8.660850e-05	1	true	GAMG	1.651150e-03	1.566060e-05	2	true	smoothSolver	1.533270e-04	6.022350e-06	1	true
0.0177645     	smoothSolver	5.718580e-04	5.602200e-09	4	true	smoothSolver	2.588350e-02	1.325770e-04	1	true	GAMG	1.761170e-03	1.646040e-05	2	true	smoothSolver	2.139700e-04	1.192900e-05	1	true
0.0210793     	smoothSolver	6.564280e-04	1.189410e-09	5	true	smoothSolver	2.676870e-02	2.059220e-04	1	true	GAMG	1.686010e-03	1.639700e-05	2	true	smoothSolver	2.907720e-04	2.059020e-05	1	true
0.0248343     	smoothSolver	7.460060e-04	2.850470e-09	5	true	smoothSolver	2.858720e-02	3.305470e-04	1	true	GAMG	1.737020e-03	6.387040e-06	3	true	smoothSolver	3.912600e-04	3.481990e-05	1	true
0.0291096     	smoothSolver	8.265530e-04	8.283170e-09	5	true	smoothSolver	3.135980e-02	5.466270e-04	1	true	GAMG	2.097160e-03	2.078510e-05	2	true	smoothSolver	5.177440e-04	1.081100e-05	2	true
0.033988      	smoothSolver	9.212990e-04	2.450540e-09	6	true	smoothSolver	3.524620e-02	8.849240e-04	1	true	GAMG	2.285760e-03	8.184010e-06	3	true	smoothSolver	6.891520e-04	1.783790e-05	2	true
0.0395417     	smoothSolver	1.015390e-03	6.215000e-09	6	true	smoothSolver	4.042070e-02	1.397810e-03	1	true	GAMG	2.661890e-03	2.621680e-05	2	true	smoothSolver	8.694580e-04	2.526470e-05	2	true
0.0458253     	smoothSolver	1.118470e-03	1.890360e-09	7	true	smoothSolver	4.705650e-02	2.134130e-03	1	true	GAMG	3.097560e-03	3.086120e-05	2	true	smoothSolver	1.042440e-03	3.370730e-05	2	true
0.0529314     	smoothSolver	1.250920e-03	4.843020e-09	7	true	smoothSolver	5.563990e-02	3.254540e-03	1	true	GAMG	3.341390e-03	3.202650e-05	2	true	smoothSolver	1.248190e-03	4.437340e-05	2	true
0.0609771     	smoothSolver	1.415910e-03	9.363040e-09	7	true	smoothSolver	6.664640e-02	4.925740e-03	1	true	GAMG	3.409240e-03	1.079120e-05	3	true	smoothSolver	1.507590e-03	5.757610e-05	2	true
0.0701234     	smoothSolver	1.592960e-03	3.503630e-09	8	true	smoothSolver	7.968640e-02	7.467970e-03	1	true	GAMG	3.411990e-03	1.527250e-05	3	true	smoothSolver	1.855220e-03	7.885330e-05	2	true
0.0804991     	smoothSolver	1.872910e-03	6.852460e-09	8	true	smoothSolver	9.422290e-02	2.660180e-03	2	true	GAMG	3.225640e-03	1.583750e-05	3	true	smoothSolver	2.317680e-03	1.056950e-04	2	true
0.0923479     	smoothSolver	2.192310e-03	3.434210e-09	9	true	smoothSolver	1.139650e-01	4.544500e-03	2	true	GAMG	3.584180e-03	1.459920e-05	3	true	smoothSolver	2.921450e-03	1.564570e-04	2	true
0.105877      	smoothSolver	2.602940e-03	9.665970e-09	9	true	smoothSolver	1.398910e-01	8.016520e-03	2	true	GAMG	3.741960e-03	1.743920e-05	3	true	smoothSolver	3.726760e-03	2.329240e-04	2	true
0.121153      	smoothSolver	2.909680e-03	6.562870e-09	10	true	smoothSolver	1.762550e-01	1.414310e-02	2	true	GAMG	3.911120e-03	1.957020e-05	3	true	smoothSolver	4.736630e-03	3.448420e-04	2	true
0.13749       	smoothSolver	3.005550e-03	2.921950e-09	11	true	smoothSolver	2.223380e-01	2.211740e-02	2	true	GAMG	3.926780e-03	2.048920e-05	3	true	smoothSolver	5.896130e-03	4.471690e-04	2	true
0.152633      	smoothSolver	2.702840e-03	6.984060e-09	10	true	smoothSolver	2.202770e-01	8.976610e-03	3	true	GAMG	3.584460e-03	1.979960e-05	3	true	smoothSolver	6.442410e-03	4.551160e-04	2	true
0.166953      	smoothSolver	2.497840e-03	5.015230e-09	10	true	smoothSolver	2.125300e-01	9.922670e-03	3	true	GAMG	3.489570e-03	1.939790e-05	3	true	smoothSolver	7.259700e-03	5.305260e-04	2	true
0.180432      	smoothSolver	2.339460e-03	4.007870e-09	10	true	smoothSolver	2.159650e-01	1.083090e-02	3	true	GAMG	3.505780e-03	1.944670e-05	3	true	smoothSolver	8.225370e-03	6.511120e-04	2	true
0.193156      	smoothSolver	2.228960e-03	3.209910e-09	10	true	smoothSolver	2.251400e-01	1.195340e-02	3	true	GAMG	3.506600e-03	1.944520e-05	3	true	smoothSolver	9.514350e-03	8.191850e-04	2	true
0.204449      	smoothSolver	2.030430e-03	6.009930e-09	9	true	smoothSolver	2.239340e-01	1.122160e-02	3	true	GAMG	3.331780e-03	1.819040e-05	3	true	smoothSolver	1.042200e-02	9.284960e-04	2	true
0.214768      	smoothSolver	1.887110e-03	4.556820e-09	9	true	smoothSolver	2.258590e-01	1.105250e-02	3	true	GAMG	3.300790e-03	1.802790e-05	3	true	smoothSolver	1.165600e-02	1.071920e-03	2	true
0.224115      	smoothSolver	1.746110e-03	8.947170e-09	8	true	smoothSolver	2.270920e-01	1.075740e-02	3	true	GAMG	3.505060e-03	1.897220e-05	3	true	smoothSolver	1.301200e-02	1.234310e-03	2	true
0.232863      	smoothSolver	1.665820e-03	6.703790e-09	8	true	smoothSolver	2.377950e-01	1.108460e-02	3	true	GAMG	3.435800e-03	1.854420e-05	3	true	smoothSolver	1.506760e-02	1.439070e-03	2	true
0.241525      	smoothSolver	1.679490e-03	5.738580e-09	8	true	smoothSolver	2.609930e-01	1.259330e-02	3	true	GAMG	3.493950e-03	1.973120e-05	3	true	smoothSolver	1.830320e-02	7.309680e-04	3	true
0.250318      	smoothSolver	1.733010e-03	9.090420e-09	8	true	smoothSolver	2.896570e-01	1.522720e-02	3	true	GAMG	3.297000e-03	1.871990e-05	3	true	smoothSolver	2.320400e-02	9.967280e-04	3	true
0.25861       	smoothSolver	1.623240e-03	8.751660e-09	8	true	smoothSolver	2.951150e-01	1.507520e-02	3	true	GAMG	3.410630e-03	1.788250e-05	3	true	smoothSolver	2.726520e-02	1.075150e-03	3	true
0.26649       	smoothSolver	1.527140e-03	8.509750e-09	8	true	smoothSolver	2.962030e-01	1.501240e-02	3	true	GAMG	3.356050e-03	1.740990e-05	3	true	smoothSolver	3.126580e-02	2.857240e-03	2	true
0.274194      	smoothSolver	1.490580e-03	8.964580e-09	8	true	smoothSolver	2.997080e-01	1.363330e-02	3	true	GAMG	3.391750e-03	1.631810e-05	3	true	smoothSolver	3.608460e-02	2.953860e-03	2	true
0.281899      	smoothSolver	1.495100e-03	3.848820e-09	9	true	smoothSolver	2.858390e-01	1.139670e-02	3	true	GAMG	3.392210e-03	1.704900e-05	3	true	smoothSolver	3.998570e-02	2.641760e-03	2	true
0.28989       	smoothSolver	1.552030e-03	5.007710e-09	9	true	smoothSolver	2.763090e-01	1.210230e-02	3	true	GAMG	3.609630e-03	1.862170e-05	3	true	smoothSolver	4.337960e-02	2.521990e-03	2	true
0.298072      	smoothSolver	1.586040e-03	6.613480e-09	9	true	smoothSolver	2.599190e-01	1.231570e-02	3	true	GAMG	3.885700e-03	1.881820e-05	3	true	smoothSolver	4.428120e-02	2.560600e-03	2	true
0.306334      	smoothSolver	1.593420e-03	6.065900e-09	9	true	smoothSolver	2.432600e-01	1.146690e-02	3	true	GAMG	3.895590e-03	1.828690e-05	3	true	smoothSolver	4.363530e-02	2.761960e-03	2	true
0.315201      	smoothSolver	1.704670e-03	8.664640e-09	9	true	smoothSolver	2.327710e-01	1.206930e-02	3	true	GAMG	4.279400e-03	2.058810e-05	3	true	smoothSolver	4.474350e-02	3.314440e-03	2	true
0.324358      	smoothSolver	1.753490e-03	9.709860e-09	9	true	smoothSolver	2.152880e-01	1.163300e-02	3	true	GAMG	4.464150e-03	2.085100e-05	3	true	smoothSolver	4.367850e-02	3.798690e-03	2	true
0.333667      	smoothSolver	1.774600e-03	8.232210e-09	9	true	smoothSolver	1.927120e-01	1.144190e-02	3	true	GAMG	4.518870e-03	2.060360e-05	3	true	smoothSolver	4.202650e-02	1.910640e-03	3	true
0.343189      	smoothSolver	1.805590e-03	8.514480e-09	9	true	smoothSolver	1.750940e-01	1.178000e-02	3	true	GAMG	4.507610e-03	2.023500e-05	3	true	smoothSolver	4.049580e-02	2.029760e-03	3	true
0.35323       	smoothSolver	1.899780e-03	4.930090e-09	10	true	smoothSolver	1.664340e-01	1.281810e-02	3	true	GAMG	4.533040e-03	2.253160e-05	3	true	smoothSolver	4.135450e-02	2.395350e-03	3	true
0.363395      	smoothSolver	1.919270e-03	5.230200e-09	10	true	smoothSolver	1.529140e-01	1.297470e-02	3	true	GAMG	4.448890e-03	2.215840e-05	3	true	smoothSolver	4.060170e-02	2.534200e-03	3	true
0.373195      	smoothSolver	1.853120e-03	9.806790e-09	9	true	smoothSolver	1.333100e-01	1.209480e-02	3	true	GAMG	4.278850e-03	2.173690e-05	3	true	smoothSolver	3.780900e-02	2.412230e-03	3	true
0.382709      	smoothSolver	1.803910e-03	6.374150e-09	9	true	smoothSolver	1.222540e-01	1.213990e-02	3	true	GAMG	4.140520e-03	2.132470e-05	3	true	smoothSolver	3.642150e-02	2.412400e-03	3	true
0.392222      	smoothSolver	1.808710e-03	4.842160e-09	9	true	smoothSolver	1.212160e-01	7.727580e-03	4	true	GAMG	4.155970e-03	2.175920e-05	3	true	smoothSolver	3.630460e-02	2.603650e-03	3	true
0.401056      	smoothSolver	1.686310e-03	6.496920e-09	8	true	smoothSolver	1.147780e-01	7.606910e-03	4	true	GAMG	3.979100e-03	2.052120e-05	3	true	smoothSolver	3.444830e-02	2.398320e-03	3	true
0.410246      	smoothSolver	1.768580e-03	6.459750e-09	8	true	smoothSolver	1.148560e-01	7.791150e-03	4	true	GAMG	4.140360e-03	2.098380e-05	3	true	smoothSolver	3.571570e-02	2.522360e-03	3	true
0.419765      	smoothSolver	1.855750e-03	6.314610e-09	8	true	smoothSolver	1.085680e-01	6.937940e-03	4	true	GAMG	4.244980e-03	2.159210e-05	3	true	smoothSolver	3.522280e-02	2.646780e-03	3	true
0.42983       	smoothSolver	1.979280e-03	7.523460e-09	8	true	smoothSolver	1.032510e-01	7.283980e-03	4	true	GAMG	4.336290e-03	2.168890e-05	3	true	smoothSolver	3.486630e-02	2.908010e-03	3	true
0.440734      	smoothSolver	2.150790e-03	4.692110e-09	9	true	smoothSolver	9.804020e-02	8.579830e-03	4	true	GAMG	4.448280e-03	2.264470e-05	3	true	smoothSolver	3.490280e-02	3.425480e-03	3	true
0.452916      	smoothSolver	2.398660e-03	9.075930e-09	9	true	smoothSolver	9.443800e-02	7.019330e-03	5	true	GAMG	4.546430e-03	2.315890e-05	3	true	smoothSolver	3.550590e-02	2.578920e-03	4	true
0.466487      	smoothSolver	2.665840e-03	6.965420e-09	10	true	smoothSolver	9.118590e-02	8.847080e-03	5	true	GAMG	4.608270e-03	2.417610e-05	3	true	smoothSolver	3.589500e-02	2.963180e-03	4	true
0.48167       	smoothSolver	2.982130e-03	5.499580e-09	11	true	smoothSolver	8.983050e-02	7.641100e-03	6	true	GAMG	4.684150e-03	2.489660e-05	3	true	smoothSolver	3.670710e-02	3.309000e-03	4	true
0.496703      	smoothSolver	3.026180e-03	4.392420e-09	11	true	smoothSolver	8.115450e-02	7.021760e-03	6	true	GAMG	4.506400e-03	2.452880e-05	3	true	smoothSolver	3.417040e-02	2.980360e-03	4	true
0.511888      	smoothSolver	3.134270e-03	8.812610e-09	10	true	smoothSolver	7.755100e-02	6.648250e-03	6	true	GAMG	4.455840e-03	2.357040e-05	3	true	smoothSolver	3.291750e-02	2.718200e-03	4	true
0.527552      	smoothSolver	3.305010e-03	8.026260e-09	10	true	smoothSolver	7.602350e-02	6.483870e-03	6	true	GAMG	4.504780e-03	2.413990e-05	3	true	smoothSolver	3.240240e-02	2.484070e-03	4	true
0.544674      	smoothSolver	3.713800e-03	8.458750e-09	10	true	smoothSolver	7.771810e-02	6.908550e-03	6	true	GAMG	4.672820e-03	2.574760e-05	3	true	smoothSolver	3.278170e-02	2.572200e-03	4	true
0.562865      	smoothSolver	4.006350e-03	7.412910e-09	10	true	smoothSolver	7.644500e-02	7.057030e-03	6	true	GAMG	4.726340e-03	2.649150e-05	3	true	smoothSolver	3.150550e-02	2.748490e-03	4	true
0.58083       	smoothSolver	4.007970e-03	4.401140e-09	10	true	smoothSolver	6.874100e-02	6.469210e-03	6	true	GAMG	4.624650e-03	2.624560e-05	3	true	smoothSolver	2.870370e-02	2.586520e-03	4	true
0.599024      	smoothSolver	4.086970e-03	3.650910e-09	10	true	smoothSolver	6.268690e-02	4.834520e-03	7	true	GAMG	4.555070e-03	2.642290e-05	3	true	smoothSolver	2.707000e-02	2.517560e-03	4	true
0.617219      	smoothSolver	4.125440e-03	3.230150e-09	10	true	smoothSolver	5.622450e-02	4.625960e-03	7	true	GAMG	4.617260e-03	2.633300e-05	3	true	smoothSolver	2.536180e-02	2.350490e-03	4	true
0.635905      	smoothSolver	4.270050e-03	4.469570e-09	10	true	smoothSolver	5.272780e-02	4.618800e-03	7	true	GAMG	4.766560e-03	2.716900e-05	3	true	smoothSolver	2.441760e-02	2.281190e-03	4	true
0.655117      	smoothSolver	4.457640e-03	6.486320e-09	10	true	smoothSolver	5.026830e-02	4.566050e-03	7	true	GAMG	4.781880e-03	2.763410e-05	3	true	smoothSolver	2.383970e-02	2.165180e-03	4	true
0.674895      	smoothSolver	4.763290e-03	9.242010e-09	10	true	smoothSolver	4.858440e-02	4.483780e-03	7	true	GAMG	4.761550e-03	2.657480e-05	3	true	smoothSolver	2.336620e-02	2.045390e-03	4	true
0.695281      	smoothSolver	5.156510e-03	4.623750e-09	11	true	smoothSolver	4.735250e-02	4.391650e-03	7	true	GAMG	4.720710e-03	2.689370e-05	3	true	smoothSolver	2.305120e-02	1.925730e-03	4	true
0.716325      	smoothSolver	5.684850e-03	7.763580e-09	11	true	smoothSolver	4.661310e-02	4.306730e-03	7	true	GAMG	4.555280e-03	2.587110e-05	3	true	smoothSolver	2.294360e-02	1.822550e-03	4	true
0.738457      	smoothSolver	6.390330e-03	4.772140e-09	12	true	smoothSolver	4.677670e-02	4.393140e-03	7	true	GAMG	4.424360e-03	2.670170e-05	3	true	smoothSolver	2.336130e-02	1.785830e-03	4	true
0.760985      	smoothSolver	6.988330e-03	5.569680e-09	12	true	smoothSolver	4.564300e-02	4.154570e-03	7	true	GAMG	4.184010e-03	2.606830e-05	3	true	smoothSolver	2.321140e-02	1.640530e-03	4	true
0.784363      	smoothSolver	7.747330e-03	9.827330e-09	12	true	smoothSolver	4.520160e-02	4.100060e-03	7	true	GAMG	4.028140e-03	2.554650e-05	3	true	smoothSolver	2.357290e-02	1.577600e-03	4	true
0.80774       	smoothSolver	8.369890e-03	4.184180e-09	13	true	smoothSolver	4.370410e-02	3.744250e-03	7	true	GAMG	3.793050e-03	2.395160e-05	3	true	smoothSolver	2.329400e-02	2.167920e-03	3	true
0.827286      	smoothSolver	7.554960e-03	4.300080e-09	12	true	smoothSolver	3.584770e-02	2.995020e-03	6	true	GAMG	3.349810e-03	2.056140e-05	3	true	smoothSolver	1.974610e-02	1.439380e-03	3	true
0.849412      	smoothSolver	8.709220e-03	4.220610e-09	13	true	smoothSolver	3.913620e-02	3.682380e-03	6	true	GAMG	3.331480e-03	2.128330e-05	3	true	smoothSolver	2.250800e-02	1.748620e-03	3	true
0.872424      	smoothSolver	9.863990e-03	6.486480e-09	13	true	smoothSolver	3.946670e-02	3.689420e-03	6	true	GAMG	3.373070e-03	2.169210e-05	3	true	smoothSolver	2.373260e-02	1.780230e-03	3	true
0.894108      	smoothSolver	1.003660e-02	4.467280e-09	13	true	smoothSolver	3.639760e-02	2.938900e-03	6	true	GAMG	3.283590e-03	2.072100e-05	3	true	smoothSolver	2.293760e-02	1.494750e-03	3	true
0.915375      	smoothSolver	1.028160e-02	4.218310e-09	13	true	smoothSolver	3.501390e-02	2.564350e-03	6	true	GAMG	3.247600e-03	1.971470e-05	3	true	smoothSolver	2.309310e-02	1.369560e-03	3	true
0.936233      	smoothSolver	1.061690e-02	4.046520e-09	13	true	smoothSolver	3.397990e-02	3.186290e-03	5	true	GAMG	3.236710e-03	1.917810e-05	3	true	smoothSolver	2.337860e-02	1.265330e-03	3	true
0.957092      	smoothSolver	1.102350e-02	4.535370e-09	13	true	smoothSolver	3.390360e-02	2.967160e-03	5	true	GAMG	3.236910e-03	1.937150e-05	3	true	smoothSolver	2.421020e-02	1.225330e-03	3	true
0.978819      	smoothSolver	1.199620e-02	7.716940e-09	13	true	smoothSolver	3.547770e-02	3.043760e-03	5	true	GAMG	3.266730e-03	1.912900e-05	3	true	smoothSolver	2.618540e-02	1.320640e-03	3	true
1.00055       	smoothSolver	1.274110e-02	8.923560e-09	13	true	smoothSolver	3.650790e-02	2.842590e-03	5	true	GAMG	3.307040e-03	1.833780e-05	3	true	smoothSolver	2.735880e-02	1.317500e-03	3	true
1.02094       	smoothSolver	1.250450e-02	6.035700e-09	13	true	smoothSolver	3.617590e-02	3.498580e-03	4	true	GAMG	3.298970e-03	1.725600e-05	3	true	smoothSolver	2.715490e-02	2.549440e-03	2	true
1.04052       	smoothSolver	1.219840e-02	5.051150e-09	13	true	smoothSolver	3.725740e-02	3.122420e-03	4	true	GAMG	3.248120e-03	1.601840e-05	3	true	smoothSolver	2.776890e-02	2.568030e-03	2	true
1.05829       	smoothSolver	1.127830e-02	8.132410e-09	12	true	smoothSolver	3.718280e-02	2.497520e-03	4	true	GAMG	3.142590e-03	1.477850e-05	3	true	smoothSolver	2.679770e-02	2.309070e-03	2	true
1.07511       	smoothSolver	1.075770e-02	6.796160e-09	12	true	smoothSolver	3.885720e-02	2.247800e-03	4	true	GAMG	3.008770e-03	1.453620e-05	3	true	smoothSolver	2.659620e-02	2.281350e-03	2	true
1.09192       	smoothSolver	1.090110e-02	9.802470e-09	12	true	smoothSolver	4.246900e-02	2.381510e-03	4	true	GAMG	2.933560e-03	1.478260e-05	3	true	smoothSolver	2.764290e-02	2.513080e-03	2	true
1.10844       	smoothSolver	1.101900e-02	4.836140e-09	13	true	smoothSolver	4.568160e-02	2.537530e-03	4	true	GAMG	2.889250e-03	1.464640e-05	3	true	smoothSolver	2.812620e-02	2.734150e-03	2	true
1.12381       	smoothSolver	1.046610e-02	5.012340e-09	13	true	smoothSolver	4.736230e-02	2.540140e-03	4	true	GAMG	2.843110e-03	1.418710e-05	3	true	smoothSolver	2.745380e-02	2.706440e-03	2	true
1.13794       	smoothSolver	9.844170e-03	4.497500e-09	13	true	smoothSolver	4.935230e-02	4.830010e-03	3	true	GAMG	2.838440e-03	1.399720e-05	3	true	smoothSolver	2.676640e-02	2.602990e-03	2	true
1.15062       	smoothSolver	9.025930e-03	9.314530e-09	12	true	smoothSolver	4.991930e-02	4.529770e-03	3	true	GAMG	2.887650e-03	1.341980e-05	3	true	smoothSolver	2.544310e-02	2.327460e-03	2	true
1.16225       	smoothSolver	8.444110e-03	7.243320e-09	12	true	smoothSolver	5.149020e-02	4.488880e-03	3	true	GAMG	3.018670e-03	1.355170e-05	3	true	smoothSolver	2.497340e-02	2.221320e-03	2	true
1.17357       	smoothSolver	8.445670e-03	7.353270e-09	12	true	smoothSolver	5.644110e-02	5.033030e-03	3	true	GAMG	3.231320e-03	1.446720e-05	3	true	smoothSolver	2.591800e-02	2.425550e-03	2	true
1.18474       	smoothSolver	8.643300e-03	8.718930e-09	12	true	smoothSolver	6.276920e-02	5.904240e-03	3	true	GAMG	3.377290e-03	1.483810e-05	3	true	smoothSolver	2.754810e-02	1.218920e-03	3	true
1.19691       	smoothSolver	9.799960e-03	7.287060e-09	13	true	smoothSolver	7.768950e-02	4.554620e-03	4	true	GAMG	3.568250e-03	1.548800e-05	3	true	smoothSolver	3.193100e-02	1.706960e-03	3	true
1.20872       	smoothSolver	9.990180e-03	6.157850e-09	13	true	smoothSolver	8.682530e-02	5.038200e-03	4	true	GAMG	3.591440e-03	1.539140e-05	3	true	smoothSolver	3.539610e-02	2.152040e-03	3	true
1.22053       	smoothSolver	1.029470e-02	6.709510e-09	13	true	smoothSolver	1.056430e-01	6.883020e-03	4	true	GAMG	3.676510e-03	1.553040e-05	3	true	smoothSolver	4.084760e-02	2.899260e-03	3	true
1.23199       	smoothSolver	1.031080e-02	7.857130e-09	13	true	smoothSolver	1.288820e-01	9.504480e-03	4	true	GAMG	3.645160e-03	1.519700e-05	3	true	smoothSolver	4.672740e-02	3.661720e-03	3	true
1.24266       	smoothSolver	9.829780e-03	6.878520e-09	13	true	smoothSolver	1.474910e-01	1.101400e-02	4	true	GAMG	3.554210e-03	1.448670e-05	3	true	smoothSolver	4.939610e-02	3.551850e-03	3	true
1.25333       	smoothSolver	9.948000e-03	8.159820e-09	13	true	smoothSolver	1.618250e-01	1.220900e-02	4	true	GAMG	3.565960e-03	1.460620e-05	3	true	smoothSolver	5.022080e-02	3.239920e-03	3	true
1.26315       	smoothSolver	9.308750e-03	9.385140e-09	12	true	smoothSolver	1.425250e-01	8.878070e-03	4	true	GAMG	3.455890e-03	1.383740e-05	3	true	smoothSolver	4.191510e-02	3.887090e-03	2	true
1.27162       	smoothSolver	8.013160e-03	7.166300e-09	11	true	smoothSolver	1.067580e-01	9.591550e-03	3	true	GAMG	3.284010e-03	1.301910e-05	3	true	smoothSolver	3.288860e-02	1.944720e-03	3	true
1.27905       	smoothSolver	6.979730e-03	6.729090e-09	10	true	smoothSolver	7.985250e-02	5.058430e-03	4	true	GAMG	3.161400e-03	1.171480e-05	3	true	smoothSolver	2.671410e-02	1.973500e-03	3	true
1.28555       	smoothSolver	6.114510e-03	8.962280e-09	9	true	smoothSolver	5.936860e-02	4.366580e-03	4	true	GAMG	2.976340e-03	1.092800e-05	3	true	smoothSolver	2.243270e-02	1.587240e-03	3	true
1.29131       	smoothSolver	5.447830e-03	3.791280e-09	9	true	smoothSolver	4.714640e-02	3.385170e-03	4	true	GAMG	2.895500e-03	1.066270e-05	3	true	smoothSolver	1.911810e-02	1.156230e-03	3	true
1.29648       	smoothSolver	4.951590e-03	7.345540e-09	8	true	smoothSolver	3.888970e-02	2.498660e-03	4	true	GAMG	2.841350e-03	1.007550e-05	3	true	smoothSolver	1.645690e-02	8.076060e-04	3	true
1.30117       	smoothSolver	4.525360e-03	3.443770e-09	8	true	smoothSolver	3.322030e-02	1.822060e-03	4	true	GAMG	2.770270e-03	9.710490e-06	3	true	smoothSolver	1.432470e-02	1.228830e-03	2	true
1.30543       	smoothSolver	4.153920e-03	8.662920e-09	7	true	smoothSolver	2.849830e-02	2.436460e-03	3	true	GAMG	2.668600e-03	9.417700e-06	3	true	smoothSolver	1.265810e-02	9.126210e-04	2	true
1.30936       	smoothSolver	3.863530e-03	4.948070e-09	7	true	smoothSolver	2.499950e-02	1.830650e-03	3	true	GAMG	2.638020e-03	9.347710e-06	3	true	smoothSolver	1.133250e-02	6.881610e-04	2	true
1.31301       	smoothSolver	3.626490e-03	3.014280e-09	7	true	smoothSolver	2.220940e-02	1.394020e-03	3	true	GAMG	2.583500e-03	8.755440e-06	3	true	smoothSolver	1.026380e-02	5.287040e-04	2	true
1.31643       	smoothSolver	3.423480e-03	1.783320e-09	7	true	smoothSolver	1.990690e-02	1.064630e-03	3	true	GAMG	2.579600e-03	8.637100e-06	3	true	smoothSolver	9.371120e-03	4.094870e-04	2	true
1.31965       	smoothSolver	3.255110e-03	7.667820e-09	6	true	smoothSolver	1.803370e-02	8.283510e-04	3	true	GAMG	2.504010e-03	8.559640e-06	3	true	smoothSolver	8.648150e-03	3.238620e-04	2	true
1.3227        	smoothSolver	3.103090e-03	5.186950e-09	6	true	smoothSolver	1.647440e-02	1.625470e-03	2	true	GAMG	2.504630e-03	2.416750e-05	2	true	smoothSolver	8.042690e-03	2.582720e-04	2	true
1.32561       	smoothSolver	2.973530e-03	3.737680e-09	6	true	smoothSolver	1.522550e-02	1.368820e-03	2	true	GAMG	2.454060e-03	2.345330e-05	2	true	smoothSolver	7.537780e-03	2.108760e-04	2	true
1.3284        	smoothSolver	2.865720e-03	2.763680e-09	6	true	smoothSolver	1.414970e-02	1.165450e-03	2	true	GAMG	2.424050e-03	2.336110e-05	2	true	smoothSolver	7.116060e-03	1.749560e-04	2	true
1.33107       	smoothSolver	2.768930e-03	2.075550e-09	6	true	smoothSolver	1.327830e-02	1.002660e-03	2	true	GAMG	2.419680e-03	2.283220e-05	2	true	smoothSolver	6.732840e-03	6.660220e-04	1	true
1.33367       	smoothSolver	2.691790e-03	1.670090e-09	6	true	smoothSolver	1.260830e-02	8.745630e-04	2	true	GAMG	2.369120e-03	2.286430e-05	2	true	smoothSolver	6.492040e-03	6.107430e-04	1	true
1.33617       	smoothSolver	2.608240e-03	1.250270e-09	6	true	smoothSolver	1.193710e-02	7.559920e-04	2	true	GAMG	2.353050e-03	2.210650e-05	2	true	smoothSolver	6.239230e-03	5.541420e-04	1	true
1.33861       	smoothSolver	2.547900e-03	9.162950e-09	5	true	smoothSolver	1.139290e-02	6.665490e-04	2	true	GAMG	2.327490e-03	2.131710e-05	2	true	smoothSolver	6.039340e-03	5.115320e-04	1	true
1.34099       	smoothSolver	2.488250e-03	7.671060e-09	5	true	smoothSolver	1.087940e-02	5.883150e-04	2	true	GAMG	2.307500e-03	2.100560e-05	2	true	smoothSolver	5.857500e-03	4.726080e-04	1	true
1.34332       	smoothSolver	2.440170e-03	6.868430e-09	5	true	smoothSolver	1.044940e-02	5.249010e-04	2	true	GAMG	2.282150e-03	2.057310e-05	2	true	smoothSolver	5.712140e-03	4.419680e-04	1	true
1.3456        	smoothSolver	2.393160e-03	6.170210e-09	5	true	smoothSolver	1.004380e-02	4.680130e-04	2	true	GAMG	2.274100e-03	2.147970e-05	2	true	smoothSolver	5.572430e-03	4.129180e-04	1	true
1.34784       	smoothSolver	2.352950e-03	5.713080e-09	5	true	smoothSolver	9.675370e-03	4.216060e-04	2	true	GAMG	2.229090e-03	2.162250e-05	2	true	smoothSolver	5.455040e-03	3.889930e-04	1	true
1.35005       	smoothSolver	2.319670e-03	5.548880e-09	5	true	smoothSolver	9.389600e-03	3.838310e-04	2	true	GAMG	2.211630e-03	2.160580e-05	2	true	smoothSolver	5.367980e-03	3.705320e-04	1	true
1.35223       	smoothSolver	2.291030e-03	5.342570e-09	5	true	smoothSolver	9.092900e-03	3.493280e-04	2	true	GAMG	2.179830e-03	2.098290e-05	2	true	smoothSolver	5.277830e-03	3.521270e-04	1	true
1.35438       	smoothSolver	2.260210e-03	5.216110e-09	5	true	smoothSolver	8.808770e-03	3.181270e-04	2	true	GAMG	2.152970e-03	2.034870e-05	2	true	smoothSolver	5.183880e-03	3.350360e-04	1	true
1.35652       	smoothSolver	2.235690e-03	5.193320e-09	5	true	smoothSolver	8.578850e-03	2.929380e-04	2	true	GAMG	2.144310e-03	2.018410e-05	2	true	smoothSolver	5.115420e-03	3.217030e-04	1	true
1.35863       	smoothSolver	2.211560e-03	5.175630e-09	5	true	smoothSolver	8.382440e-03	2.701650e-04	2	true	GAMG	2.131160e-03	2.014060e-05	2	true	smoothSolver	5.056760e-03	3.097000e-04	1	true
1.36071       	smoothSolver	2.184680e-03	5.236900e-09	5	true	smoothSolver	8.186390e-03	2.493070e-04	2	true	GAMG	2.106570e-03	1.969300e-05	2	true	smoothSolver	5.002310e-03	2.984900e-04	1	true
1.36279       	smoothSolver	2.167360e-03	5.355790e-09	5	true	smoothSolver	8.013860e-03	2.324570e-04	2	true	GAMG	2.086790e-03	1.960800e-05	2	true	smoothSolver	4.961560e-03	2.900020e-04	1	true
1.36486       	smoothSolver	2.155500e-03	5.614450e-09	5	true	smoothSolver	7.863280e-03	2.188500e-04	2	true	GAMG	2.093120e-03	1.954790e-05	2	true	smoothSolver	4.931700e-03	2.840700e-04	1	true
1.36691       	smoothSolver	2.137130e-03	5.857110e-09	5	true	smoothSolver	7.729740e-03	2.047040e-04	2	true	GAMG	2.053610e-03	1.940380e-05	2	true	smoothSolver	4.896610e-03	2.776070e-04	1	true
1.36896       	smoothSolver	2.124780e-03	6.139270e-09	5	true	smoothSolver	7.602390e-03	1.931130e-04	2	true	GAMG	2.041910e-03	1.964360e-05	2	true	smoothSolver	4.881430e-03	2.732450e-04	1	true
1.37101       	smoothSolver	2.112980e-03	6.136020e-09	5	true	smoothSolver	7.477890e-03	1.824010e-04	2	true	GAMG	2.044550e-03	1.995210e-05	2	true	smoothSolver	4.863410e-03	2.691660e-04	1	true
1.37304       	smoothSolver	2.102120e-03	6.045700e-09	5	true	smoothSolver	7.369070e-03	1.730000e-04	2	true	GAMG	2.031780e-03	1.972190e-05	2	true	smoothSolver	4.843380e-03	2.655890e-04	1	true
1.37508       	smoothSolver	2.094450e-03	6.311190e-09	5	true	smoothSolver	7.287010e-03	1.658300e-04	2	true	GAMG	2.007740e-03	1.969090e-05	2	true	smoothSolver	4.843840e-03	2.641230e-04	1	true
1.37711       	smoothSolver	2.087010e-03	6.669550e-09	5	true	smoothSolver	7.218700e-03	1.592950e-04	2	true	GAMG	2.003000e-03	1.935260e-05	2	true	smoothSolver	4.845970e-03	2.630040e-04	1	true
1.37915       	smoothSolver	2.078710e-03	6.632350e-09	5	true	smoothSolver	7.150140e-03	1.534460e-04	2	true	GAMG	1.990790e-03	1.895900e-05	2	true	smoothSolver	4.848140e-03	2.617850e-04	1	true
1.38118       	smoothSolver	2.070500e-03	6.502910e-09	5	true	smoothSolver	7.092480e-03	1.484600e-04	2	true	GAMG	1.979660e-03	1.892170e-05	2	true	smoothSolver	4.851900e-03	2.610830e-04	1	true
1.38323       	smoothSolver	2.070900e-03	6.161810e-09	5	true	smoothSolver	7.068530e-03	1.455120e-04	2	true	GAMG	1.970040e-03	1.887030e-05	2	true	smoothSolver	4.883160e-03	2.634500e-04	1	true
1.38527       	smoothSolver	2.070010e-03	5.993170e-09	5	true	smoothSolver	7.051850e-03	1.428490e-04	2	true	GAMG	1.962590e-03	1.883990e-05	2	true	smoothSolver	4.915540e-03	2.662890e-04	1	true
1.38733       	smoothSolver	2.068790e-03	6.024120e-09	5	true	smoothSolver	7.019980e-03	1.402990e-04	2	true	GAMG	1.931680e-03	1.890320e-05	2	true	smoothSolver	4.940260e-03	2.689920e-04	1	true
1.3894        	smoothSolver	2.072310e-03	6.294930e-09	5	true	smoothSolver	7.020510e-03	1.396780e-04	2	true	GAMG	1.939480e-03	1.929100e-05	2	true	smoothSolver	4.982140e-03	2.742360e-04	1	true
1.39148       	smoothSolver	2.070250e-03	6.587920e-09	5	true	smoothSolver	7.001260e-03	1.377510e-04	2	true	GAMG	1.941200e-03	6.303790e-06	3	true	smoothSolver	5.012620e-03	2.776350e-04	1	true
1.39357       	smoothSolver	2.074740e-03	7.003230e-09	5	true	smoothSolver	7.006200e-03	1.374160e-04	2	true	GAMG	1.901560e-03	6.158930e-06	3	true	smoothSolver	5.054440e-03	2.834690e-04	1	true
1.39567       	smoothSolver	2.080910e-03	7.615650e-09	5	true	smoothSolver	7.018770e-03	1.371240e-04	2	true	GAMG	1.883640e-03	6.074950e-06	3	true	smoothSolver	5.097940e-03	2.897000e-04	1	true
1.39779       	smoothSolver	2.086070e-03	8.186930e-09	5	true	smoothSolver	7.046920e-03	1.370690e-04	2	true	GAMG	1.866870e-03	6.042100e-06	3	true	smoothSolver	5.151150e-03	2.966820e-04	1	true
1.39993       	smoothSolver	2.090770e-03	8.755600e-09	5	true	smoothSolver	7.068340e-03	1.372040e-04	2	true	GAMG	1.865930e-03	1.841320e-05	2	true	smoothSolver	5.201300e-03	3.041500e-04	1	true
1.40209       	smoothSolver	2.101170e-03	9.077110e-09	5	true	smoothSolver	7.106510e-03	1.390270e-04	2	true	GAMG	1.848090e-03	1.814700e-05	2	true	smoothSolver	5.264970e-03	3.145260e-04	1	true
1.40426       	smoothSolver	2.104510e-03	9.515350e-09	5	true	smoothSolver	7.117390e-03	1.392510e-04	2	true	GAMG	1.810680e-03	5.787740e-06	3	true	smoothSolver	5.313090e-03	3.233070e-04	1	true
1.40646       	smoothSolver	2.118320e-03	1.201750e-09	6	true	smoothSolver	7.154910e-03	1.413690e-04	2	true	GAMG	1.823750e-03	1.822230e-05	2	true	smoothSolver	5.374720e-03	3.350880e-04	1	true