# Force       
# CofR        : (0.000000e+00 0.000000e+00 0.000000e+00)
#
# Time        	(total_x total_y total_z)	(pressure_x pressure_y pressure_z)	(viscous_x viscous_y viscous_z)
1             	(4.538991e+00 7.816383e+00 9.599394e+02)	(4.491328e+00 7.814888e+00 9.599395e+02)	(4.766264e-02 1.494444e-03 -4.953319e-05)
2             	(3.869008e+00 6.822144e+00 9.599730e+02)	(3.833135e+00 6.826376e+00 9.599728e+02)	(3.587365e-02 -4.231438e-03 1.731570e-04)
3             	(2.328556e+00 4.255131e+00 9.600902e+02)	(2.301325e+00 4.263080e+00 9.600897e+02)	(2.723040e-02 -7.949035e-03 4.159502e-04)
