# Force       
# CofR        : (0.000000e+00 0.000000e+00 0.000000e+00)
#
# Time        	(total_x total_y total_z)	(pressure_x pressure_y pressure_z)	(viscous_x viscous_y viscous_z)
1             	(1.826810e+01 -2.903665e+02 8.997489e+02)	(1.822398e+01 -2.903705e+02 8.997498e+02)	(4.411435e-02 4.010037e-03 -9.418011e-04)
2             	(1.576586e+01 -2.931092e+02 8.998358e+02)	(1.573423e+01 -2.931060e+02 8.998365e+02)	(3.162432e-02 -3.284874e-03 -7.916075e-04)
3             	(9.681248e+00 -2.998907e+02 9.001184e+02)	(9.660054e+00 -2.998815e+02 9.001190e+02)	(2.119386e-02 -9.264707e-03 -5.823065e-04)
4             	(2.705704e+00 -3.076907e+02 9.006039e+02)	(2.690138e+00 -3.076781e+02 9.006037e+02)	(1.556568e-02 -1.253879e-02 2.197644e-04)
5             	(-2.930343e+00 -3.140387e+02 9.011490e+02)	(-2.943397e+00 -3.140256e+02 9.011477e+02)	(1.305442e-02 -1.315763e-02 1.273717e-03)
6             	(-6.132257e+00 -3.176568e+02 9.014678e+02)	(-6.145600e+00 -3.176452e+02 9.014657e+02)	(1.334252e-02 -1.164689e-02 2.188776e-03)
7             	(-6.624753e+00 -3.182208e+02 9.014175e+02)	(-6.639470e+00 -3.182114e+02 9.014147e+02)	(1.471648e-02 -9.351942e-03 2.723472e-03)
8             	(-5.430133e+00 -3.168865e+02 9.011422e+02)	(-5.446556e+00 -3.168798e+02 9.011392e+02)	(1.642311e-02 -6.784043e-03 3.064878e-03)
9             	(-3.163765e+00 -3.143371e+02 9.007085e+02)	(-3.181484e+00 -3.143326e+02 9.007054e+02)	(1.771961e-02 -4.535733e-03 3.092229e-03)
10            	(-6.920590e-01 -3.115477e+02 9.002760e+02)	(-7.102138e-01 -3.115448e+02 9.002734e+02)	(1.815476e-02 -2.933177e-03 2.669293e-03)
11            	(1.305249e+00 -3.092838e+02 8.999606e+02)	(1.287784e+00 -3.092816e+02 8.999586e+02)	(1.746541e-02 -2.252909e-03 1.945529e-03)
12            	(2.371239e+00 -3.080683e+02 8.998307e+02)	(2.355253e+00 -3.080659e+02 8.998293e+02)	(1.598620e-02 -2.417632e-03 1.376782e-03)
13            	(2.509838e+00 -3.078963e+02 8.998540e+02)	(2.495604e+00 -3.078933e+02 8.998530e+02)	(1.423392e-02 -3.016205e-03 1.063964e-03)
14            	(2.077102e+00 -3.083778e+02 9.000037e+02)	(2.064455e+00 -3.083741e+02 9.000027e+02)	(1.264749e-02 -3.698471e-03 1.052108e-03)
15            	(1.274538e+00 -3.092805e+02 9.002141e+02)	(1.263062e+00 -3.092763e+02 9.002128e+02)	(1.147524e-02 -4.239685e-03 1.334869e-03)
16            	(4.061867e-01 -3.102634e+02 9.004200e+02)	(3.954164e-01 -3.102589e+02 9.004182e+02)	(1.077034e-02 -4.533937e-03 1.848176e-03)
17            	(-2.603209e-01 -3.110204e+02 9.005625e+02)	(-2.707751e-01 -3.110158e+02 9.005600e+02)	(1.045424e-02 -4.553686e-03 2.451621e-03)
18            	(-6.319492e-01 -3.114446e+02 9.006225e+02)	(-6.423685e-01 -3.114403e+02 9.006195e+02)	(1.041923e-02 -4.359108e-03 3.010429e-03)
19            	(-6.980649e-01 -3.115216e+02 9.006063e+02)	(-7.085930e-01 -3.115176e+02 9.006029e+02)	(1.052815e-02 -4.015610e-03 3.418082e-03)
20            	(-5.708390e-01 -3.113785e+02 9.005424e+02)	(-5.815052e-01 -3.113749e+02 9.005388e+02)	(1.066619e-02 -3.610584e-03 3.677656e-03)
21            	(-3.333814e-01 -3.111089e+02 9.004546e+02)	(-3.441075e-01 -3.111057e+02 9.004508e+02)	(1.072604e-02 -3.220620e-03 3.795553e-03)
22            	(-3.574655e-02 -3.107673e+02 9.003536e+02)	(-4.641729e-02 -3.107644e+02 9.003498e+02)	(1.067074e-02 -2.887565e-03 3.758037e-03)
23            	(2.007090e-01 -3.104934e+02 9.002769e+02)	(1.902357e-01 -3.104907e+02 9.002732e+02)	(1.047327e-02 -2.667771e-03 3.631844e-03)
24            	(3.446604e-01 -3.103240e+02 9.002334e+02)	(3.344880e-01 -3.103214e+02 9.002299e+02)	(1.017239e-02 -2.566735e-03 3.487357e-03)
25            	(3.875708e-01 -3.102705e+02 9.002245e+02)	(3.777558e-01 -3.102679e+02 9.002211e+02)	(9.815001e-03 -2.561218e-03 3.381410e-03)
26            	(3.693033e-01 -3.102870e+02 9.002348e+02)	(3.598510e-01 -3.102844e+02 9.002315e+02)	(9.452274e-03 -2.609460e-03 3.324625e-03)
27            	(3.077850e-01 -3.103543e+02 9.002615e+02)	(2.986624e-01 -3.103517e+02 9.002582e+02)	(9.122608e-03 -2.675724e-03 3.325908e-03)
28            	(2.261520e-01 -3.104466e+02 9.002954e+02)	(2.173055e-01 -3.104439e+02 9.002920e+02)	(8.846438e-03 -2.732494e-03 3.386958e-03)
29            	(1.475713e-01 -3.105369e+02 9.003254e+02)	(1.389431e-01 -3.105342e+02 9.003219e+02)	(8.628256e-03 -2.763968e-03 3.497129e-03)
30            	(8.817398e-02 -3.106065e+02 9.003473e+02)	(7.971444e-02 -3.106038e+02 9.003436e+02)	(8.459540e-03 -2.761489e-03 3.636601e-03)
31            	(5.815653e-02 -3.106429e+02 9.003572e+02)	(4.982774e-02 -3.106402e+02 9.003534e+02)	(8.328785e-03 -2.725752e-03 3.782617e-03)
32            	(5.233998e-02 -3.106514e+02 9.003567e+02)	(4.411711e-02 -3.106487e+02 9.003528e+02)	(8.222878e-03 -2.666394e-03 3.922153e-03)
33            	(6.253354e-02 -3.106411e+02 9.003496e+02)	(5.440530e-02 -3.106385e+02 9.003455e+02)	(8.128240e-03 -2.596859e-03 4.047980e-03)
34            	(7.743113e-02 -3.106243e+02 9.003387e+02)	(6.940089e-02 -3.106218e+02 9.003346e+02)	(8.030237e-03 -2.536127e-03 4.158798e-03)
35            	(1.034794e-01 -3.105945e+02 9.003258e+02)	(9.554428e-02 -3.105920e+02 9.003216e+02)	(7.935143e-03 -2.477495e-03 4.238638e-03)
36            	(1.263788e-01 -3.105678e+02 9.003151e+02)	(1.185530e-01 -3.105653e+02 9.003108e+02)	(7.825838e-03 -2.430282e-03 4.291121e-03)
37            	(1.355697e-01 -3.105561e+02 9.003090e+02)	(1.278659e-01 -3.105537e+02 9.003047e+02)	(7.703811e-03 -2.399911e-03 4.335297e-03)
38            	(1.416362e-01 -3.105480e+02 9.003059e+02)	(1.340623e-01 -3.105456e+02 9.003015e+02)	(7.573902e-03 -2.378953e-03 4.367099e-03)
39            	(1.442805e-01 -3.105447e+02 9.003079e+02)	(1.368406e-01 -3.105423e+02 9.003035e+02)	(7.439922e-03 -2.362598e-03 4.390235e-03)
40            	(1.456429e-01 -3.105427e+02 9.003089e+02)	(1.383337e-01 -3.105403e+02 9.003045e+02)	(7.309218e-03 -2.348444e-03 4.408061e-03)
41            	(1.456589e-01 -3.105425e+02 9.003110e+02)	(1.384741e-01 -3.105402e+02 9.003065e+02)	(7.184793e-03 -2.333566e-03 4.425440e-03)
42            	(1.447244e-01 -3.105435e+02 9.003132e+02)	(1.376573e-01 -3.105412e+02 9.003088e+02)	(7.067105e-03 -2.318056e-03 4.445618e-03)
43            	(1.431728e-01 -3.105452e+02 9.003153e+02)	(1.362165e-01 -3.105429e+02 9.003109e+02)	(6.956214e-03 -2.302410e-03 4.470918e-03)
44            	(1.412612e-01 -3.105473e+02 9.003174e+02)	(1.344086e-01 -3.105450e+02 9.003129e+02)	(6.852590e-03 -2.287824e-03 4.502550e-03)
45            	(1.386771e-01 -3.105502e+02 9.003194e+02)	(1.319207e-01 -3.105479e+02 9.003148e+02)	(6.756401e-03 -2.275997e-03 4.541847e-03)
46            	(1.349385e-01 -3.105545e+02 9.003226e+02)	(1.282728e-01 -3.105523e+02 9.003180e+02)	(6.665704e-03 -2.267427e-03 4.589063e-03)
47            	(1.317131e-01 -3.105582e+02 9.003243e+02)	(1.251297e-01 -3.105559e+02 9.003196e+02)	(6.583466e-03 -2.262883e-03 4.643596e-03)
48            	(1.285719e-01 -3.105618e+02 9.003257e+02)	(1.220636e-01 -3.105595e+02 9.003210e+02)	(6.508293e-03 -2.260749e-03 4.703222e-03)
49            	(1.249519e-01 -3.105661e+02 9.003286e+02)	(1.185147e-01 -3.105639e+02 9.003238e+02)	(6.437172e-03 -2.259342e-03 4.765202e-03)
50            	(1.228865e-01 -3.105685e+02 9.003294e+02)	(1.165132e-01 -3.105662e+02 9.003246e+02)	(6.373267e-03 -2.258198e-03 4.826327e-03)
51            	(1.213559e-01 -3.105702e+02 9.003300e+02)	(1.150410e-01 -3.105680e+02 9.003251e+02)	(6.314967e-03 -2.256220e-03 4.884822e-03)
52            	(1.194685e-01 -3.105727e+02 9.003319e+02)	(1.132089e-01 -3.105704e+02 9.003269e+02)	(6.259656e-03 -2.253482e-03 4.940554e-03)
53            	(1.189332e-01 -3.105733e+02 9.003323e+02)	(1.127246e-01 -3.105710e+02 9.003273e+02)	(6.208607e-03 -2.250653e-03 4.991596e-03)
54            	(1.187902e-01 -3.105734e+02 9.003326e+02)	(1.126296e-01 -3.105712e+02 9.003276e+02)	(6.160621e-03 -2.247767e-03 5.037720e-03)
55            	(1.183884e-01 -3.105742e+02 9.003346e+02)	(1.122748e-01 -3.105719e+02 9.003295e+02)	(6.113582e-03 -2.245084e-03 5.078848e-03)
56            	(1.189448e-01 -3.105735e+02 9.003350e+02)	(1.128764e-01 -3.105713e+02 9.003299e+02)	(6.068441e-03 -2.243801e-03 5.114985e-03)
57            	(1.197561e-01 -3.105725e+02 9.003356e+02)	(1.137315e-01 -3.105703e+02 9.003305e+02)	(6.024679e-03 -2.243812e-03 5.146103e-03)
58            	(1.203856e-01 -3.105720e+02 9.003379e+02)	(1.144049e-01 -3.105698e+02 9.003328e+02)	(5.980709e-03 -2.245087e-03 5.172152e-03)
59            	(1.215665e-01 -3.105707e+02 9.003389e+02)	(1.156279e-01 -3.105685e+02 9.003337e+02)	(5.938520e-03 -2.248833e-03 5.193610e-03)
60            	(1.224389e-01 -3.105700e+02 9.003416e+02)	(1.165422e-01 -3.105677e+02 9.003363e+02)	(5.896674e-03 -2.253015e-03 5.210823e-03)
61            	(1.235123e-01 -3.105687e+02 9.003428e+02)	(1.176548e-01 -3.105665e+02 9.003375e+02)	(5.857491e-03 -2.258597e-03 5.224824e-03)
62            	(1.240913e-01 -3.105683e+02 9.003455e+02)	(1.182711e-01 -3.105660e+02 9.003402e+02)	(5.820186e-03 -2.263433e-03 5.236353e-03)
63            	(1.247839e-01 -3.105674e+02 9.003466e+02)	(1.189966e-01 -3.105652e+02 9.003414e+02)	(5.787327e-03 -2.268121e-03 5.245417e-03)
64            	(1.249885e-01 -3.105673e+02 9.003491e+02)	(1.192302e-01 -3.105651e+02 9.003438e+02)	(5.758311e-03 -2.270831e-03 5.253074e-03)
65            	(1.254346e-01 -3.105668e+02 9.003502e+02)	(1.196998e-01 -3.105645e+02 9.003449e+02)	(5.734810e-03 -2.271855e-03 5.259278e-03)
66            	(1.256151e-01 -3.105667e+02 9.003523e+02)	(1.198985e-01 -3.105644e+02 9.003471e+02)	(5.716631e-03 -2.269432e-03 5.264992e-03)
67            	(1.259416e-01 -3.105662e+02 9.003533e+02)	(1.202379e-01 -3.105639e+02 9.003481e+02)	(5.703702e-03 -2.263868e-03 5.269659e-03)
68            	(1.257963e-01 -3.105664e+02 9.003554e+02)	(1.201014e-01 -3.105642e+02 9.003501e+02)	(5.694887e-03 -2.254199e-03 5.273828e-03)
69            	(1.261106e-01 -3.105659e+02 9.003563e+02)	(1.204193e-01 -3.105637e+02 9.003510e+02)	(5.691361e-03 -2.241104e-03 5.276626e-03)
70            	(1.264287e-01 -3.105654e+02 9.003572e+02)	(1.207360e-01 -3.105632e+02 9.003519e+02)	(5.692712e-03 -2.224393e-03 5.277817e-03)
71            	(1.264062e-01 -3.105654e+02 9.003589e+02)	(1.207087e-01 -3.105632e+02 9.003537e+02)	(5.697459e-03 -2.204273e-03 5.277192e-03)
72            	(1.268019e-01 -3.105648e+02 9.003597e+02)	(1.210960e-01 -3.105626e+02 9.003545e+02)	(5.705874e-03 -2.182179e-03 5.274084e-03)
73            	(1.272536e-01 -3.105641e+02 9.003605e+02)	(1.215363e-01 -3.105619e+02 9.003552e+02)	(5.717270e-03 -2.158500e-03 5.268363e-03)
74            	(1.275546e-01 -3.105637e+02 9.003618e+02)	(1.218240e-01 -3.105615e+02 9.003566e+02)	(5.730596e-03 -2.133565e-03 5.259702e-03)
75            	(1.281450e-01 -3.105629e+02 9.003624e+02)	(1.223993e-01 -3.105608e+02 9.003572e+02)	(5.745670e-03 -2.108532e-03 5.247956e-03)
76            	(1.288050e-01 -3.105620e+02 9.003630e+02)	(1.230431e-01 -3.105599e+02 9.003578e+02)	(5.761903e-03 -2.083589e-03 5.233333e-03)
77            	(1.295251e-01 -3.105611e+02 9.003635e+02)	(1.237460e-01 -3.105591e+02 9.003583e+02)	(5.779122e-03 -2.059141e-03 5.216016e-03)
78            	(1.301429e-01 -3.105604e+02 9.003645e+02)	(1.243463e-01 -3.105584e+02 9.003593e+02)	(5.796691e-03 -2.035202e-03 5.196557e-03)
79            	(1.308970e-01 -3.105595e+02 9.003648e+02)	(1.250821e-01 -3.105575e+02 9.003597e+02)	(5.814983e-03 -2.012848e-03 5.175548e-03)
80            	(1.316375e-01 -3.105586e+02 9.003652e+02)	(1.258038e-01 -3.105566e+02 9.003600e+02)	(5.833659e-03 -1.992355e-03 5.153723e-03)
81            	(1.322888e-01 -3.105578e+02 9.003658e+02)	(1.264365e-01 -3.105559e+02 9.003607e+02)	(5.852322e-03 -1.974130e-03 5.131659e-03)
82            	(1.329304e-01 -3.105570e+02 9.003660e+02)	(1.270593e-01 -3.105551e+02 9.003609e+02)	(5.871089e-03 -1.958596e-03 5.109928e-03)
83            	(1.335213e-01 -3.105562e+02 9.003662e+02)	(1.276318e-01 -3.105543e+02 9.003611e+02)	(5.889542e-03 -1.945542e-03 5.089000e-03)
84            	(1.339779e-01 -3.105556e+02 9.003666e+02)	(1.280705e-01 -3.105537e+02 9.003615e+02)	(5.907328e-03 -1.934834e-03 5.069048e-03)
85            	(1.344137e-01 -3.105550e+02 9.003667e+02)	(1.284894e-01 -3.105530e+02 9.003616e+02)	(5.924303e-03 -1.926472e-03 5.050358e-03)
86            	(1.347181e-01 -3.105545e+02 9.003669e+02)	(1.287781e-01 -3.105526e+02 9.003619e+02)	(5.940058e-03 -1.920360e-03 5.033160e-03)
87            	(1.350085e-01 -3.105540e+02 9.003669e+02)	(1.290541e-01 -3.105521e+02 9.003619e+02)	(5.954473e-03 -1.916495e-03 5.017743e-03)
88            	(1.351655e-01 -3.105538e+02 9.003670e+02)	(1.291984e-01 -3.105519e+02 9.003620e+02)	(5.967145e-03 -1.914614e-03 5.004490e-03)
89            	(1.352814e-01 -3.105535e+02 9.003668e+02)	(1.293035e-01 -3.105516e+02 9.003618e+02)	(5.977928e-03 -1.914534e-03 4.993484e-03)
90            	(1.352997e-01 -3.105535e+02 9.003668e+02)	(1.293133e-01 -3.105515e+02 9.003618e+02)	(5.986360e-03 -1.915989e-03 4.984523e-03)
91            	(1.352925e-01 -3.105534e+02 9.003664e+02)	(1.293001e-01 -3.105515e+02 9.003615e+02)	(5.992475e-03 -1.919168e-03 4.977182e-03)
92            	(1.352476e-01 -3.105534e+02 9.003660e+02)	(1.292515e-01 -3.105514e+02 9.003610e+02)	(5.996137e-03 -1.923846e-03 4.970924e-03)
93            	(1.351863e-01 -3.105534e+02 9.003654e+02)	(1.291888e-01 -3.105514e+02 9.003604e+02)	(5.997422e-03 -1.929448e-03 4.964959e-03)
94            	(1.351260e-01 -3.105534e+02 9.003646e+02)	(1.291294e-01 -3.105514e+02 9.003597e+02)	(5.996618e-03 -1.935168e-03 4.958454e-03)
95            	(1.350819e-01 -3.105533e+02 9.003638e+02)	(1.290877e-01 -3.105514e+02 9.003588e+02)	(5.994178e-03 -1.940248e-03 4.950773e-03)
96            	(1.350631e-01 -3.105533e+02 9.003627e+02)	(1.290726e-01 -3.105513e+02 9.003578e+02)	(5.990488e-03 -1.944092e-03 4.941680e-03)
97            	(1.350845e-01 -3.105531e+02 9.003616e+02)	(1.290988e-01 -3.105512e+02 9.003566e+02)	(5.985690e-03 -1.946435e-03 4.931326e-03)
98            	(1.351589e-01 -3.105529e+02 9.003602e+02)	(1.291792e-01 -3.105510e+02 9.003553e+02)	(5.979695e-03 -1.947281e-03 4.920164e-03)
99            	(1.353045e-01 -3.105526e+02 9.003587e+02)	(1.293321e-01 -3.105507e+02 9.003538e+02)	(5.972399e-03 -1.946690e-03 4.908483e-03)
100           	(1.355434e-01 -3.105522e+02 9.003571e+02)	(1.295798e-01 -3.105502e+02 9.003522e+02)	(5.963583e-03 -1.945064e-03 4.896401e-03)
101           	(1.358957e-01 -3.105516e+02 9.003554e+02)	(1.299424e-01 -3.105497e+02 9.003505e+02)	(5.953236e-03 -1.942865e-03 4.883868e-03)
102           	(1.363818e-01 -3.105509e+02 9.003536e+02)	(1.304403e-01 -3.105490e+02 9.003487e+02)	(5.941448e-03 -1.940376e-03 4.870934e-03)
103           	(1.370217e-01 -3.105501e+02 9.003518e+02)	(1.310934e-01 -3.105482e+02 9.003470e+02)	(5.928315e-03 -1.937685e-03 4.857984e-03)
104           	(1.378365e-01 -3.105490e+02 9.003500e+02)	(1.319226e-01 -3.105471e+02 9.003452e+02)	(5.913910e-03 -1.934849e-03 4.845600e-03)
105           	(1.388534e-01 -3.105478e+02 9.003483e+02)	(1.329549e-01 -3.105459e+02 9.003435e+02)	(5.898453e-03 -1.931469e-03 4.834026e-03)
106           	(1.400726e-01 -3.105463e+02 9.003466e+02)	(1.341904e-01 -3.105444e+02 9.003418e+02)	(5.882162e-03 -1.927245e-03 4.823388e-03)
107           	(1.414897e-01 -3.105446e+02 9.003451e+02)	(1.356244e-01 -3.105427e+02 9.003403e+02)	(5.865311e-03 -1.921795e-03 4.813526e-03)
108           	(1.430820e-01 -3.105428e+02 9.003437e+02)	(1.372338e-01 -3.105409e+02 9.003389e+02)	(5.848155e-03 -1.914633e-03 4.804597e-03)
109           	(1.448301e-01 -3.105407e+02 9.003424e+02)	(1.389990e-01 -3.105388e+02 9.003376e+02)	(5.831129e-03 -1.905638e-03 4.796389e-03)
110           	(1.466983e-01 -3.105386e+02 9.003412e+02)	(1.408836e-01 -3.105367e+02 9.003365e+02)	(5.814681e-03 -1.894994e-03 4.788736e-03)
111           	(1.486337e-01 -3.105363e+02 9.003402e+02)	(1.428346e-01 -3.105344e+02 9.003354e+02)	(5.799150e-03 -1.883090e-03 4.781153e-03)
112           	(1.506173e-01 -3.105340e+02 9.003393e+02)	(1.448325e-01 -3.105322e+02 9.003345e+02)	(5.784772e-03 -1.869920e-03 4.773522e-03)
113           	(1.525893e-01 -3.105317e+02 9.003385e+02)	(1.468176e-01 -3.105299e+02 9.003337e+02)	(5.771751e-03 -1.855772e-03 4.765365e-03)
114           	(1.545190e-01 -3.105295e+02 9.003378e+02)	(1.487586e-01 -3.105276e+02 9.003330e+02)	(5.760367e-03 -1.840418e-03 4.756493e-03)
115           	(1.563945e-01 -3.105273e+02 9.003371e+02)	(1.506438e-01 -3.105254e+02 9.003323e+02)	(5.750727e-03 -1.824086e-03 4.746572e-03)
116           	(1.581860e-01 -3.105252e+02 9.003365e+02)	(1.524432e-01 -3.105234e+02 9.003318e+02)	(5.742844e-03 -1.806691e-03 4.735548e-03)
117           	(1.597567e-01 -3.105234e+02 9.003363e+02)	(1.540206e-01 -3.105216e+02 9.003315e+02)	(5.736070e-03 -1.788259e-03 4.723492e-03)
118           	(1.613241e-01 -3.105215e+02 9.003356e+02)	(1.555933e-01 -3.105197e+02 9.003309e+02)	(5.730823e-03 -1.769323e-03 4.710550e-03)
119           	(1.627874e-01 -3.105197e+02 9.003348e+02)	(1.570605e-01 -3.105180e+02 9.003301e+02)	(5.726834e-03 -1.750059e-03 4.696844e-03)
120           	(1.641479e-01 -3.105181e+02 9.003340e+02)	(1.584240e-01 -3.105164e+02 9.003294e+02)	(5.723874e-03 -1.730815e-03 4.682400e-03)
121           	(1.654116e-01 -3.105166e+02 9.003332e+02)	(1.596899e-01 -3.105148e+02 9.003285e+02)	(5.721669e-03 -1.711760e-03 4.667316e-03)
122           	(1.665607e-01 -3.105152e+02 9.003323e+02)	(1.608406e-01 -3.105135e+02 9.003276e+02)	(5.720022e-03 -1.693071e-03 4.651721e-03)
123           	(1.675800e-01 -3.105139e+02 9.003312e+02)	(1.618613e-01 -3.105122e+02 9.003266e+02)	(5.718732e-03 -1.674875e-03 4.635630e-03)
124           	(1.685440e-01 -3.105127e+02 9.003301e+02)	(1.628261e-01 -3.105111e+02 9.003255e+02)	(5.717871e-03 -1.657203e-03 4.619023e-03)
125           	(1.694717e-01 -3.105116e+02 9.003289e+02)	(1.637544e-01 -3.105100e+02 9.003243e+02)	(5.717370e-03 -1.640089e-03 4.601840e-03)
126           	(1.703834e-01 -3.105105e+02 9.003277e+02)	(1.646662e-01 -3.105089e+02 9.003231e+02)	(5.717217e-03 -1.623365e-03 4.584084e-03)
127           	(1.712980e-01 -3.105094e+02 9.003263e+02)	(1.655805e-01 -3.105078e+02 9.003218e+02)	(5.717422e-03 -1.606962e-03 4.565732e-03)
128           	(1.722302e-01 -3.105083e+02 9.003250e+02)	(1.665122e-01 -3.105067e+02 9.003204e+02)	(5.718008e-03 -1.590841e-03 4.546788e-03)
129           	(1.731903e-01 -3.105071e+02 9.003235e+02)	(1.674712e-01 -3.105056e+02 9.003190e+02)	(5.719073e-03 -1.574965e-03 4.527307e-03)
130           	(1.741832e-01 -3.105059e+02 9.003220e+02)	(1.684625e-01 -3.105044e+02 9.003175e+02)	(5.720684e-03 -1.559322e-03 4.507404e-03)
131           	(1.752353e-01 -3.105047e+02 9.003206e+02)	(1.695124e-01 -3.105031e+02 9.003161e+02)	(5.722891e-03 -1.543817e-03 4.487241e-03)
132           	(1.763125e-01 -3.105033e+02 9.003190e+02)	(1.705868e-01 -3.105018e+02 9.003146e+02)	(5.725714e-03 -1.528323e-03 4.466978e-03)
133           	(1.774053e-01 -3.105020e+02 9.003175e+02)	(1.716763e-01 -3.105005e+02 9.003131e+02)	(5.729032e-03 -1.512849e-03 4.446780e-03)
134           	(1.785053e-01 -3.105006e+02 9.003160e+02)	(1.727725e-01 -3.104991e+02 9.003115e+02)	(5.732725e-03 -1.497396e-03 4.426758e-03)
135           	(1.796103e-01 -3.104991e+02 9.003144e+02)	(1.738738e-01 -3.104976e+02 9.003100e+02)	(5.736465e-03 -1.482010e-03 4.407062e-03)
136           	(1.807052e-01 -3.104977e+02 9.003129e+02)	(1.749652e-01 -3.104962e+02 9.003085e+02)	(5.739985e-03 -1.466660e-03 4.387662e-03)
137           	(1.817819e-01 -3.104962e+02 9.003113e+02)	(1.760388e-01 -3.104948e+02 9.003069e+02)	(5.743012e-03 -1.451318e-03 4.368469e-03)
138           	(1.828307e-01 -3.104948e+02 9.003097e+02)	(1.770853e-01 -3.104934e+02 9.003054e+02)	(5.745426e-03 -1.436170e-03 4.349309e-03)
139           	(1.838417e-01 -3.104934e+02 9.003081e+02)	(1.780947e-01 -3.104920e+02 9.003038e+02)	(5.747055e-03 -1.421400e-03 4.330027e-03)
140           	(1.848089e-01 -3.104921e+02 9.003064e+02)	(1.790610e-01 -3.104906e+02 9.003021e+02)	(5.747856e-03 -1.407151e-03 4.310558e-03)
141           	(1.857343e-01 -3.104908e+02 9.003047e+02)	(1.799866e-01 -3.104894e+02 9.003004e+02)	(5.747767e-03 -1.393447e-03 4.290775e-03)
142           	(1.866256e-01 -3.104895e+02 9.003030e+02)	(1.808787e-01 -3.104882e+02 9.002987e+02)	(5.746939e-03 -1.380170e-03 4.270546e-03)
143           	(1.874895e-01 -3.104884e+02 9.003012e+02)	(1.817442e-01 -3.104870e+02 9.002969e+02)	(5.745335e-03 -1.367237e-03 4.249696e-03)
144           	(1.883291e-01 -3.104872e+02 9.002993e+02)	(1.825860e-01 -3.104859e+02 9.002951e+02)	(5.743121e-03 -1.354573e-03 4.228101e-03)
145           	(1.891442e-01 -3.104861e+02 9.002973e+02)	(1.834039e-01 -3.104848e+02 9.002931e+02)	(5.740267e-03 -1.342085e-03 4.205659e-03)
146           	(1.899343e-01 -3.104851e+02 9.002953e+02)	(1.841974e-01 -3.104838e+02 9.002911e+02)	(5.736873e-03 -1.329657e-03 4.182416e-03)
147           	(1.906959e-01 -3.104841e+02 9.002932e+02)	(1.849629e-01 -3.104828e+02 9.002891e+02)	(5.732974e-03 -1.317256e-03 4.158350e-03)
148           	(1.914276e-01 -3.104831e+02 9.002911e+02)	(1.856988e-01 -3.104818e+02 9.002869e+02)	(5.728756e-03 -1.304900e-03 4.133551e-03)
149           	(1.921293e-01 -3.104822e+02 9.002888e+02)	(1.864053e-01 -3.104809e+02 9.002847e+02)	(5.724074e-03 -1.292562e-03 4.108044e-03)
150           	(1.931764e-01 -3.104807e+02 9.002859e+02)	(1.874563e-01 -3.104795e+02 9.002818e+02)	(5.720084e-03 -1.280516e-03 4.081820e-03)
151           	(1.937711e-01 -3.104799e+02 9.002836e+02)	(1.880558e-01 -3.104786e+02 9.002795e+02)	(5.715304e-03 -1.268581e-03 4.055212e-03)
152           	(1.943438e-01 -3.104790e+02 9.002812e+02)	(1.886338e-01 -3.104778e+02 9.002772e+02)	(5.710021e-03 -1.256816e-03 4.028363e-03)
153           	(1.949074e-01 -3.104782e+02 9.002789e+02)	(1.892031e-01 -3.104769e+02 9.002749e+02)	(5.704367e-03 -1.245226e-03 4.001142e-03)
154           	(1.954734e-01 -3.104773e+02 9.002765e+02)	(1.897749e-01 -3.104761e+02 9.002726e+02)	(5.698520e-03 -1.233761e-03 3.973585e-03)
155           	(1.964836e-01 -3.104758e+02 9.002732e+02)	(1.907900e-01 -3.104746e+02 9.002693e+02)	(5.693583e-03 -1.222602e-03 3.945335e-03)
156           	(1.970089e-01 -3.104750e+02 9.002709e+02)	(1.913210e-01 -3.104738e+02 9.002670e+02)	(5.687853e-03 -1.211136e-03 3.916813e-03)
157           	(1.975373e-01 -3.104742e+02 9.002686e+02)	(1.918558e-01 -3.104730e+02 9.002647e+02)	(5.681447e-03 -1.199480e-03 3.888053e-03)
158           	(1.985055e-01 -3.104726e+02 9.002652e+02)	(1.928298e-01 -3.104715e+02 9.002614e+02)	(5.675775e-03 -1.187631e-03 3.858535e-03)
159           	(1.990206e-01 -3.104719e+02 9.002630e+02)	(1.933513e-01 -3.104707e+02 9.002592e+02)	(5.669362e-03 -1.175332e-03 3.828823e-03)
160           	(1.995337e-01 -3.104711e+02 9.002609e+02)	(1.938713e-01 -3.104699e+02 9.002571e+02)	(5.662434e-03 -1.162817e-03 3.799066e-03)
161           	(2.000708e-01 -3.104703e+02 9.002587e+02)	(1.944157e-01 -3.104691e+02 9.002550e+02)	(5.655089e-03 -1.149922e-03 3.769134e-03)
162           	(2.010399e-01 -3.104689e+02 9.002559e+02)	(1.953913e-01 -3.104678e+02 9.002521e+02)	(5.648560e-03 -1.136789e-03 3.738739e-03)
163           	(2.016064e-01 -3.104681e+02 9.002539e+02)	(1.959653e-01 -3.104670e+02 9.002502e+02)	(5.641158e-03 -1.122921e-03 3.708173e-03)
164           	(2.022126e-01 -3.104673e+02 9.002519e+02)	(1.965795e-01 -3.104662e+02 9.002482e+02)	(5.633106e-03 -1.108539e-03 3.677455e-03)
165           	(2.032130e-01 -3.104659e+02 9.002493e+02)	(1.975874e-01 -3.104648e+02 9.002456e+02)	(5.625576e-03 -1.093729e-03 3.646171e-03)
166           	(2.039074e-01 -3.104650e+02 9.002473e+02)	(1.982901e-01 -3.104639e+02 9.002437e+02)	(5.617304e-03 -1.078287e-03 3.614347e-03)
167           	(2.046955e-01 -3.104640e+02 9.002452e+02)	(1.990869e-01 -3.104629e+02 9.002416e+02)	(5.608640e-03 -1.061945e-03 3.581926e-03)
168           	(2.056274e-01 -3.104628e+02 9.002431e+02)	(2.000274e-01 -3.104617e+02 9.002395e+02)	(5.599915e-03 -1.044404e-03 3.548586e-03)
169           	(2.068491e-01 -3.104612e+02 9.002408e+02)	(2.012577e-01 -3.104602e+02 9.002373e+02)	(5.591419e-03 -1.025299e-03 3.513995e-03)
170           	(2.085558e-01 -3.104590e+02 9.002378e+02)	(2.029716e-01 -3.104580e+02 9.002343e+02)	(5.584189e-03 -1.004662e-03 3.477745e-03)
171           	(2.100799e-01 -3.104570e+02 9.002354e+02)	(2.045033e-01 -3.104560e+02 9.002319e+02)	(5.576688e-03 -9.819470e-04 3.439724e-03)
172           	(2.119092e-01 -3.104547e+02 9.002328e+02)	(2.063399e-01 -3.104537e+02 9.002294e+02)	(5.569298e-03 -9.572077e-04 3.399501e-03)
173           	(2.140042e-01 -3.104521e+02 9.002302e+02)	(2.084419e-01 -3.104511e+02 9.002268e+02)	(5.562234e-03 -9.303236e-04 3.356645e-03)
174           	(2.163702e-01 -3.104491e+02 9.002274e+02)	(2.108147e-01 -3.104482e+02 9.002241e+02)	(5.555509e-03 -9.015177e-04 3.310699e-03)
175           	(2.189622e-01 -3.104459e+02 9.002246e+02)	(2.134130e-01 -3.104450e+02 9.002213e+02)	(5.549186e-03 -8.709915e-04 3.261544e-03)
176           	(2.217646e-01 -3.104424e+02 9.002216e+02)	(2.162214e-01 -3.104416e+02 9.002184e+02)	(5.543246e-03 -8.390775e-04 3.208974e-03)
177           	(2.247346e-01 -3.104388e+02 9.002186e+02)	(2.191971e-01 -3.104380e+02 9.002155e+02)	(5.537533e-03 -8.060750e-04 3.152914e-03)
178           	(2.278127e-01 -3.104350e+02 9.002155e+02)	(2.222807e-01 -3.104342e+02 9.002124e+02)	(5.532030e-03 -7.722885e-04 3.093330e-03)
179           	(2.309939e-01 -3.104311e+02 9.002124e+02)	(2.254671e-01 -3.104304e+02 9.002094e+02)	(5.526782e-03 -7.380826e-04 3.029874e-03)
180           	(2.342396e-01 -3.104271e+02 9.002092e+02)	(2.287180e-01 -3.104264e+02 9.002063e+02)	(5.521576e-03 -7.034380e-04 2.962711e-03)
181           	(2.375350e-01 -3.104231e+02 9.002061e+02)	(2.320187e-01 -3.104224e+02 9.002032e+02)	(5.516297e-03 -6.686201e-04 2.892256e-03)
182           	(2.408917e-01 -3.104190e+02 9.002029e+02)	(2.353808e-01 -3.104183e+02 9.002001e+02)	(5.510880e-03 -6.338083e-04 2.819412e-03)
183           	(2.443190e-01 -3.104148e+02 9.001999e+02)	(2.388137e-01 -3.104142e+02 9.001972e+02)	(5.505280e-03 -5.993504e-04 2.744933e-03)
184           	(2.477416e-01 -3.104106e+02 9.001970e+02)	(2.422420e-01 -3.104100e+02 9.001943e+02)	(5.499595e-03 -5.653016e-04 2.669752e-03)
185           	(2.511246e-01 -3.104065e+02 9.001943e+02)	(2.456306e-01 -3.104059e+02 9.001917e+02)	(5.494054e-03 -5.320691e-04 2.594552e-03)
186           	(2.543561e-01 -3.104026e+02 9.001919e+02)	(2.488674e-01 -3.104021e+02 9.001894e+02)	(5.488690e-03 -5.002136e-04 2.520335e-03)
187           	(2.573063e-01 -3.103992e+02 9.001898e+02)	(2.518229e-01 -3.103987e+02 9.001873e+02)	(5.483386e-03 -4.703998e-04 2.448193e-03)
188           	(2.598154e-01 -3.103963e+02 9.001880e+02)	(2.543377e-01 -3.103959e+02 9.001856e+02)	(5.477713e-03 -4.434738e-04 2.378916e-03)
189           	(2.616787e-01 -3.103943e+02 9.001865e+02)	(2.562076e-01 -3.103939e+02 9.001842e+02)	(5.471046e-03 -4.200822e-04 2.313350e-03)
190           	(2.627555e-01 -3.103933e+02 9.001853e+02)	(2.572927e-01 -3.103929e+02 9.001831e+02)	(5.462764e-03 -4.011673e-04 2.251821e-03)
191           	(2.629996e-01 -3.103934e+02 9.001844e+02)	(2.575472e-01 -3.103930e+02 9.001822e+02)	(5.452424e-03 -3.874392e-04 2.194623e-03)
192           	(2.623386e-01 -3.103946e+02 9.001838e+02)	(2.568989e-01 -3.103942e+02 9.001817e+02)	(5.439650e-03 -3.796971e-04 2.141747e-03)
193           	(2.606787e-01 -3.103970e+02 9.001835e+02)	(2.552547e-01 -3.103966e+02 9.001814e+02)	(5.424063e-03 -3.785429e-04 2.093136e-03)
194           	(2.579108e-01 -3.104009e+02 9.001835e+02)	(2.525055e-01 -3.104005e+02 9.001814e+02)	(5.405288e-03 -3.846334e-04 2.048854e-03)
195           	(2.539860e-01 -3.104061e+02 9.001837e+02)	(2.486031e-01 -3.104057e+02 9.001817e+02)	(5.382918e-03 -3.983854e-04 2.009169e-03)
196           	(2.488259e-01 -3.104128e+02 9.001843e+02)	(2.434694e-01 -3.104124e+02 9.001823e+02)	(5.356483e-03 -4.200032e-04 1.974489e-03)
197           	(2.424873e-01 -3.104208e+02 9.001851e+02)	(2.371618e-01 -3.104204e+02 9.001831e+02)	(5.325502e-03 -4.491415e-04 1.945455e-03)
198           	(2.343844e-01 -3.104311e+02 9.001877e+02)	(2.290971e-01 -3.104306e+02 9.001858e+02)	(5.287369e-03 -4.845440e-04 1.922777e-03)
199           	(2.266124e-01 -3.104408e+02 9.001888e+02)	(2.213660e-01 -3.104403e+02 9.001869e+02)	(5.246364e-03 -5.255451e-04 1.906020e-03)
200           	(2.180424e-01 -3.104515e+02 9.001916e+02)	(2.128416e-01 -3.104509e+02 9.001897e+02)	(5.200781e-03 -5.691536e-04 1.895292e-03)
201           	(2.107783e-01 -3.104604e+02 9.001927e+02)	(2.056228e-01 -3.104597e+02 9.001908e+02)	(5.155499e-03 -6.139368e-04 1.889423e-03)
202           	(2.040027e-01 -3.104685e+02 9.001937e+02)	(1.988917e-01 -3.104679e+02 9.001918e+02)	(5.111022e-03 -6.576128e-04 1.888177e-03)
203           	(1.976743e-01 -3.104760e+02 9.001947e+02)	(1.926069e-01 -3.104753e+02 9.001928e+02)	(5.067461e-03 -6.985576e-04 1.891179e-03)
204           	(1.918299e-01 -3.104830e+02 9.001966e+02)	(1.868057e-01 -3.104823e+02 9.001947e+02)	(5.024184e-03 -7.348561e-04 1.897545e-03)
205           	(1.875074e-01 -3.104880e+02 9.001975e+02)	(1.825229e-01 -3.104872e+02 9.001956e+02)	(4.984478e-03 -7.662973e-04 1.906058e-03)
206           	(1.839802e-01 -3.104920e+02 9.001983e+02)	(1.790320e-01 -3.104912e+02 9.001963e+02)	(4.948225e-03 -7.922791e-04 1.916058e-03)
207           	(1.811712e-01 -3.104950e+02 9.001990e+02)	(1.762560e-01 -3.104942e+02 9.001971e+02)	(4.915184e-03 -8.130363e-04 1.926897e-03)
208           	(1.789928e-01 -3.104973e+02 9.001998e+02)	(1.741078e-01 -3.104964e+02 9.001978e+02)	(4.884982e-03 -8.290535e-04 1.938227e-03)
209           	(1.772929e-01 -3.104989e+02 9.002004e+02)	(1.724357e-01 -3.104980e+02 9.001985e+02)	(4.857215e-03 -8.408610e-04 1.949865e-03)
210           	(1.761557e-01 -3.104998e+02 9.002011e+02)	(1.713239e-01 -3.104990e+02 9.001991e+02)	(4.831714e-03 -8.490831e-04 1.961449e-03)
211           	(1.754090e-01 -3.105003e+02 9.002017e+02)	(1.706008e-01 -3.104995e+02 9.001998e+02)	(4.808232e-03 -8.542475e-04 1.972862e-03)