# Moment      
# CofR        : (0.000000e+00 0.000000e+00 0.000000e+00)
#
# Time        	(total_x total_y total_z)	(pressure_x pressure_y pressure_z)	(viscous_x viscous_y viscous_z)
1             	(2.341148e+02 -9.771156e+00 4.462518e+01)	(2.341154e+02 -9.772597e+00 4.463603e+01)	(-5.426023e-04 1.440744e-03 -1.085095e-02)
2             	(2.342016e+02 -9.829372e+00 4.525195e+01)	(2.342021e+02 -9.830752e+00 4.525966e+01)	(-5.031898e-04 1.380363e-03 -7.707334e-03)
3             	(2.344419e+02 -9.961910e+00 4.679618e+01)	(2.344423e+02 -9.963179e+00 4.680127e+01)	(-4.323907e-04 1.268918e-03 -5.090493e-03)
4             	(2.347697e+02 -1.010187e+01 4.859696e+01)	(2.347699e+02 -1.010298e+01 4.860076e+01)	(-1.274910e-04 1.103964e-03 -3.802797e-03)
5             	(2.350904e+02 -1.019674e+01 5.008616e+01)	(2.350901e+02 -1.019764e+01 5.008958e+01)	(2.954542e-04 9.017074e-04 -3.414243e-03)
6             	(2.352719e+02 -1.025510e+01 5.093204e+01)	(2.352712e+02 -1.025580e+01 5.093570e+01)	(6.892960e-04 7.069388e-04 -3.664473e-03)
7             	(2.352699e+02 -1.026953e+01 5.105933e+01)	(2.352689e+02 -1.027008e+01 5.106351e+01)	(9.621686e-04 5.543766e-04 -4.180105e-03)
8             	(2.351559e+02 -1.025525e+01 5.074472e+01)	(2.351548e+02 -1.025572e+01 5.074938e+01)	(1.120023e-03 4.623873e-04 -4.664979e-03)
9             	(2.349669e+02 -1.022227e+01 5.014760e+01)	(2.349658e+02 -1.022271e+01 5.015256e+01)	(1.117852e-03 4.457296e-04 -4.958854e-03)
10            	(2.347735e+02 -1.018308e+01 4.949763e+01)	(2.347725e+02 -1.018357e+01 4.950260e+01)	(9.383883e-04 4.916179e-04 -4.973373e-03)
11            	(2.346280e+02 -1.014851e+01 4.897385e+01)	(2.346274e+02 -1.014906e+01 4.897853e+01)	(6.507507e-04 5.487620e-04 -4.678792e-03)
12            	(2.345621e+02 -1.012762e+01 4.869669e+01)	(2.345617e+02 -1.012821e+01 4.870089e+01)	(4.118651e-04 5.878645e-04 -4.202477e-03)
13            	(2.345661e+02 -1.012179e+01 4.866150e+01)	(2.345658e+02 -1.012239e+01 4.866520e+01)	(2.634143e-04 6.010920e-04 -3.697639e-03)
14            	(2.346206e+02 -1.012676e+01 4.877402e+01)	(2.346204e+02 -1.012735e+01 4.877730e+01)	(2.233597e-04 5.927430e-04 -3.284391e-03)
15            	(2.347021e+02 -1.013900e+01 4.898142e+01)	(2.347018e+02 -1.013957e+01 4.898444e+01)	(2.901745e-04 5.632447e-04 -3.016766e-03)
16            	(2.347835e+02 -1.015381e+01 4.920515e+01)	(2.347831e+02 -1.015433e+01 4.920804e+01)	(4.396349e-04 5.183164e-04 -2.890750e-03)
17            	(2.348412e+02 -1.016621e+01 4.937621e+01)	(2.348406e+02 -1.016668e+01 4.937908e+01)	(6.245943e-04 4.686693e-04 -2.867288e-03)
18            	(2.348679e+02 -1.017371e+01 4.947165e+01)	(2.348671e+02 -1.017414e+01 4.947456e+01)	(7.996297e-04 4.244712e-04 -2.906007e-03)
19            	(2.348653e+02 -1.017558e+01 4.948902e+01)	(2.348644e+02 -1.017598e+01 4.949199e+01)	(9.266840e-04 3.924525e-04 -2.962044e-03)
20            	(2.348444e+02 -1.017366e+01 4.945748e+01)	(2.348434e+02 -1.017403e+01 4.946048e+01)	(1.003558e-03 3.734369e-04 -3.003179e-03)
21            	(2.348141e+02 -1.016938e+01 4.939830e+01)	(2.348130e+02 -1.016975e+01 4.940130e+01)	(1.032115e-03 3.655549e-04 -3.004010e-03)
22            	(2.347784e+02 -1.016388e+01 4.932293e+01)	(2.347774e+02 -1.016424e+01 4.932589e+01)	(1.010328e-03 3.675935e-04 -2.962079e-03)
23            	(2.347511e+02 -1.015931e+01 4.926286e+01)	(2.347501e+02 -1.015969e+01 4.926575e+01)	(9.617658e-04 3.728621e-04 -2.881763e-03)
24            	(2.347354e+02 -1.015636e+01 4.922604e+01)	(2.347345e+02 -1.015674e+01 4.922882e+01)	(9.087842e-04 3.768563e-04 -2.780544e-03)
25            	(2.347320e+02 -1.015516e+01 4.921521e+01)	(2.347311e+02 -1.015554e+01 4.921788e+01)	(8.694993e-04 3.767567e-04 -2.673920e-03)
26            	(2.347352e+02 -1.015542e+01 4.921904e+01)	(2.347344e+02 -1.015579e+01 4.922162e+01)	(8.468934e-04 3.721961e-04 -2.575647e-03)
27            	(2.347439e+02 -1.015673e+01 4.923329e+01)	(2.347431e+02 -1.015709e+01 4.923579e+01)	(8.430943e-04 3.633790e-04 -2.494891e-03)
28            	(2.347550e+02 -1.015856e+01 4.925249e+01)	(2.347542e+02 -1.015891e+01 4.925492e+01)	(8.577362e-04 3.510473e-04 -2.433872e-03)
29            	(2.347651e+02 -1.016036e+01 4.927113e+01)	(2.347642e+02 -1.016070e+01 4.927352e+01)	(8.871633e-04 3.367933e-04 -2.390036e-03)
30            	(2.347725e+02 -1.016167e+01 4.928574e+01)	(2.347716e+02 -1.016199e+01 4.928810e+01)	(9.250870e-04 3.224339e-04 -2.357529e-03)
31            	(2.347760e+02 -1.016237e+01 4.929340e+01)	(2.347750e+02 -1.016268e+01 4.929573e+01)	(9.644901e-04 3.095684e-04 -2.331145e-03)
32            	(2.347760e+02 -1.016255e+01 4.929530e+01)	(2.347750e+02 -1.016285e+01 4.929760e+01)	(1.001502e-03 2.988535e-04 -2.306952e-03)
33            	(2.347738e+02 -1.016238e+01 4.929338e+01)	(2.347728e+02 -1.016267e+01 4.929566e+01)	(1.034314e-03 2.904404e-04 -2.281890e-03)
34            	(2.347705e+02 -1.016211e+01 4.929019e+01)	(2.347695e+02 -1.016240e+01 4.929244e+01)	(1.062923e-03 2.835360e-04 -2.253795e-03)
35            	(2.347664e+02 -1.016157e+01 4.928434e+01)	(2.347653e+02 -1.016185e+01 4.928657e+01)	(1.082692e-03 2.788477e-04 -2.224501e-03)
36            	(2.347629e+02 -1.016108e+01 4.927919e+01)	(2.347618e+02 -1.016136e+01 4.928138e+01)	(1.095179e-03 2.750184e-04 -2.191998e-03)
37            	(2.347611e+02 -1.016081e+01 4.927745e+01)	(2.347600e+02 -1.016108e+01 4.927961e+01)	(1.105877e-03 2.710887e-04 -2.157296e-03)
38            	(2.347601e+02 -1.016065e+01 4.927627e+01)	(2.347590e+02 -1.016092e+01 4.927839e+01)	(1.113395e-03 2.669478e-04 -2.121730e-03)
39            	(2.347606e+02 -1.016061e+01 4.927581e+01)	(2.347595e+02 -1.016087e+01 4.927790e+01)	(1.118667e-03 2.624711e-04 -2.086661e-03)
40            	(2.347607e+02 -1.016067e+01 4.927535e+01)	(2.347596e+02 -1.016093e+01 4.927740e+01)	(1.122554e-03 2.578060e-04 -2.053597e-03)
41            	(2.347612e+02 -1.016079e+01 4.927510e+01)	(2.347600e+02 -1.016104e+01 4.927712e+01)	(1.126285e-03 2.530095e-04 -2.022850e-03)
42            	(2.347617e+02 -1.016094e+01 4.927505e+01)	(2.347606e+02 -1.016118e+01 4.927704e+01)	(1.130707e-03 2.480750e-04 -1.994157e-03)
43            	(2.347622e+02 -1.016109e+01 4.927516e+01)	(2.347611e+02 -1.016133e+01 4.927713e+01)	(1.136462e-03 2.430886e-04 -1.967190e-03)
44            	(2.347627e+02 -1.016125e+01 4.927537e+01)	(2.347615e+02 -1.016149e+01 4.927731e+01)	(1.143868e-03 2.380913e-04 -1.941769e-03)
45            	(2.347632e+02 -1.016143e+01 4.927579e+01)	(2.347620e+02 -1.016166e+01 4.927771e+01)	(1.153398e-03 2.331525e-04 -1.917802e-03)
46            	(2.347641e+02 -1.016159e+01 4.927669e+01)	(2.347629e+02 -1.016182e+01 4.927858e+01)	(1.165198e-03 2.282364e-04 -1.894764e-03)
47            	(2.347645e+02 -1.016177e+01 4.927742e+01)	(2.347633e+02 -1.016200e+01 4.927929e+01)	(1.179147e-03 2.234401e-04 -1.873376e-03)
48            	(2.347649e+02 -1.016193e+01 4.927823e+01)	(2.347637e+02 -1.016215e+01 4.928009e+01)	(1.194710e-03 2.188484e-04 -1.853409e-03)
49            	(2.347657e+02 -1.016204e+01 4.927937e+01)	(2.347645e+02 -1.016225e+01 4.928120e+01)	(1.211159e-03 2.144246e-04 -1.834309e-03)
50            	(2.347660e+02 -1.016213e+01 4.928002e+01)	(2.347647e+02 -1.016234e+01 4.928184e+01)	(1.227586e-03 2.103094e-04 -1.816881e-03)
51            	(2.347661e+02 -1.016220e+01 4.928057e+01)	(2.347649e+02 -1.016241e+01 4.928238e+01)	(1.243432e-03 2.064546e-04 -1.800779e-03)
52            	(2.347667e+02 -1.016225e+01 4.928135e+01)	(2.347654e+02 -1.016245e+01 4.928314e+01)	(1.258648e-03 2.027368e-04 -1.785405e-03)
53            	(2.347668e+02 -1.016227e+01 4.928167e+01)	(2.347655e+02 -1.016247e+01 4.928344e+01)	(1.272688e-03 1.992552e-04 -1.771090e-03)
54            	(2.347669e+02 -1.016229e+01 4.928189e+01)	(2.347656e+02 -1.016249e+01 4.928364e+01)	(1.285469e-03 1.959802e-04 -1.757574e-03)
55            	(2.347674e+02 -1.016230e+01 4.928230e+01)	(2.347661e+02 -1.016250e+01 4.928404e+01)	(1.296996e-03 1.928696e-04 -1.744309e-03)
56            	(2.347675e+02 -1.016231e+01 4.928234e+01)	(2.347662e+02 -1.016250e+01 4.928407e+01)	(1.307289e-03 1.900105e-04 -1.731528e-03)
57            	(2.347676e+02 -1.016233e+01 4.928231e+01)	(2.347663e+02 -1.016251e+01 4.928403e+01)	(1.316322e-03 1.874024e-04 -1.719030e-03)
58            	(2.347682e+02 -1.016234e+01 4.928244e+01)	(2.347668e+02 -1.016252e+01 4.928414e+01)	(1.324046e-03 1.849841e-04 -1.706397e-03)
59            	(2.347683e+02 -1.016237e+01 4.928231e+01)	(2.347670e+02 -1.016256e+01 4.928400e+01)	(1.330559e-03 1.827633e-04 -1.694127e-03)
60            	(2.347690e+02 -1.016241e+01 4.928233e+01)	(2.347676e+02 -1.016259e+01 4.928401e+01)	(1.335824e-03 1.806260e-04 -1.681800e-03)
61            	(2.347692e+02 -1.016245e+01 4.928217e+01)	(2.347679e+02 -1.016263e+01 4.928384e+01)	(1.340151e-03 1.786071e-04 -1.670054e-03)
62            	(2.347698e+02 -1.016250e+01 4.928219e+01)	(2.347685e+02 -1.016268e+01 4.928385e+01)	(1.343651e-03 1.766411e-04 -1.658683e-03)
63            	(2.347701e+02 -1.016255e+01 4.928207e+01)	(2.347687e+02 -1.016272e+01 4.928372e+01)	(1.346349e-03 1.747765e-04 -1.648437e-03)
64            	(2.347707e+02 -1.016259e+01 4.928214e+01)	(2.347693e+02 -1.016277e+01 4.928378e+01)	(1.348501e-03 1.729967e-04 -1.639120e-03)
65            	(2.347709e+02 -1.016264e+01 4.928206e+01)	(2.347696e+02 -1.016281e+01 4.928369e+01)	(1.350169e-03 1.714070e-04 -1.631118e-03)
66            	(2.347714e+02 -1.016268e+01 4.928209e+01)	(2.347701e+02 -1.016285e+01 4.928372e+01)	(1.351587e-03 1.700110e-04 -1.624296e-03)
67            	(2.347716e+02 -1.016271e+01 4.928205e+01)	(2.347703e+02 -1.016288e+01 4.928367e+01)	(1.352696e-03 1.688949e-04 -1.618620e-03)
68            	(2.347722e+02 -1.016273e+01 4.928221e+01)	(2.347708e+02 -1.016290e+01 4.928382e+01)	(1.353672e-03 1.680576e-04 -1.613740e-03)
69            	(2.347724e+02 -1.016275e+01 4.928219e+01)	(2.347710e+02 -1.016292e+01 4.928380e+01)	(1.354321e-03 1.675894e-04 -1.609944e-03)
70            	(2.347726e+02 -1.016276e+01 4.928218e+01)	(2.347712e+02 -1.016293e+01 4.928379e+01)	(1.354594e-03 1.675123e-04 -1.607051e-03)
71            	(2.347730e+02 -1.016276e+01 4.928233e+01)	(2.347717e+02 -1.016293e+01 4.928393e+01)	(1.354441e-03 1.677749e-04 -1.604658e-03)
72            	(2.347732e+02 -1.016277e+01 4.928232e+01)	(2.347718e+02 -1.016294e+01 4.928392e+01)	(1.353683e-03 1.683723e-04 -1.602866e-03)
73            	(2.347734e+02 -1.016277e+01 4.928231e+01)	(2.347720e+02 -1.016294e+01 4.928391e+01)	(1.352256e-03 1.692445e-04 -1.601579e-03)
74            	(2.347737e+02 -1.016278e+01 4.928239e+01)	(2.347724e+02 -1.016295e+01 4.928399e+01)	(1.350064e-03 1.703398e-04 -1.600573e-03)
75            	(2.347738e+02 -1.016278e+01 4.928235e+01)	(2.347725e+02 -1.016295e+01 4.928395e+01)	(1.347078e-03 1.716384e-04 -1.599828e-03)
76            	(2.347739e+02 -1.016278e+01 4.928231e+01)	(2.347726e+02 -1.016296e+01 4.928391e+01)	(1.343342e-03 1.731034e-04 -1.599235e-03)
77            	(2.347740e+02 -1.016279e+01 4.928225e+01)	(2.347727e+02 -1.016296e+01 4.928385e+01)	(1.338889e-03 1.747017e-04 -1.598869e-03)
78            	(2.347742e+02 -1.016279e+01 4.928225e+01)	(2.347729e+02 -1.016297e+01 4.928385e+01)	(1.333867e-03 1.764065e-04 -1.598615e-03)
79            	(2.347743e+02 -1.016279e+01 4.928218e+01)	(2.347730e+02 -1.016297e+01 4.928378e+01)	(1.328436e-03 1.781797e-04 -1.598647e-03)
80            	(2.347743e+02 -1.016280e+01 4.928211e+01)	(2.347730e+02 -1.016298e+01 4.928371e+01)	(1.322806e-03 1.799832e-04 -1.598967e-03)
81            	(2.347745e+02 -1.016281e+01 4.928207e+01)	(2.347732e+02 -1.016299e+01 4.928367e+01)	(1.317124e-03 1.817532e-04 -1.599595e-03)
82            	(2.347745e+02 -1.016281e+01 4.928199e+01)	(2.347732e+02 -1.016299e+01 4.928360e+01)	(1.311559e-03 1.834707e-04 -1.600610e-03)
83            	(2.347745e+02 -1.016281e+01 4.928192e+01)	(2.347732e+02 -1.016300e+01 4.928352e+01)	(1.306248e-03 1.851152e-04 -1.601913e-03)
84            	(2.347746e+02 -1.016282e+01 4.928187e+01)	(2.347733e+02 -1.016300e+01 4.928348e+01)	(1.301240e-03 1.866624e-04 -1.603406e-03)
85            	(2.347746e+02 -1.016282e+01 4.928180e+01)	(2.347733e+02 -1.016300e+01 4.928341e+01)	(1.296654e-03 1.881300e-04 -1.605016e-03)
86            	(2.347746e+02 -1.016281e+01 4.928175e+01)	(2.347733e+02 -1.016300e+01 4.928336e+01)	(1.292572e-03 1.895095e-04 -1.606611e-03)
87            	(2.347746e+02 -1.016281e+01 4.928168e+01)	(2.347733e+02 -1.016300e+01 4.928328e+01)	(1.289078e-03 1.907851e-04 -1.608143e-03)
88            	(2.347746e+02 -1.016280e+01 4.928163e+01)	(2.347734e+02 -1.016299e+01 4.928324e+01)	(1.286260e-03 1.919169e-04 -1.609479e-03)
89            	(2.347746e+02 -1.016279e+01 4.928157e+01)	(2.347733e+02 -1.016299e+01 4.928318e+01)	(1.284135e-03 1.928883e-04 -1.610517e-03)
90            	(2.347746e+02 -1.016278e+01 4.928154e+01)	(2.347733e+02 -1.016297e+01 4.928315e+01)	(1.282620e-03 1.936612e-04 -1.611089e-03)
91            	(2.347745e+02 -1.016276e+01 4.928150e+01)	(2.347732e+02 -1.016296e+01 4.928311e+01)	(1.281575e-03 1.942064e-04 -1.611181e-03)
92            	(2.347744e+02 -1.016274e+01 4.928147e+01)	(2.347731e+02 -1.016293e+01 4.928308e+01)	(1.280830e-03 1.945063e-04 -1.610752e-03)
93            	(2.347743e+02 -1.016271e+01 4.928145e+01)	(2.347730e+02 -1.016290e+01 4.928306e+01)	(1.280169e-03 1.945987e-04 -1.609795e-03)
94            	(2.347741e+02 -1.016267e+01 4.928144e+01)	(2.347728e+02 -1.016287e+01 4.928305e+01)	(1.279377e-03 1.945553e-04 -1.608352e-03)
95            	(2.347739e+02 -1.016263e+01 4.928144e+01)	(2.347726e+02 -1.016282e+01 4.928304e+01)	(1.278304e-03 1.944575e-04 -1.606507e-03)
96            	(2.347737e+02 -1.016258e+01 4.928144e+01)	(2.347724e+02 -1.016277e+01 4.928305e+01)	(1.276906e-03 1.943731e-04 -1.604316e-03)
97            	(2.347734e+02 -1.016252e+01 4.928145e+01)	(2.347721e+02 -1.016272e+01 4.928306e+01)	(1.275244e-03 1.943356e-04 -1.601774e-03)
98            	(2.347731e+02 -1.016246e+01 4.928147e+01)	(2.347718e+02 -1.016265e+01 4.928307e+01)	(1.273446e-03 1.943405e-04 -1.598870e-03)
99            	(2.347728e+02 -1.016239e+01 4.928148e+01)	(2.347715e+02 -1.016259e+01 4.928308e+01)	(1.271592e-03 1.943785e-04 -1.595599e-03)
100           	(2.347724e+02 -1.016232e+01 4.928149e+01)	(2.347711e+02 -1.016252e+01 4.928308e+01)	(1.269719e-03 1.944274e-04 -1.591971e-03)
101           	(2.347720e+02 -1.016225e+01 4.928148e+01)	(2.347707e+02 -1.016245e+01 4.928307e+01)	(1.267805e-03 1.944675e-04 -1.588006e-03)
102           	(2.347716e+02 -1.016218e+01 4.928145e+01)	(2.347703e+02 -1.016237e+01 4.928303e+01)	(1.265844e-03 1.944796e-04 -1.583717e-03)
103           	(2.347711e+02 -1.016211e+01 4.928138e+01)	(2.347698e+02 -1.016230e+01 4.928296e+01)	(1.263895e-03 1.944216e-04 -1.579132e-03)
104           	(2.347707e+02 -1.016204e+01 4.928128e+01)	(2.347694e+02 -1.016223e+01 4.928285e+01)	(1.262078e-03 1.942572e-04 -1.574267e-03)
105           	(2.347702e+02 -1.016197e+01 4.928112e+01)	(2.347690e+02 -1.016217e+01 4.928269e+01)	(1.260420e-03 1.939772e-04 -1.569181e-03)
106           	(2.347698e+02 -1.016191e+01 4.928091e+01)	(2.347685e+02 -1.016210e+01 4.928248e+01)	(1.258940e-03 1.935948e-04 -1.563955e-03)
107           	(2.347694e+02 -1.016185e+01 4.928064e+01)	(2.347681e+02 -1.016204e+01 4.928220e+01)	(1.257560e-03 1.931085e-04 -1.558655e-03)
108           	(2.347690e+02 -1.016179e+01 4.928032e+01)	(2.347677e+02 -1.016198e+01 4.928187e+01)	(1.256293e-03 1.925236e-04 -1.553343e-03)
109           	(2.347686e+02 -1.016173e+01 4.927994e+01)	(2.347673e+02 -1.016192e+01 4.928149e+01)	(1.255063e-03 1.918501e-04 -1.548136e-03)
110           	(2.347682e+02 -1.016168e+01 4.927952e+01)	(2.347670e+02 -1.016187e+01 4.928106e+01)	(1.253812e-03 1.910909e-04 -1.543153e-03)
111           	(2.347679e+02 -1.016163e+01 4.927907e+01)	(2.347667e+02 -1.016182e+01 4.928061e+01)	(1.252421e-03 1.902665e-04 -1.538485e-03)
112           	(2.347676e+02 -1.016158e+01 4.927859e+01)	(2.347664e+02 -1.016177e+01 4.928013e+01)	(1.250860e-03 1.893945e-04 -1.534160e-03)
113           	(2.347674e+02 -1.016153e+01 4.927811e+01)	(2.347661e+02 -1.016172e+01 4.927964e+01)	(1.249037e-03 1.885145e-04 -1.530232e-03)
114           	(2.347671e+02 -1.016148e+01 4.927763e+01)	(2.347659e+02 -1.016167e+01 4.927916e+01)	(1.246897e-03 1.876510e-04 -1.526747e-03)
115           	(2.347669e+02 -1.016144e+01 4.927716e+01)	(2.347656e+02 -1.016162e+01 4.927868e+01)	(1.244380e-03 1.868375e-04 -1.523731e-03)
116           	(2.347667e+02 -1.016139e+01 4.927670e+01)	(2.347654e+02 -1.016157e+01 4.927822e+01)	(1.241486e-03 1.860939e-04 -1.521175e-03)
117           	(2.347666e+02 -1.016133e+01 4.927632e+01)	(2.347653e+02 -1.016152e+01 4.927784e+01)	(1.238270e-03 1.854307e-04 -1.518942e-03)
118           	(2.347664e+02 -1.016128e+01 4.927592e+01)	(2.347651e+02 -1.016147e+01 4.927743e+01)	(1.234801e-03 1.848723e-04 -1.517144e-03)
119           	(2.347661e+02 -1.016123e+01 4.927554e+01)	(2.347649e+02 -1.016141e+01 4.927705e+01)	(1.231136e-03 1.844217e-04 -1.515701e-03)
120           	(2.347659e+02 -1.016117e+01 4.927518e+01)	(2.347647e+02 -1.016136e+01 4.927670e+01)	(1.227317e-03 1.840910e-04 -1.514573e-03)
121           	(2.347657e+02 -1.016112e+01 4.927485e+01)	(2.347645e+02 -1.016130e+01 4.927636e+01)	(1.223390e-03 1.838785e-04 -1.513696e-03)
122           	(2.347654e+02 -1.016106e+01 4.927454e+01)	(2.347642e+02 -1.016124e+01 4.927606e+01)	(1.219409e-03 1.837830e-04 -1.513034e-03)
123           	(2.347652e+02 -1.016099e+01 4.927427e+01)	(2.347639e+02 -1.016117e+01 4.927578e+01)	(1.215377e-03 1.837867e-04 -1.512533e-03)
124           	(2.347649e+02 -1.016092e+01 4.927401e+01)	(2.347637e+02 -1.016111e+01 4.927552e+01)	(1.211286e-03 1.838861e-04 -1.512214e-03)
125           	(2.347646e+02 -1.016086e+01 4.927375e+01)	(2.347634e+02 -1.016104e+01 4.927526e+01)	(1.207114e-03 1.840709e-04 -1.512047e-03)
126           	(2.347643e+02 -1.016079e+01 4.927349e+01)	(2.347631e+02 -1.016097e+01 4.927501e+01)	(1.202850e-03 1.843322e-04 -1.512021e-03)
127           	(2.347639e+02 -1.016072e+01 4.927323e+01)	(2.347627e+02 -1.016090e+01 4.927474e+01)	(1.198470e-03 1.846560e-04 -1.512131e-03)
128           	(2.347636e+02 -1.016065e+01 4.927296e+01)	(2.347624e+02 -1.016083e+01 4.927447e+01)	(1.193966e-03 1.850333e-04 -1.512378e-03)
129           	(2.347632e+02 -1.016058e+01 4.927267e+01)	(2.347620e+02 -1.016076e+01 4.927418e+01)	(1.189338e-03 1.854562e-04 -1.512774e-03)
130           	(2.347628e+02 -1.016051e+01 4.927237e+01)	(2.347616e+02 -1.016070e+01 4.927388e+01)	(1.184604e-03 1.859132e-04 -1.513330e-03)
131           	(2.347624e+02 -1.016045e+01 4.927205e+01)	(2.347613e+02 -1.016064e+01 4.927356e+01)	(1.179791e-03 1.863946e-04 -1.514045e-03)
132           	(2.347620e+02 -1.016039e+01 4.927171e+01)	(2.347609e+02 -1.016058e+01 4.927322e+01)	(1.174927e-03 1.868893e-04 -1.514918e-03)
133           	(2.347616e+02 -1.016034e+01 4.927136e+01)	(2.347605e+02 -1.016053e+01 4.927288e+01)	(1.170045e-03 1.873809e-04 -1.515909e-03)
134           	(2.347612e+02 -1.016029e+01 4.927100e+01)	(2.347600e+02 -1.016047e+01 4.927252e+01)	(1.165164e-03 1.878522e-04 -1.516993e-03)
135           	(2.347608e+02 -1.016024e+01 4.927064e+01)	(2.347596e+02 -1.016042e+01 4.927215e+01)	(1.160327e-03 1.882921e-04 -1.518082e-03)
136           	(2.347604e+02 -1.016019e+01 4.927026e+01)	(2.347592e+02 -1.016038e+01 4.927178e+01)	(1.155524e-03 1.886891e-04 -1.519117e-03)
137           	(2.347599e+02 -1.016014e+01 4.926989e+01)	(2.347588e+02 -1.016033e+01 4.927141e+01)	(1.150728e-03 1.890323e-04 -1.520027e-03)
138           	(2.347595e+02 -1.016010e+01 4.926952e+01)	(2.347584e+02 -1.016029e+01 4.927104e+01)	(1.145904e-03 1.893231e-04 -1.520786e-03)
139           	(2.347591e+02 -1.016005e+01 4.926915e+01)	(2.347579e+02 -1.016024e+01 4.927067e+01)	(1.141025e-03 1.895678e-04 -1.521331e-03)
140           	(2.347586e+02 -1.016000e+01 4.926879e+01)	(2.347575e+02 -1.016019e+01 4.927031e+01)	(1.136094e-03 1.897818e-04 -1.521632e-03)
141           	(2.347582e+02 -1.015996e+01 4.926844e+01)	(2.347570e+02 -1.016015e+01 4.926997e+01)	(1.131101e-03 1.899900e-04 -1.521660e-03)
142           	(2.347577e+02 -1.015991e+01 4.926811e+01)	(2.347566e+02 -1.016010e+01 4.926963e+01)	(1.126014e-03 1.902045e-04 -1.521450e-03)
143           	(2.347572e+02 -1.015985e+01 4.926778e+01)	(2.347561e+02 -1.016004e+01 4.926931e+01)	(1.120799e-03 1.904427e-04 -1.520981e-03)
144           	(2.347567e+02 -1.015980e+01 4.926747e+01)	(2.347556e+02 -1.015999e+01 4.926899e+01)	(1.115412e-03 1.907040e-04 -1.520293e-03)
145           	(2.347562e+02 -1.015974e+01 4.926717e+01)	(2.347551e+02 -1.015993e+01 4.926869e+01)	(1.109827e-03 1.909956e-04 -1.519377e-03)
146           	(2.347557e+02 -1.015967e+01 4.926688e+01)	(2.347546e+02 -1.015987e+01 4.926840e+01)	(1.104046e-03 1.913118e-04 -1.518261e-03)
147           	(2.347552e+02 -1.015961e+01 4.926660e+01)	(2.347541e+02 -1.015980e+01 4.926812e+01)	(1.098071e-03 1.916645e-04 -1.516980e-03)
148           	(2.347547e+02 -1.015954e+01 4.926634e+01)	(2.347536e+02 -1.015973e+01 4.926786e+01)	(1.091920e-03 1.920511e-04 -1.515581e-03)
149           	(2.347541e+02 -1.015947e+01 4.926609e+01)	(2.347530e+02 -1.015966e+01 4.926760e+01)	(1.085612e-03 1.924785e-04 -1.514037e-03)
150           	(2.347533e+02 -1.015940e+01 4.926571e+01)	(2.347522e+02 -1.015959e+01 4.926722e+01)	(1.079141e-03 1.929798e-04 -1.512615e-03)
151           	(2.347528e+02 -1.015932e+01 4.926550e+01)	(2.347517e+02 -1.015951e+01 4.926701e+01)	(1.072604e-03 1.935079e-04 -1.510973e-03)
152           	(2.347522e+02 -1.015924e+01 4.926530e+01)	(2.347511e+02 -1.015943e+01 4.926681e+01)	(1.066035e-03 1.940597e-04 -1.509197e-03)
153           	(2.347516e+02 -1.015916e+01 4.926511e+01)	(2.347505e+02 -1.015935e+01 4.926662e+01)	(1.059398e-03 1.946449e-04 -1.507318e-03)
154           	(2.347510e+02 -1.015907e+01 4.926493e+01)	(2.347500e+02 -1.015927e+01 4.926643e+01)	(1.052693e-03 1.952633e-04 -1.505377e-03)
155           	(2.347502e+02 -1.015899e+01 4.926456e+01)	(2.347491e+02 -1.015919e+01 4.926606e+01)	(1.045836e-03 1.959697e-04 -1.503627e-03)
156           	(2.347496e+02 -1.015890e+01 4.926439e+01)	(2.347486e+02 -1.015910e+01 4.926589e+01)	(1.038924e-03 1.967029e-04 -1.501653e-03)
157           	(2.347491e+02 -1.015881e+01 4.926422e+01)	(2.347480e+02 -1.015900e+01 4.926572e+01)	(1.031983e-03 1.974797e-04 -1.499494e-03)
158           	(2.347482e+02 -1.015870e+01 4.926388e+01)	(2.347472e+02 -1.015890e+01 4.926538e+01)	(1.024869e-03 1.983648e-04 -1.497502e-03)
159           	(2.347477e+02 -1.015860e+01 4.926372e+01)	(2.347467e+02 -1.015880e+01 4.926522e+01)	(1.017739e-03 1.993106e-04 -1.495318e-03)
160           	(2.347472e+02 -1.015849e+01 4.926357e+01)	(2.347462e+02 -1.015869e+01 4.926506e+01)	(1.010648e-03 2.003273e-04 -1.493012e-03)
161           	(2.347467e+02 -1.015838e+01 4.926341e+01)	(2.347457e+02 -1.015858e+01 4.926490e+01)	(1.003561e-03 2.014325e-04 -1.490602e-03)
162           	(2.347460e+02 -1.015827e+01 4.926308e+01)	(2.347450e+02 -1.015847e+01 4.926457e+01)	(9.964055e-04 2.026825e-04 -1.488397e-03)
163           	(2.347455e+02 -1.015814e+01 4.926292e+01)	(2.347446e+02 -1.015835e+01 4.926441e+01)	(9.892464e-04 2.040123e-04 -1.485983e-03)
164           	(2.347451e+02 -1.015801e+01 4.926276e+01)	(2.347441e+02 -1.015822e+01 4.926424e+01)	(9.820960e-04 2.054262e-04 -1.483420e-03)
165           	(2.347445e+02 -1.015787e+01 4.926244e+01)	(2.347435e+02 -1.015808e+01 4.926392e+01)	(9.748484e-04 2.069851e-04 -1.480982e-03)
166           	(2.347441e+02 -1.015772e+01 4.926226e+01)	(2.347431e+02 -1.015793e+01 4.926374e+01)	(9.675035e-04 2.086374e-04 -1.478346e-03)
167           	(2.347436e+02 -1.015755e+01 4.926207e+01)	(2.347427e+02 -1.015776e+01 4.926354e+01)	(9.600580e-04 2.104104e-04 -1.475623e-03)
168           	(2.347432e+02 -1.015737e+01 4.926184e+01)	(2.347422e+02 -1.015758e+01 4.926332e+01)	(9.524311e-04 2.123337e-04 -1.472907e-03)
169           	(2.347427e+02 -1.015718e+01 4.926154e+01)	(2.347417e+02 -1.015739e+01 4.926301e+01)	(9.445320e-04 2.144365e-04 -1.470288e-03)
170           	(2.347420e+02 -1.015698e+01 4.926108e+01)	(2.347410e+02 -1.015719e+01 4.926254e+01)	(9.362564e-04 2.167742e-04 -1.467993e-03)
171           	(2.347414e+02 -1.015675e+01 4.926073e+01)	(2.347405e+02 -1.015697e+01 4.926219e+01)	(9.275557e-04 2.192939e-04 -1.465652e-03)
172           	(2.347409e+02 -1.015652e+01 4.926031e+01)	(2.347400e+02 -1.015674e+01 4.926177e+01)	(9.183008e-04 2.220100e-04 -1.463367e-03)
173           	(2.347403e+02 -1.015627e+01 4.925983e+01)	(2.347394e+02 -1.015650e+01 4.926129e+01)	(9.083496e-04 2.249291e-04 -1.461187e-03)
174           	(2.347397e+02 -1.015602e+01 4.925928e+01)	(2.347388e+02 -1.015625e+01 4.926074e+01)	(8.975594e-04 2.280384e-04 -1.459101e-03)
175           	(2.347390e+02 -1.015576e+01 4.925867e+01)	(2.347381e+02 -1.015599e+01 4.926013e+01)	(8.858943e-04 2.313419e-04 -1.457132e-03)
176           	(2.347383e+02 -1.015549e+01 4.925801e+01)	(2.347374e+02 -1.015572e+01 4.925947e+01)	(8.732968e-04 2.348374e-04 -1.455276e-03)
177           	(2.347376e+02 -1.015521e+01 4.925731e+01)	(2.347368e+02 -1.015545e+01 4.925876e+01)	(8.597583e-04 2.385272e-04 -1.453500e-03)
178           	(2.347369e+02 -1.015492e+01 4.925659e+01)	(2.347360e+02 -1.015517e+01 4.925804e+01)	(8.452773e-04 2.424100e-04 -1.451820e-03)
179           	(2.347362e+02 -1.015463e+01 4.925584e+01)	(2.347353e+02 -1.015487e+01 4.925729e+01)	(8.297657e-04 2.464862e-04 -1.450277e-03)
180           	(2.347354e+02 -1.015432e+01 4.925509e+01)	(2.347346e+02 -1.015457e+01 4.925653e+01)	(8.132736e-04 2.507551e-04 -1.448826e-03)
181           	(2.347347e+02 -1.015400e+01 4.925434e+01)	(2.347339e+02 -1.015426e+01 4.925578e+01)	(7.959615e-04 2.552476e-04 -1.447428e-03)
182           	(2.347340e+02 -1.015367e+01 4.925359e+01)	(2.347332e+02 -1.015393e+01 4.925504e+01)	(7.781316e-04 2.600055e-04 -1.446049e-03)
183           	(2.347333e+02 -1.015332e+01 4.925286e+01)	(2.347326e+02 -1.015359e+01 4.925431e+01)	(7.600403e-04 2.650593e-04 -1.444639e-03)
184           	(2.347327e+02 -1.015297e+01 4.925217e+01)	(2.347320e+02 -1.015324e+01 4.925361e+01)	(7.419529e-04 2.704112e-04 -1.443222e-03)
185           	(2.347321e+02 -1.015261e+01 4.925150e+01)	(2.347314e+02 -1.015289e+01 4.925294e+01)	(7.240374e-04 2.760206e-04 -1.441874e-03)
186           	(2.347316e+02 -1.015227e+01 4.925088e+01)	(2.347309e+02 -1.015255e+01 4.925232e+01)	(7.065520e-04 2.818300e-04 -1.440617e-03)
187           	(2.347312e+02 -1.015194e+01 4.925032e+01)	(2.347305e+02 -1.015222e+01 4.925176e+01)	(6.897723e-04 2.877638e-04 -1.439437e-03)
188           	(2.347309e+02 -1.015163e+01 4.924984e+01)	(2.347302e+02 -1.015192e+01 4.925128e+01)	(6.738898e-04 2.937221e-04 -1.438257e-03)
189           	(2.347307e+02 -1.015135e+01 4.924949e+01)	(2.347300e+02 -1.015165e+01 4.925093e+01)	(6.591174e-04 2.996149e-04 -1.436966e-03)
190           	(2.347305e+02 -1.015110e+01 4.924928e+01)	(2.347299e+02 -1.015141e+01 4.925071e+01)	(6.455368e-04 3.053536e-04 -1.435487e-03)
191           	(2.347304e+02 -1.015089e+01 4.924920e+01)	(2.347298e+02 -1.015120e+01 4.925063e+01)	(6.332126e-04 3.108649e-04 -1.433799e-03)
192           	(2.347305e+02 -1.015071e+01 4.924925e+01)	(2.347299e+02 -1.015103e+01 4.925069e+01)	(6.221268e-04 3.160733e-04 -1.431911e-03)
193           	(2.347306e+02 -1.015057e+01 4.924946e+01)	(2.347300e+02 -1.015089e+01 4.925089e+01)	(6.122429e-04 3.209044e-04 -1.429839e-03)
194           	(2.347308e+02 -1.015047e+01 4.924982e+01)	(2.347302e+02 -1.015079e+01 4.925125e+01)	(6.035707e-04 3.252859e-04 -1.427606e-03)
195           	(2.347312e+02 -1.015041e+01 4.925033e+01)	(2.347306e+02 -1.015074e+01 4.925176e+01)	(5.961678e-04 3.291406e-04 -1.425213e-03)
196           	(2.347316e+02 -1.015040e+01 4.925102e+01)	(2.347310e+02 -1.015074e+01 4.925245e+01)	(5.901292e-04 3.323848e-04 -1.422604e-03)
197           	(2.347321e+02 -1.015044e+01 4.925190e+01)	(2.347315e+02 -1.015078e+01 4.925332e+01)	(5.856127e-04 3.349539e-04 -1.419662e-03)
198           	(2.347331e+02 -1.015051e+01 4.925324e+01)	(2.347325e+02 -1.015084e+01 4.925465e+01)	(5.827837e-04 3.367182e-04 -1.415742e-03)
199           	(2.347337e+02 -1.015062e+01 4.925436e+01)	(2.347331e+02 -1.015096e+01 4.925577e+01)	(5.815092e-04 3.378462e-04 -1.411692e-03)
200           	(2.347347e+02 -1.015074e+01 4.925578e+01)	(2.347342e+02 -1.015107e+01 4.925719e+01)	(5.817215e-04 3.382653e-04 -1.406953e-03)
201           	(2.347353e+02 -1.015087e+01 4.925682e+01)	(2.347347e+02 -1.015121e+01 4.925822e+01)	(5.830649e-04 3.382111e-04 -1.402433e-03)
202           	(2.347358e+02 -1.015100e+01 4.925783e+01)	(2.347352e+02 -1.015134e+01 4.925923e+01)	(5.854237e-04 3.377484e-04 -1.397998e-03)
203           	(2.347362e+02 -1.015111e+01 4.925887e+01)	(2.347356e+02 -1.015145e+01 4.926026e+01)	(5.886900e-04 3.369603e-04 -1.393455e-03)
204           	(2.347370e+02 -1.015120e+01 4.925995e+01)	(2.347364e+02 -1.015153e+01 4.926134e+01)	(5.925721e-04 3.358871e-04 -1.388534e-03)
205           	(2.347373e+02 -1.015128e+01 4.926067e+01)	(2.347367e+02 -1.015162e+01 4.926205e+01)	(5.967389e-04 3.347168e-04 -1.383936e-03)
206           	(2.347376e+02 -1.015135e+01 4.926129e+01)	(2.347370e+02 -1.015169e+01 4.926267e+01)	(6.010071e-04 3.335038e-04 -1.379549e-03)
207           	(2.347379e+02 -1.015141e+01 4.926182e+01)	(2.347373e+02 -1.015174e+01 4.926319e+01)	(6.052368e-04 3.323013e-04 -1.375298e-03)
208           	(2.347381e+02 -1.015146e+01 4.926226e+01)	(2.347375e+02 -1.015179e+01 4.926363e+01)	(6.093654e-04 3.311422e-04 -1.371100e-03)
209           	(2.347384e+02 -1.015150e+01 4.926264e+01)	(2.347377e+02 -1.015183e+01 4.926401e+01)	(6.133689e-04 3.300372e-04 -1.366891e-03)
210           	(2.347385e+02 -1.015154e+01 4.926292e+01)	(2.347379e+02 -1.015187e+01 4.926429e+01)	(6.171691e-04 3.290063e-04 -1.362672e-03)
211           	(2.347387e+02 -1.015158e+01 4.926314e+01)	(2.347381e+02 -1.015191e+01 4.926450e+01)	(6.207549e-04 3.280550e-04 -1.358450e-03)