# Moment      
# CofR        : (0.000000e+00 0.000000e+00 0.000000e+00)
#
# Time        	(total_x total_y total_z)	(pressure_x pressure_y pressure_z)	(viscous_x viscous_y viscous_z)
1             	(-9.603390e-01 1.909902e+00 -1.334961e-03)	(-9.600809e-01 1.906698e+00 -1.339765e-03)	(-2.580893e-04 3.203946e-03 4.804065e-06)
2             	(-8.624641e-01 1.647505e+00 -1.923765e-02)	(-8.625964e-01 1.645478e+00 -1.924977e-02)	(1.323215e-04 2.027075e-03 1.211727e-05)
3             	(-5.520687e-01 1.035077e+00 -6.138259e-02)	(-5.525437e-01 1.034001e+00 -6.132982e-02)	(4.750609e-04 1.075754e-03 -5.277204e-05)
4             	(-2.020726e-01 3.127836e-01 -1.295676e-01)	(-2.027565e-01 3.122897e-01 -1.293577e-01)	(6.838687e-04 4.939106e-04 -2.098322e-04)
5             	(1.014816e-01 -3.257920e-01 -1.961582e-01)	(1.007382e-01 -3.260386e-01 -1.956329e-01)	(7.433943e-04 2.465751e-04 -5.252582e-04)
6             	(2.796118e-01 -6.907283e-01 -2.265582e-01)	(2.790497e-01 -6.911699e-01 -2.256927e-01)	(5.621154e-04 4.415392e-04 -8.654460e-04)
7             	(3.271884e-01 -7.485744e-01 -1.973842e-01)	(3.269273e-01 -7.495658e-01 -1.963478e-01)	(2.610625e-04 9.914305e-04 -1.036331e-03)
8             	(2.811312e-01 -6.138790e-01 -1.350518e-01)	(2.812425e-01 -6.155742e-01 -1.340920e-01)	(-1.112948e-04 1.695264e-03 -9.597757e-04)
9             	(1.775478e-01 -3.642166e-01 -5.301461e-02)	(1.778942e-01 -3.663876e-01 -5.212513e-02)	(-3.464377e-04 2.170992e-03 -8.894784e-04)
10            	(4.992970e-02 -7.817590e-02 2.679679e-02)	(5.036195e-02 -8.049639e-02 2.776731e-02)	(-4.322464e-04 2.320490e-03 -9.705197e-04)
11            	(-5.768908e-02 1.460486e-01 6.819990e-02)	(-5.730540e-02 1.438469e-01 6.913878e-02)	(-3.836794e-04 2.201717e-03 -9.388820e-04)
12            	(-1.235204e-01 2.702761e-01 6.734923e-02)	(-1.232582e-01 2.683737e-01 6.809926e-02)	(-2.622721e-04 1.902384e-03 -7.500284e-04)
13            	(-1.410363e-01 2.912063e-01 3.882214e-02)	(-1.409198e-01 2.896973e-01 3.932275e-02)	(-1.165176e-04 1.509016e-03 -5.006024e-04)
14            	(-1.259205e-01 2.452576e-01 -6.062111e-03)	(-1.259220e-01 2.441373e-01 -5.707655e-03)	(1.506726e-06 1.120370e-03 -3.544562e-04)
15            	(-9.200726e-02 1.634560e-01 -5.098985e-02)	(-9.209647e-02 1.626589e-01 -5.068082e-02)	(8.920390e-05 7.970348e-04 -3.090278e-04)
16            	(-5.033161e-02 7.253723e-02 -8.718926e-02)	(-5.047822e-02 7.195349e-02 -8.681053e-02)	(1.466081e-04 5.837485e-04 -3.787277e-04)
17            	(-1.439209e-02 -1.614660e-03 -1.032305e-01)	(-1.455027e-02 -2.119525e-03 -1.027203e-01)	(1.581787e-04 5.048651e-04 -5.101567e-04)
18            	(1.023723e-02 -4.740304e-02 -1.042917e-01)	(1.009974e-02 -4.793175e-02 -1.036621e-01)	(1.374882e-04 5.287013e-04 -6.295573e-04)
19            	(2.155744e-02 -6.320751e-02 -9.282772e-02)	(2.146380e-02 -6.381568e-02 -9.211460e-02)	(9.364323e-05 6.081680e-04 -7.131143e-04)
20            	(2.100787e-02 -5.399684e-02 -7.574983e-02)	(2.096306e-02 -5.469630e-02 -7.499007e-02)	(4.480885e-05 6.994621e-04 -7.597612e-04)
21            	(1.443582e-02 -3.222270e-02 -5.719829e-02)	(1.443212e-02 -3.298975e-02 -5.641844e-02)	(3.701816e-06 7.670476e-04 -7.798500e-04)
22            	(4.180014e-03 -3.320546e-03 -4.208038e-02)	(4.199532e-03 -4.119930e-03 -4.130333e-02)	(-1.951763e-05 7.993843e-04 -7.770523e-04)
23            	(-6.498457e-03 2.448711e-02 -3.275794e-02)	(-6.475610e-03 2.369309e-02 -3.200261e-02)	(-2.284669e-05 7.940186e-04 -7.553254e-04)
24            	(-1.360968e-02 4.215863e-02 -3.223722e-02)	(-1.360232e-02 4.140371e-02 -3.151019e-02)	(-7.356172e-06 7.549155e-04 -7.270215e-04)
25            	(-1.737542e-02 5.117138e-02 -3.635681e-02)	(-1.739653e-02 5.047200e-02 -3.565617e-02)	(2.111158e-05 6.993794e-04 -7.006391e-04)
26            	(-1.851635e-02 5.360721e-02 -4.307261e-02)	(-1.856985e-02 5.296517e-02 -4.238635e-02)	(5.350521e-05 6.420421e-04 -6.862613e-04)
27            	(-1.651658e-02 4.966892e-02 -4.725782e-02)	(-1.659838e-02 4.907601e-02 -4.657304e-02)	(8.180397e-05 5.929028e-04 -6.847817e-04)
28            	(-1.388366e-02 4.311140e-02 -5.273084e-02)	(-1.398580e-02 4.255955e-02 -5.203019e-02)	(1.021361e-04 5.518514e-04 -7.006490e-04)
29            	(-1.138453e-02 3.750571e-02 -5.562430e-02)	(-1.149726e-02 3.697155e-02 -5.490392e-02)	(1.127324e-04 5.341578e-04 -7.203869e-04)
30            	(-8.062873e-03 3.007964e-02 -5.636785e-02)	(-8.180352e-03 2.955536e-02 -5.562350e-02)	(1.174792e-04 5.242793e-04 -7.443572e-04)
31            	(-5.655906e-03 2.522543e-02 -5.576184e-02)	(-5.774220e-03 2.470072e-02 -5.499846e-02)	(1.183137e-04 5.247101e-04 -7.633796e-04)
32            	(-4.131478e-03 2.285370e-02 -5.392615e-02)	(-4.250256e-03 2.232687e-02 -5.314972e-02)	(1.187787e-04 5.268311e-04 -7.764247e-04)
33            	(-3.464117e-03 2.275012e-02 -5.127814e-02)	(-3.584640e-03 2.222285e-02 -5.049720e-02)	(1.205228e-04 5.272700e-04 -7.809441e-04)
34            	(-3.596425e-03 2.375041e-02 -4.981284e-02)	(-3.720940e-03 2.322699e-02 -4.903419e-02)	(1.245154e-04 5.234260e-04 -7.786422e-04)
35            	(-3.965623e-03 2.543603e-02 -4.839721e-02)	(-4.096074e-03 2.491983e-02 -4.762637e-02)	(1.304508e-04 5.162047e-04 -7.708344e-04)
36            	(-4.355678e-03 2.736609e-02 -4.709570e-02)	(-4.494905e-03 2.686008e-02 -4.633636e-02)	(1.392274e-04 5.060118e-04 -7.593418e-04)
37            	(-4.779792e-03 2.950674e-02 -4.595735e-02)	(-4.929158e-03 2.901259e-02 -4.521142e-02)	(1.493658e-04 4.941518e-04 -7.459364e-04)
38            	(-5.427457e-03 3.212556e-02 -4.504974e-02)	(-5.586256e-03 3.164278e-02 -4.431818e-02)	(1.587987e-04 4.827821e-04 -7.315638e-04)
39            	(-6.266337e-03 3.484900e-02 -4.457539e-02)	(-6.432262e-03 3.437510e-02 -4.385854e-02)	(1.659254e-04 4.738985e-04 -7.168520e-04)
40            	(-7.162383e-03 3.736581e-02 -4.442475e-02)	(-7.332470e-03 3.689743e-02 -4.372199e-02)	(1.700876e-04 4.683769e-04 -7.027535e-04)
41            	(-7.984773e-03 3.952561e-02 -4.442620e-02)	(-8.156045e-03 3.905996e-02 -4.373646e-02)	(1.712712e-04 4.656490e-04 -6.897363e-04)
42            	(-8.651807e-03 4.143380e-02 -4.452097e-02)	(-8.822360e-03 4.096826e-02 -4.384387e-02)	(1.705526e-04 4.655389e-04 -6.771076e-04)
43            	(-9.160928e-03 4.325819e-02 -4.458431e-02)	(-9.329866e-03 4.278978e-02 -4.391985e-02)	(1.689373e-04 4.684111e-04 -6.644566e-04)
44            	(-9.529450e-03 4.507197e-02 -4.470285e-02)	(-9.696114e-03 4.459845e-02 -4.405032e-02)	(1.666639e-04 4.735223e-04 -6.525368e-04)
45            	(-9.621061e-03 4.689001e-02 -4.459349e-02)	(-9.785381e-03 4.641007e-02 -4.395175e-02)	(1.643194e-04 4.799340e-04 -6.417444e-04)
46            	(-9.353367e-03 4.877660e-02 -4.421900e-02)	(-9.515463e-03 4.829000e-02 -4.358617e-02)	(1.620960e-04 4.865962e-04 -6.328307e-04)
47            	(-8.687546e-03 5.074459e-02 -4.368226e-02)	(-8.848239e-03 5.025182e-02 -4.305626e-02)	(1.606928e-04 4.927634e-04 -6.260061e-04)
48            	(-7.674049e-03 5.277639e-02 -4.316935e-02)	(-7.834260e-03 5.227795e-02 -4.254848e-02)	(1.602102e-04 4.984374e-04 -6.208715e-04)
49            	(-6.236864e-03 5.517241e-02 -4.260768e-02)	(-6.397356e-03 5.466860e-02 -4.199042e-02)	(1.604919e-04 5.038158e-04 -6.172528e-04)
50            	(-4.399579e-03 5.804581e-02 -4.199188e-02)	(-4.561354e-03 5.753619e-02 -4.137750e-02)	(1.617750e-04 5.096262e-04 -6.143779e-04)
51            	(-2.256019e-03 6.144577e-02 -4.132263e-02)	(-2.420355e-03 6.092881e-02 -4.071164e-02)	(1.643360e-04 5.169598e-04 -6.109893e-04)
52            	(4.162524e-05 6.534523e-02 -4.062871e-02)	(-1.266446e-04 6.481833e-02 -4.002240e-02)	(1.682699e-04 5.268917e-04 -6.063088e-04)
53            	(2.277888e-03 6.961560e-02 -4.002263e-02)	(2.104414e-03 6.907540e-02 -3.942279e-02)	(1.734741e-04 5.402025e-04 -5.998401e-04)
54            	(4.446104e-03 7.658961e-02 -3.923267e-02)	(4.266239e-03 7.602930e-02 -3.864180e-02)	(1.798645e-04 5.603181e-04 -5.908744e-04)
55            	(5.869971e-03 7.976524e-02 -3.935993e-02)	(5.683615e-03 7.918348e-02 -3.877848e-02)	(1.863561e-04 5.817585e-04 -5.814507e-04)
56            	(6.961694e-03 8.251231e-02 -3.993455e-02)	(6.767883e-03 8.190897e-02 -3.936208e-02)	(1.938110e-04 6.033469e-04 -5.724641e-04)
57            	(7.830094e-03 8.485521e-02 -4.102527e-02)	(7.628860e-03 8.423013e-02 -4.046038e-02)	(2.012348e-04 6.250795e-04 -5.648897e-04)
58            	(8.593000e-03 8.679862e-02 -4.266627e-02)	(8.385118e-03 8.615197e-02 -4.210680e-02)	(2.078814e-04 6.466560e-04 -5.594700e-04)
59            	(9.351449e-03 8.836736e-02 -4.486287e-02)	(9.138109e-03 8.769934e-02 -4.430641e-02)	(2.133398e-04 6.680184e-04 -5.564585e-04)
60            	(1.015687e-02 8.957516e-02 -4.755089e-02)	(9.939408e-03 8.888616e-02 -4.699500e-02)	(2.174665e-04 6.889971e-04 -5.558941e-04)
61            	(1.102977e-02 9.043063e-02 -5.058921e-02)	(1.080966e-02 8.972137e-02 -5.003159e-02)	(2.201160e-04 7.092657e-04 -5.576262e-04)
62            	(1.197105e-02 9.099848e-02 -5.380864e-02)	(1.174968e-02 9.026964e-02 -5.324753e-02)	(2.213748e-04 7.288395e-04 -5.611143e-04)
63            	(1.300827e-02 9.134592e-02 -5.696848e-02)	(1.278638e-02 9.059791e-02 -5.640267e-02)	(2.218829e-04 7.480114e-04 -5.658059e-04)
64            	(1.417271e-02 9.154351e-02 -5.982207e-02)	(1.395042e-02 9.077662e-02 -5.925002e-02)	(2.222903e-04 7.668900e-04 -5.720458e-04)
65            	(1.550011e-02 9.165687e-02 -6.219530e-02)	(1.527705e-02 9.087187e-02 -6.161606e-02)	(2.230693e-04 7.850041e-04 -5.792385e-04)
66            	(1.701591e-02 9.172436e-02 -6.398516e-02)	(1.679057e-02 9.092276e-02 -6.339864e-02)	(2.253423e-04 8.016034e-04 -5.865131e-04)
67            	(1.874317e-02 9.175427e-02 -6.515770e-02)	(1.851266e-02 9.093826e-02 -6.456318e-02)	(2.305164e-04 8.160084e-04 -5.945181e-04)
68            	(2.067787e-02 9.173178e-02 -6.575736e-02)	(2.044000e-02 9.090438e-02 -6.515326e-02)	(2.378694e-04 8.273988e-04 -6.041061e-04)
69            	(2.279265e-02 9.163400e-02 -6.589614e-02)	(2.254669e-02 9.079808e-02 -6.528185e-02)	(2.459604e-04 8.359225e-04 -6.142919e-04)
70            	(2.503308e-02 9.144435e-02 -6.574774e-02)	(2.477895e-02 9.060207e-02 -6.512403e-02)	(2.541325e-04 8.422827e-04 -6.237146e-04)
71            	(2.735688e-02 9.112333e-02 -6.552819e-02)	(2.709437e-02 9.027618e-02 -6.489685e-02)	(2.625064e-04 8.471487e-04 -6.313352e-04)
72            	(2.966263e-02 9.071547e-02 -6.535111e-02)	(2.939113e-02 8.986441e-02 -6.471440e-02)	(2.714978e-04 8.510641e-04 -6.367054e-04)
73            	(3.184494e-02 9.026938e-02 -6.534486e-02)	(3.156312e-02 8.941501e-02 -6.470447e-02)	(2.818203e-04 8.543694e-04 -6.403967e-04)
74            	(3.380833e-02 8.982380e-02 -6.553039e-02)	(3.351450e-02 8.896710e-02 -6.488667e-02)	(2.938230e-04 8.566953e-04 -6.437176e-04)
75            	(3.550175e-02 8.937383e-02 -6.595690e-02)	(3.519487e-02 8.851565e-02 -6.530993e-02)	(3.068798e-04 8.581892e-04 -6.469722e-04)
76            	(3.683817e-02 8.902222e-02 -6.655072e-02)	(3.651805e-02 8.816294e-02 -6.590107e-02)	(3.201190e-04 8.592822e-04 -6.496478e-04)
77            	(3.782039e-02 8.878576e-02 -6.725195e-02)	(3.748796e-02 8.792669e-02 -6.659972e-02)	(3.324240e-04 8.590619e-04 -6.522343e-04)
78            	(3.849565e-02 8.865707e-02 -6.803139e-02)	(3.815331e-02 8.780071e-02 -6.737493e-02)	(3.423411e-04 8.563587e-04 -6.564647e-04)
79            	(3.891939e-02 8.871011e-02 -6.882211e-02)	(3.857036e-02 8.785846e-02 -6.815973e-02)	(3.490381e-04 8.516498e-04 -6.623757e-04)
80            	(3.922318e-02 8.884347e-02 -6.971752e-02)	(3.886973e-02 8.799744e-02 -6.904837e-02)	(3.534530e-04 8.460211e-04 -6.691506e-04)
81            	(3.946439e-02 8.912768e-02 -7.069284e-02)	(3.910768e-02 8.828649e-02 -7.001667e-02)	(3.567194e-04 8.411878e-04 -6.761703e-04)
82            	(3.974611e-02 8.949761e-02 -7.182964e-02)	(3.938653e-02 8.865959e-02 -7.114646e-02)	(3.595790e-04 8.380168e-04 -6.831765e-04)
83            	(4.013227e-02 8.990640e-02 -7.317391e-02)	(3.976945e-02 8.906921e-02 -7.248371e-02)	(3.628208e-04 8.371883e-04 -6.901958e-04)
84            	(4.065570e-02 9.027629e-02 -7.473810e-02)	(4.028895e-02 8.943737e-02 -7.404048e-02)	(3.667482e-04 8.389191e-04 -6.976177e-04)
85            	(4.131807e-02 9.052718e-02 -7.649572e-02)	(4.094660e-02 8.968410e-02 -7.578988e-02)	(3.714701e-04 8.430777e-04 -7.058402e-04)
86            	(4.209226e-02 9.058804e-02 -7.839453e-02)	(4.171520e-02 8.973880e-02 -7.767938e-02)	(3.770630e-04 8.492382e-04 -7.151484e-04)
87            	(4.293469e-02 9.040755e-02 -8.037277e-02)	(4.255107e-02 8.955082e-02 -7.964715e-02)	(3.836199e-04 8.567215e-04 -7.256187e-04)
88            	(4.383773e-02 8.985501e-02 -8.250069e-02)	(4.344660e-02 8.899053e-02 -8.176351e-02)	(3.911253e-04 8.644792e-04 -7.371823e-04)
89            	(4.466417e-02 8.908628e-02 -8.435570e-02)	(4.426497e-02 8.821478e-02 -8.360686e-02)	(3.992030e-04 8.714955e-04 -7.488434e-04)
90            	(4.550880e-02 8.780039e-02 -8.628069e-02)	(4.510133e-02 8.692435e-02 -8.552028e-02)	(4.074712e-04 8.760453e-04 -7.604086e-04)
91            	(4.620766e-02 8.624130e-02 -8.796940e-02)	(4.579242e-02 8.536407e-02 -8.719816e-02)	(4.152463e-04 8.772370e-04 -7.712472e-04)
92            	(4.671084e-02 8.449066e-02 -8.932815e-02)	(4.628938e-02 8.361598e-02 -8.854626e-02)	(4.214516e-04 8.746764e-04 -7.818919e-04)
93            	(4.690110e-02 8.287861e-02 -9.021090e-02)	(4.647541e-02 8.201036e-02 -8.941838e-02)	(4.256986e-04 8.682516e-04 -7.925202e-04)
94            	(4.682177e-02 8.121313e-02 -9.082613e-02)	(4.639437e-02 8.035598e-02 -9.002219e-02)	(4.274076e-04 8.571557e-04 -8.039391e-04)
95            	(4.651746e-02 7.930100e-02 -9.129780e-02)	(4.609146e-02 7.845973e-02 -9.048130e-02)	(4.260012e-04 8.412743e-04 -8.164978e-04)
96            	(4.587333e-02 7.783405e-02 -9.150584e-02)	(4.545141e-02 7.701030e-02 -9.067724e-02)	(4.219148e-04 8.237486e-04 -8.285913e-04)
97            	(4.495896e-02 7.652857e-02 -9.162800e-02)	(4.454300e-02 7.572217e-02 -9.078923e-02)	(4.159608e-04 8.064017e-04 -8.387624e-04)
98            	(4.381479e-02 7.530104e-02 -9.174557e-02)	(4.340632e-02 7.451099e-02 -9.089887e-02)	(4.084664e-04 7.900454e-04 -8.466986e-04)
99            	(4.246670e-02 7.437852e-02 -9.193495e-02)	(4.206673e-02 7.360321e-02 -9.108246e-02)	(3.999639e-04 7.753091e-04 -8.524952e-04)
100           	(4.095880e-02 7.364404e-02 -9.225122e-02)	(4.056768e-02 7.288192e-02 -9.139472e-02)	(3.911219e-04 7.621185e-04 -8.565048e-04)
101           	(3.932541e-02 7.308749e-02 -9.275986e-02)	(3.894309e-02 7.233705e-02 -9.190075e-02)	(3.823191e-04 7.504390e-04 -8.591150e-04)
102           	(3.760199e-02 7.268994e-02 -9.348012e-02)	(3.722835e-02 7.194982e-02 -9.261925e-02)	(3.736446e-04 7.401168e-04 -8.608740e-04)
103           	(3.582431e-02 7.243718e-02 -9.443265e-02)	(3.545905e-02 7.170624e-02 -9.357037e-02)	(3.652567e-04 7.309348e-04 -8.622832e-04)
104           	(3.402351e-02 7.231627e-02 -9.562621e-02)	(3.366619e-02 7.159350e-02 -9.476231e-02)	(3.573203e-04 7.227650e-04 -8.638987e-04)
105           	(3.224064e-02 7.230323e-02 -9.705255e-02)	(3.189078e-02 7.158772e-02 -9.618640e-02)	(3.498574e-04 7.155062e-04 -8.661547e-04)
106           	(3.050863e-02 7.238238e-02 -9.867890e-02)	(3.016569e-02 7.167332e-02 -9.780965e-02)	(3.429385e-04 7.090587e-04 -8.692455e-04)
107           	(2.883871e-02 7.255935e-02 -1.004939e-01)	(2.850206e-02 7.185580e-02 -9.962060e-02)	(3.366529e-04 7.035473e-04 -8.733060e-04)
108           	(2.727749e-02 7.274243e-02 -1.023605e-01)	(2.694663e-02 7.204347e-02 -1.014819e-01)	(3.308568e-04 6.989553e-04 -8.785877e-04)
109           	(2.583338e-02 7.290099e-02 -1.042063e-01)	(2.550799e-02 7.220580e-02 -1.033212e-01)	(3.253944e-04 6.951836e-04 -8.851506e-04)
110           	(2.450711e-02 7.301765e-02 -1.059659e-01)	(2.418705e-02 7.232560e-02 -1.050730e-01)	(3.200536e-04 6.920453e-04 -8.928730e-04)
111           	(2.329925e-02 7.307823e-02 -1.075856e-01)	(2.298467e-02 7.238901e-02 -1.066841e-01)	(3.145743e-04 6.892208e-04 -9.015194e-04)
112           	(2.219150e-02 7.308728e-02 -1.090092e-01)	(2.188284e-02 7.240099e-02 -1.080984e-01)	(3.086576e-04 6.862893e-04 -9.107820e-04)
113           	(2.130447e-02 7.291778e-02 -1.101536e-01)	(2.100216e-02 7.223512e-02 -1.092331e-01)	(3.023173e-04 6.826619e-04 -9.205050e-04)
114           	(2.055541e-02 7.268433e-02 -1.110493e-01)	(2.026004e-02 7.200632e-02 -1.101189e-01)	(2.953728e-04 6.780041e-04 -9.304710e-04)
115           	(1.994670e-02 7.239558e-02 -1.116675e-01)	(1.965902e-02 7.172335e-02 -1.107270e-01)	(2.876786e-04 6.722308e-04 -9.404905e-04)
116           	(1.947378e-02 7.206630e-02 -1.119817e-01)	(1.919464e-02 7.140099e-02 -1.110314e-01)	(2.791389e-04 6.653151e-04 -9.503701e-04)
117           	(1.919613e-02 7.167429e-02 -1.119025e-01)	(1.892616e-02 7.101695e-02 -1.109425e-01)	(2.699701e-04 6.573419e-04 -9.600543e-04)
118           	(1.906596e-02 7.132869e-02 -1.115377e-01)	(1.880546e-02 7.068017e-02 -1.105680e-01)	(2.604983e-04 6.485200e-04 -9.696456e-04)
119           	(1.907561e-02 7.096174e-02 -1.108554e-01)	(1.882451e-02 7.032260e-02 -1.098763e-01)	(2.511029e-04 6.391466e-04 -9.790468e-04)
120           	(1.918672e-02 7.067004e-02 -1.099168e-01)	(1.894460e-02 7.004019e-02 -1.089289e-01)	(2.421174e-04 6.298555e-04 -9.879640e-04)
121           	(1.935994e-02 7.045918e-02 -1.087731e-01)	(1.912611e-02 6.983807e-02 -1.077770e-01)	(2.338321e-04 6.211143e-04 -9.961211e-04)
122           	(1.956870e-02 7.031298e-02 -1.074615e-01)	(1.934224e-02 6.969993e-02 -1.064581e-01)	(2.264576e-04 6.130495e-04 -1.003416e-03)
123           	(1.976617e-02 7.025672e-02 -1.060627e-01)	(1.954613e-02 6.965082e-02 -1.050529e-01)	(2.200373e-04 6.058965e-04 -1.009758e-03)
124           	(1.990753e-02 7.030693e-02 -1.046521e-01)	(1.969293e-02 6.970687e-02 -1.036371e-01)	(2.145970e-04 6.000561e-04 -1.015019e-03)
125           	(1.997529e-02 7.044210e-02 -1.032730e-01)	(1.976522e-02 6.984640e-02 -1.022539e-01)	(2.100648e-04 5.957000e-04 -1.019061e-03)
126           	(1.994706e-02 7.065434e-02 -1.019917e-01)	(1.974065e-02 7.006139e-02 -1.009701e-01)	(2.064040e-04 5.929446e-04 -1.021521e-03)
127           	(1.980759e-02 7.093036e-02 -1.008563e-01)	(1.960384e-02 7.033846e-02 -9.983443e-02)	(2.037483e-04 5.919048e-04 -1.021923e-03)
128           	(1.954971e-02 7.125479e-02 -9.990109e-02)	(1.934748e-02 7.066236e-02 -9.888080e-02)	(2.022296e-04 5.924301e-04 -1.020281e-03)
129           	(1.917342e-02 7.161257e-02 -9.914665e-02)	(1.897157e-02 7.101846e-02 -9.812954e-02)	(2.018490e-04 5.941096e-04 -1.017116e-03)
130           	(1.868278e-02 7.198883e-02 -9.860358e-02)	(1.848045e-02 7.139240e-02 -9.759041e-02)	(2.023378e-04 5.964364e-04 -1.013169e-03)
131           	(1.808076e-02 7.237218e-02 -9.828461e-02)	(1.787743e-02 7.177281e-02 -9.727605e-02)	(2.033330e-04 5.993743e-04 -1.008563e-03)
132           	(1.737481e-02 7.274812e-02 -9.817781e-02)	(1.717028e-02 7.214520e-02 -9.717431e-02)	(2.045306e-04 6.029235e-04 -1.003494e-03)
133           	(1.655949e-02 7.314802e-02 -9.824092e-02)	(1.635356e-02 7.254072e-02 -9.724308e-02)	(2.059284e-04 6.072962e-04 -9.978388e-04)
134           	(1.567464e-02 7.349953e-02 -9.843666e-02)	(1.546733e-02 7.288730e-02 -9.744469e-02)	(2.073022e-04 6.122310e-04 -9.919727e-04)
135           	(1.474993e-02 7.377359e-02 -9.872196e-02)	(1.454161e-02 7.315647e-02 -9.773546e-02)	(2.083166e-04 6.171215e-04 -9.865053e-04)
136           	(1.381673e-02 7.394635e-02 -9.905134e-02)	(1.360794e-02 7.332474e-02 -9.806950e-02)	(2.087964e-04 6.216084e-04 -9.818309e-04)
137           	(1.290768e-02 7.400465e-02 -9.937303e-02)	(1.269896e-02 7.337901e-02 -9.839502e-02)	(2.087141e-04 6.256437e-04 -9.780113e-04)
138           	(1.205120e-02 7.394348e-02 -9.963589e-02)	(1.184329e-02 7.331453e-02 -9.866067e-02)	(2.079153e-04 6.289529e-04 -9.752243e-04)
139           	(1.127360e-02 7.376379e-02 -9.978807e-02)	(1.106710e-02 7.313246e-02 -9.881472e-02)	(2.065057e-04 6.313302e-04 -9.733551e-04)
140           	(1.061236e-02 7.343617e-02 -9.980700e-02)	(1.040778e-02 7.280364e-02 -9.883479e-02)	(2.045721e-04 6.325344e-04 -9.722097e-04)
141           	(1.007441e-02 7.301448e-02 -9.962601e-02)	(9.872122e-03 7.238189e-02 -9.865460e-02)	(2.022899e-04 6.325890e-04 -9.714091e-04)
142           	(9.687747e-03 7.251878e-02 -9.920733e-02)	(9.487967e-03 7.188730e-02 -9.823654e-02)	(1.997798e-04 6.314828e-04 -9.707837e-04)
143           	(9.479022e-03 7.197144e-02 -9.854750e-02)	(9.281783e-03 7.134225e-02 -9.757723e-02)	(1.972390e-04 6.291995e-04 -9.702690e-04)
144           	(9.468096e-03 7.140591e-02 -9.763654e-02)	(9.273362e-03 7.078007e-02 -9.666675e-02)	(1.947342e-04 6.258390e-04 -9.697816e-04)
145           	(9.674110e-03 7.085285e-02 -9.648218e-02)	(9.481929e-03 7.023125e-02 -9.551309e-02)	(1.921808e-04 6.216004e-04 -9.690930e-04)
146           	(1.010066e-02 7.035702e-02 -9.512846e-02)	(9.911040e-03 6.974035e-02 -9.416071e-02)	(1.896227e-04 6.166778e-04 -9.677551e-04)
147           	(1.074223e-02 6.995918e-02 -9.361804e-02)	(1.055506e-02 6.934790e-02 -9.265257e-02)	(1.871615e-04 6.112796e-04 -9.654644e-04)
148           	(1.158313e-02 6.968345e-02 -9.202263e-02)	(1.139820e-02 6.907780e-02 -9.106050e-02)	(1.849326e-04 6.056474e-04 -9.621340e-04)
149           	(1.259582e-02 6.955027e-02 -9.040740e-02)	(1.241274e-02 6.895017e-02 -8.944977e-02)	(1.830740e-04 6.001042e-04 -9.576257e-04)
150           	(1.376561e-02 6.952714e-02 -8.881307e-02)	(1.358393e-02 6.893230e-02 -8.786117e-02)	(1.816787e-04 5.948434e-04 -9.518939e-04)
151           	(1.502302e-02 6.964684e-02 -8.733069e-02)	(1.484217e-02 6.905687e-02 -8.638575e-02)	(1.808522e-04 5.899739e-04 -9.449399e-04)
152           	(1.631290e-02 6.990625e-02 -8.600760e-02)	(1.613211e-02 6.932062e-02 -8.507081e-02)	(1.807901e-04 5.856379e-04 -9.367918e-04)
153           	(1.760174e-02 7.026262e-02 -8.485647e-02)	(1.742014e-02 6.968066e-02 -8.392879e-02)	(1.816059e-04 5.819627e-04 -9.276799e-04)
154           	(1.876512e-02 7.079509e-02 -8.392490e-02)	(1.858180e-02 7.021576e-02 -8.300713e-02)	(1.833256e-04 5.793333e-04 -9.177719e-04)
155           	(1.982825e-02 7.138280e-02 -8.318900e-02)	(1.964228e-02 7.080499e-02 -8.228152e-02)	(1.859755e-04 5.778131e-04 -9.074763e-04)
156           	(2.074857e-02 7.199109e-02 -8.266394e-02)	(2.055898e-02 7.141362e-02 -8.176669e-02)	(1.895912e-04 5.774753e-04 -8.972486e-04)
157           	(2.149329e-02 7.258819e-02 -8.236663e-02)	(2.129921e-02 7.200984e-02 -8.147895e-02)	(1.940752e-04 5.783542e-04 -8.876776e-04)
158           	(2.203578e-02 7.314142e-02 -8.231381e-02)	(2.183663e-02 7.256110e-02 -8.143457e-02)	(1.991513e-04 5.803219e-04 -8.792383e-04)
159           	(2.235988e-02 7.362185e-02 -8.251628e-02)	(2.215543e-02 7.303887e-02 -8.164416e-02)	(2.044502e-04 5.829723e-04 -8.721211e-04)
160           	(2.246059e-02 7.400687e-02 -8.297063e-02)	(2.225101e-02 7.342104e-02 -8.210418e-02)	(2.095800e-04 5.858271e-04 -8.664496e-04)
161           	(2.233204e-02 7.429475e-02 -8.368453e-02)	(2.211783e-02 7.370619e-02 -8.282211e-02)	(2.142085e-04 5.885620e-04 -8.624131e-04)
162           	(2.198705e-02 7.447562e-02 -8.460048e-02)	(2.176890e-02 7.388465e-02 -8.374027e-02)	(2.181521e-04 5.909708e-04 -8.602059e-04)
163           	(2.144449e-02 7.455013e-02 -8.567063e-02)	(2.122334e-02 7.395722e-02 -8.481076e-02)	(2.211548e-04 5.929086e-04 -8.598649e-04)
164           	(2.073783e-02 7.451566e-02 -8.685395e-02)	(2.051485e-02 7.392139e-02 -8.599275e-02)	(2.229783e-04 5.942719e-04 -8.611949e-04)
165           	(1.990254e-02 7.438587e-02 -8.809541e-02)	(1.967902e-02 7.379087e-02 -8.723149e-02)	(2.235244e-04 5.949987e-04 -8.639218e-04)
166           	(1.897799e-02 7.419118e-02 -8.932668e-02)	(1.875518e-02 7.359620e-02 -8.845879e-02)	(2.228013e-04 5.949838e-04 -8.678865e-04)
167           	(1.802763e-02 7.394296e-02 -9.050728e-02)	(1.780669e-02 7.334877e-02 -8.963442e-02)	(2.209338e-04 5.941897e-04 -8.728607e-04)
168           	(1.710355e-02 7.368541e-02 -9.157497e-02)	(1.688541e-02 7.309267e-02 -9.069660e-02)	(2.181378e-04 5.927407e-04 -8.783650e-04)
169           	(1.626420e-02 7.345697e-02 -9.248585e-02)	(1.604945e-02 7.286608e-02 -9.160205e-02)	(2.147559e-04 5.908902e-04 -8.838044e-04)
170           	(1.556327e-02 7.329427e-02 -9.320736e-02)	(1.535207e-02 7.270536e-02 -9.231856e-02)	(2.112036e-04 5.889055e-04 -8.887993e-04)
171           	(1.504163e-02 7.322617e-02 -9.372366e-02)	(1.483384e-02 7.263912e-02 -9.283063e-02)	(2.077961e-04 5.870455e-04 -8.930269e-04)
172           	(1.472397e-02 7.327051e-02 -9.403484e-02)	(1.451919e-02 7.268496e-02 -9.313861e-02)	(2.047733e-04 5.855498e-04 -8.962279e-04)
173           	(1.461400e-02 7.343051e-02 -9.415691e-02)	(1.441165e-02 7.284590e-02 -9.325855e-02)	(2.023481e-04 5.846069e-04 -8.983607e-04)
174           	(1.469866e-02 7.369654e-02 -9.411927e-02)	(1.449808e-02 7.311221e-02 -9.321989e-02)	(2.005888e-04 5.843269e-04 -8.993775e-04)
175           	(1.494710e-02 7.404607e-02 -9.396223e-02)	(1.474756e-02 7.346128e-02 -9.306291e-02)	(1.995355e-04 5.847885e-04 -8.993128e-04)
176           	(1.531113e-02 7.444424e-02 -9.372852e-02)	(1.511200e-02 7.385827e-02 -9.283006e-02)	(1.991330e-04 5.859661e-04 -8.984562e-04)
177           	(1.575079e-02 7.485915e-02 -9.346568e-02)	(1.555150e-02 7.427136e-02 -9.256860e-02)	(1.992883e-04 5.877895e-04 -8.970853e-04)
178           	(1.622091e-02 7.525693e-02 -9.321572e-02)	(1.602109e-02 7.466687e-02 -9.232025e-02)	(1.998210e-04 5.900618e-04 -8.954788e-04)
179           	(1.668138e-02 7.560451e-02 -9.301895e-02)	(1.648081e-02 7.501193e-02 -9.212508e-02)	(2.005736e-04 5.925809e-04 -8.938748e-04)
180           	(1.709612e-02 7.587513e-02 -9.290569e-02)	(1.689469e-02 7.527994e-02 -9.201320e-02)	(2.014298e-04 5.951824e-04 -8.924884e-04)
181           	(1.744152e-02 7.605223e-02 -9.289407e-02)	(1.723918e-02 7.545455e-02 -9.200265e-02)	(2.023397e-04 5.976821e-04 -8.914193e-04)
182           	(1.771254e-02 7.612777e-02 -9.299406e-02)	(1.750933e-02 7.552788e-02 -9.210315e-02)	(2.032062e-04 5.998983e-04 -8.909027e-04)
183           	(1.791642e-02 7.610679e-02 -9.319855e-02)	(1.771254e-02 7.550516e-02 -9.230739e-02)	(2.038808e-04 6.016353e-04 -8.911574e-04)
184           	(1.806923e-02 7.600278e-02 -9.348807e-02)	(1.786503e-02 7.540006e-02 -9.259567e-02)	(2.041974e-04 6.027280e-04 -8.924051e-04)
185           	(1.819371e-02 7.583737e-02 -9.383053e-02)	(1.798970e-02 7.523431e-02 -9.293574e-02)	(2.040118e-04 6.030580e-04 -8.947943e-04)
186           	(1.831543e-02 7.564050e-02 -9.418298e-02)	(1.811215e-02 7.503788e-02 -9.328465e-02)	(2.032815e-04 6.026252e-04 -8.983245e-04)
187           	(1.846601e-02 7.543669e-02 -9.450218e-02)	(1.826394e-02 7.483514e-02 -9.359936e-02)	(2.020760e-04 6.015545e-04 -9.028231e-04)
188           	(1.867244e-02 7.525451e-02 -9.473992e-02)	(1.847191e-02 7.465445e-02 -9.383184e-02)	(2.005334e-04 6.000692e-04 -9.080737e-04)
189           	(1.895611e-02 7.511936e-02 -9.485294e-02)	(1.875726e-02 7.452094e-02 -9.393915e-02)	(1.988557e-04 5.984227e-04 -9.137924e-04)
190           	(1.933666e-02 7.503561e-02 -9.481651e-02)	(1.913945e-02 7.443886e-02 -9.389687e-02)	(1.972151e-04 5.967500e-04 -9.196320e-04)
191           	(1.981102e-02 7.504729e-02 -9.460561e-02)	(1.961524e-02 7.445199e-02 -9.368043e-02)	(1.957842e-04 5.952918e-04 -9.251727e-04)
192           	(2.038774e-02 7.514090e-02 -9.421759e-02)	(2.019299e-02 7.454667e-02 -9.328751e-02)	(1.947432e-04 5.942274e-04 -9.300763e-04)
193           	(2.105746e-02 7.531552e-02 -9.366788e-02)	(2.086329e-02 7.472184e-02 -9.273375e-02)	(1.941697e-04 5.936754e-04 -9.341300e-04)
194           	(2.181208e-02 7.554939e-02 -9.294878e-02)	(2.161802e-02 7.495570e-02 -9.201170e-02)	(1.940580e-04 5.936842e-04 -9.370775e-04)
195           	(2.261923e-02 7.584190e-02 -9.212071e-02)	(2.242490e-02 7.524758e-02 -9.118183e-02)	(1.943383e-04 5.943209e-04 -9.388782e-04)
196           	(2.345275e-02 7.617383e-02 -9.121886e-02)	(2.325772e-02 7.557824e-02 -9.027919e-02)	(1.950322e-04 5.955952e-04 -9.396624e-04)
197           	(2.428018e-02 7.652220e-02 -9.028877e-02)	(2.408398e-02 7.592472e-02 -8.934918e-02)	(1.961994e-04 5.974849e-04 -9.395837e-04)
198           	(2.506490e-02 7.686780e-02 -8.939111e-02)	(2.486702e-02 7.626788e-02 -8.845234e-02)	(1.978736e-04 5.999190e-04 -9.387635e-04)
199           	(2.578384e-02 7.717711e-02 -8.856161e-02)	(2.558389e-02 7.657437e-02 -8.762423e-02)	(1.999552e-04 6.027344e-04 -9.373775e-04)
200           	(2.641288e-02 7.743353e-02 -8.783655e-02)	(2.621052e-02 7.682780e-02 -8.690089e-02)	(2.023580e-04 6.057330e-04 -9.356595e-04)
201           	(2.693873e-02 7.762381e-02 -8.723094e-02)	(2.673382e-02 7.701511e-02 -8.629701e-02)	(2.049128e-04 6.086943e-04 -9.339290e-04)
202           	(2.735205e-02 7.773787e-02 -8.675165e-02)	(2.714452e-02 7.712636e-02 -8.581911e-02)	(2.075300e-04 6.115118e-04 -9.325369e-04)
203           	(2.764875e-02 7.776514e-02 -8.639952e-02)	(2.743866e-02 7.715105e-02 -8.546776e-02)	(2.100920e-04 6.140926e-04 -9.317601e-04)
204           	(2.782167e-02 7.770725e-02 -8.617467e-02)	(2.760918e-02 7.709092e-02 -8.524296e-02)	(2.124862e-04 6.163230e-04 -9.317105e-04)
205           	(2.787453e-02 7.756660e-02 -8.606186e-02)	(2.765988e-02 7.694848e-02 -8.512958e-02)	(2.146470e-04 6.181216e-04 -9.322805e-04)
206           	(2.781796e-02 7.735001e-02 -8.603675e-02)	(2.760148e-02 7.673059e-02 -8.510343e-02)	(2.164749e-04 6.194289e-04 -9.333238e-04)
207           	(2.768371e-02 7.700911e-02 -8.607675e-02)	(2.746587e-02 7.638906e-02 -8.514192e-02)	(2.178379e-04 6.200441e-04 -9.348268e-04)
208           	(2.746716e-02 7.667443e-02 -8.613791e-02)	(2.724852e-02 7.605434e-02 -8.520136e-02)	(2.186364e-04 6.200886e-04 -9.365525e-04)
209           	(2.720561e-02 7.630189e-02 -8.619452e-02)	(2.698688e-02 7.568238e-02 -8.525623e-02)	(2.187316e-04 6.195080e-04 -9.382909e-04)
210           	(2.691742e-02 7.592650e-02 -8.619968e-02)	(2.669929e-02 7.530813e-02 -8.525992e-02)	(2.181335e-04 6.183672e-04 -9.397646e-04)