# k  POINT_DATA 51037
# x  y  z  k
0.0130568 0 4.20467e-06 3.98542e-07
-0.0130568 0 4.20224e-06 3.32475e-08
0.0130538 0 6.66496e-06 3.98341e-07
-0.0130538 0 6.66145e-06 3.24572e-08
-0.0130538 0 0.000644966 2.58065e-08
0.0130538 0 0.000645285 3.24168e-07
-0.0130538 0 0.00065941 2.58081e-08
0.0130538 0 0.00065974 3.21779e-07
-0.0130538 0 0.000674665 2.53466e-08
0.0130538 0 0.000675 3.16752e-07
-0.0130603 8.47033e-22 0.000649852 2.5782e-08
0.0130603 0 0.000650175 3.23227e-07
-0.0130603 0 0.000668993 2.54611e-08
0.0130603 0 0.000669326 3.18144e-07
-0.0130709 5.0822e-21 0.000658297 2.88225e-08
0.0130709 -1.43996e-20 0.000658629 3.18183e-07
-0.0130538 0 0.00133823 1.78701e-08
0.0130538 0 0.00133856 2.22524e-07
-0.0130538 -1.69407e-21 0.00135482 1.80693e-08
0.0130538 0 0.00135516 2.24633e-07
-0.0130538 -1.69407e-21 0.00137229 1.78213e-08
0.0130538 1.69407e-21 0.00137264 2.20982e-07
-0.0130609 0 0.00134178 1.78852e-08
0.0130609 0 0.00134211 2.22659e-07
-0.0130605 1.69407e-21 0.00136344 1.78474e-08
0.0130605 0 0.00136379 2.21502e-07
-0.0130744 1.86347e-20 0.00134763 1.7523e-08
0.0130744 5.0822e-21 0.00134797 2.17408e-07
-0.0130556 0 0.00208219 2.21826e-08
0.0130566 4.23516e-22 0.0020858 2.64615e-07
-0.0130676 -4.23516e-22 0.00208096 2.23331e-08
0.0130676 -4.23516e-22 0.00208096 2.67383e-07
-0.0133442 0 8.05854e-08 7.5575e-08
0.0133442 -2.03288e-20 8.05851e-08 4.14306e-07
-0.0133452 0 0.000326595 7.46743e-08
0.0133452 4.51751e-21 0.00032676 4.01276e-07
-0.0133372 -1.12938e-21 0.000960076 2.50552e-08
0.0133372 -3.38813e-21 0.000960432 2.32886e-07
-0.0132973 -2.25875e-21 0.00155434 1.67852e-08
0.0132973 4.51751e-21 0.00155458 2.0123e-07
-0.0132406 -3.38813e-20 0.00216285 2.70629e-08
0.0132406 3.38813e-21 0.00216285 3.45919e-07
-0.0132805 -6.77626e-21 0.00206436 2.54296e-08
0.0132806 -3.38813e-21 0.00206428 3.2624e-07
0.0133175 2.71051e-20 0.00219404 4.47715e-07
-0.0133175 2.71051e-20 0.00219405 3.49132e-08
-0.0133831 4.51751e-21 0.00186926 2.37348e-08
0.0133831 0 0.00186938 3.05356e-07
-0.0135632 2.03288e-20 9.24943e-08 1.7709e-07
0.0135632 -1.35525e-20 9.24941e-08 4.31984e-07
-0.0134965 4.51751e-21 0.00146628 1.06974e-08
0.0134965 2.25875e-21 0.00146652 1.43999e-07
-0.0136117 -6.77626e-21 8.70578e-05 2.30464e-07
0.0136117 6.77626e-21 8.70948e-05 4.29891e-07
-0.0136152 0 8.46271e-08 2.26453e-07
0.0136152 -1.35525e-20 8.46272e-08 4.30566e-07
-0.0136416 0 8.06399e-08 1.81014e-07
0.0136416 1.35525e-20 8.06405e-08 4.64485e-07
-0.0136355 4.06576e-21 0.000679005 8.54325e-08
0.0136355 -3.83988e-21 0.00067928 2.57706e-07
0.0134812 0 0.00226051 6.16105e-07
-0.0134812 2.71051e-20 0.00226053 4.5598e-08
-0.0136197 1.31761e-21 0.00119016 1.20223e-08
0.0136197 3.38813e-21 0.00119046 1.25845e-07
-0.0136061 -4.51751e-21 0.00162993 1.35184e-08
0.0136061 -4.51751e-21 0.00163012 1.85948e-07
0.0137235 -6.77626e-21 7.39517e-08 5.26005e-07
-0.0137235 1.35525e-20 7.39504e-08 1.54397e-07
0.0137252 0 9.16503e-05 5.30361e-07
-0.0137252 0 9.16307e-05 1.53852e-07
-0.0137102 -5.64689e-22 0.00202489 4.74321e-08
0.0137103 0 0.00202497 6.5752e-07
-0.0136752 6.77626e-21 0.00233929 5.34091e-08
0.0136753 6.77626e-21 0.00233932 7.3437e-07
-0.0137679 -6.77626e-21 0.00237695 5.51116e-08
0.013768 0 0.00237697 7.60664e-07
0.0139849 1.35525e-20 0.000399215 5.79548e-07
-0.0139849 -2.71051e-20 0.000399115 1.35763e-07
-0.0139861 4.51751e-21 0.00091313 3.2976e-08
0.0139861 0 0.000913297 1.76485e-07
-0.0139546 9.03502e-21 0.00150392 1.03275e-08
0.0139546 -9.03502e-21 0.00150406 1.45377e-07
-0.0140935 -1.35525e-20 0.000126399 1.66497e-07
0.0140935 -1.35525e-20 0.000126419 7.71482e-07
-0.0141016 -2.71051e-20 1.51491e-08 1.67613e-07
0.0141016 -2.71051e-20 1.51471e-08 7.72254e-07
-0.013961 0 0.00245528 6.05919e-08
0.0139612 -3.38813e-21 0.00245534 8.94208e-07
-0.0141702 0 0.000612168 1.08179e-07
0.0141702 2.71051e-20 0.000612269 5.17381e-07
-0.0139759 0 0.00246133 6.08646e-08
0.0139761 -8.47033e-22 0.00246136 9.02962e-07
-0.0139804 0 0.00244924 6.08755e-08
0.0139805 -2.5411e-21 0.00244934 9.02234e-07
-0.0141583 0 0.00121281 1.3371e-08
0.0141583 0 0.00121293 1.40123e-07
-0.0142138 0 6.98128e-09 1.97776e-07
0.0142138 1.35525e-20 6.9805e-09 9.13685e-07
-0.0141062 -2.71051e-20 0.00185466 2.44466e-08
0.0141063 0 0.00185473 3.65987e-07
-0.0140936 2.25875e-21 0.00222221 5.74713e-08
0.0140937 0 0.00222227 8.4613e-07
0.0143442 2.71051e-20 6.46171e-09 1.13853e-06
-0.0143442 -1.35525e-20 6.46231e-09 2.0533e-07
-0.0141439 6.77626e-21 0.00239274 6.09168e-08
0.014144 0 0.0023928 9.13968e-07
0.014345 0 0.000135094 1.1518e-06
-0.014345 1.35525e-20 0.000135094 2.05779e-07
-0.0141783 1.35525e-20 0.00254352 6.07746e-08
0.0141784 0 0.00254356 9.32731e-07
0.0144148 2.71051e-21 0.000393106 1.2033e-06
-0.0144148 -8.13152e-21 0.000393046 1.78238e-07
-0.0142931 -6.77626e-21 0.00252723 5.79448e-08
0.0142932 -6.77626e-21 0.00252727 9.18134e-07
-0.0142857 0 0.00258704 5.68802e-08
0.0142858 0 0.00258706 9.15491e-07
-0.0145008 4.51751e-21 0.000915437 4.28386e-08
0.0145009 -6.77626e-21 0.000915525 3.39343e-07
-0.0143708 -1.69407e-21 0.00229753 4.95606e-08
0.0143709 0 0.00229758 7.68866e-07
-0.0144716 4.51751e-21 0.00154756 1.18166e-08
0.0144716 4.51751e-21 0.00154763 1.88969e-07
-0.0144657 0 0.00205594 2.48889e-08
0.0144658 -4.51751e-21 0.002056 4.00916e-07
-0.0146705 -2.71051e-20 0.000150455 2.11943e-07
0.0146705 0 0.000150466 1.69395e-06
-0.01468 0 6.30408e-09 2.11636e-07
0.01468 0 6.30387e-09 1.69634e-06
-0.0144708 -1.35525e-20 0.00266196 5.66168e-08
0.014471 0 0.00266201 9.85884e-07
-0.0145058 -8.13152e-21 0.00250608 5.88572e-08
0.0145059 -1.35525e-20 0.00250612 9.76596e-07
0.0148234 -1.35525e-20 5.71489e-09 1.8875e-06
-0.0148234 -2.71051e-20 5.71495e-09 2.1249e-07
-0.0148746 4.51751e-21 0.000558343 1.37678e-07
0.0148746 9.03502e-21 0.000558392 1.26056e-06
-0.0147687 0 0.00191044 2.33063e-08
0.0147687 -2.71051e-20 0.00191049 3.98878e-07
-0.0146404 0 0.00273067 8.07629e-08
0.0146406 2.71051e-20 0.00273071 1.46111e-06
-0.0148827 1.16165e-20 0.0011685 2.38854e-08
0.0148828 0 0.00116856 3.10552e-07
0.0149747 1.35525e-20 4.96058e-09 2.13503e-06
-0.0149747 0 4.96059e-09 2.19693e-07
0.0149752 -1.35525e-20 0.000142276 2.13123e-06
-0.0149752 1.35525e-20 0.000142271 2.19519e-07
-0.0148162 0 0.00236391 4.85751e-08
0.0148163 4.51751e-21 0.00236395 8.46495e-07
-0.0150223 4.51751e-21 0.00156468 1.41244e-08
0.0150223 -9.03502e-21 0.00156474 2.40542e-07
-0.0151425 -2.71051e-20 0.000304852 2.35324e-07
0.0151425 0 0.000304883 2.39628e-06
-0.014892 0 0.00283336 9.29527e-08
0.0148921 6.77626e-21 0.0028334 1.56947e-06
-0.0151422 0 0.000920375 3.36811e-08
0.0151422 0 0.000920434 4.27929e-07
-0.015042 -1.6263e-20 0.00210477 1.86504e-08
0.0150421 1.0842e-20 0.00210482 3.41116e-07
-0.0150532 -4.51751e-21 0.00270351 9.0922e-08
0.0150534 0 0.00270357 1.58678e-06
-0.0150254 1.35525e-20 0.00288744 9.63271e-08
0.0150256 3.38813e-20 0.00288752 1.67641e-06
-0.0153086 1.35525e-20 2.24178e-09 2.39884e-07
0.0153086 0 2.24177e-09 2.64549e-06
-0.0153122 0 0.000140816 2.39898e-07
0.0153122 0 0.000140822 2.64642e-06
0.0154577 0 1.48792e-09 2.82581e-06
-0.0154577 0 1.48787e-09 2.44713e-07
-0.0154655 -4.51751e-21 0.00060398 1.40749e-07
0.0154655 -1.12938e-20 0.000604018 1.70567e-06
-0.0154631 2.25875e-21 0.00123926 2.25716e-08
0.0154631 2.03288e-20 0.00123931 3.75026e-07
-0.0152765 0 0.0029899 1.00672e-07
0.0152766 -2.71051e-20 0.00298996 1.98375e-06
-0.0154691 2.25875e-21 0.00188066 1.10126e-08
0.0154691 -4.51751e-21 0.00188071 2.61322e-07
0.0156043 -1.35525e-20 1.30288e-09 3.06653e-06
-0.0156043 0 1.30283e-09 2.4662e-07
0.0156046 1.35525e-20 0.000132291 3.05997e-06
-0.0156046 -1.35525e-20 0.000132288 2.46513e-07
-0.0153943 -1.35525e-20 0.00303866 9.11571e-08
0.0153944 0 0.00303871 1.76725e-06
-0.0154266 0 0.00293734 9.1115e-08
0.0154267 1.35525e-20 0.00293741 1.76883e-06
-0.0155042 2.25875e-21 0.00256117 5.42579e-08
0.0155043 -3.76459e-21 0.00256122 1.09015e-06
0.0157872 2.71051e-20 0.000299894 3.32528e-06
-0.0157872 2.71051e-20 0.000299869 2.51366e-07
-0.0157972 2.71051e-20 0.000914956 3.7198e-08
0.0157972 0 0.000915008 6.364e-07
-0.015799 -2.71051e-20 0.00156064 1.03018e-08
0.015799 -2.71051e-20 0.00156069 2.54665e-07
-0.0156185 0 0.00313206 8.77739e-08
0.0156185 6.77626e-21 0.00313207 1.81766e-06
-0.0158092 0 0.00221249 1.0069e-08
0.0158093 0 0.00221254 3.13249e-07
-0.0159653 -2.71051e-20 5.84434e-10 2.72088e-07
0.0159653 2.71051e-20 5.84428e-10 3.5551e-06
-0.0159712 0 0.000124936 2.7238e-07
0.0159712 0 0.000124938 3.55643e-06
-0.015693 6.77626e-21 0.00316295 8.97785e-08
0.0156931 0 0.00316301 1.86679e-06
-0.0157206 -6.77626e-21 0.0031026 9.08494e-08
0.0157208 0 0.00310257 1.88233e-06
-0.0158002 0 0.00293364 8.6615e-08
0.0158003 0 0.0029337 1.78551e-06
-0.0157817 6.77626e-21 0.00319963 8.84496e-08
0.015782 0 0.00319974 1.92235e-06
0.0161034 -1.35525e-20 4.04844e-10 3.64917e-06
-0.0161034 -1.35525e-20 4.04848e-10 2.82091e-07
-0.016119 -2.25875e-21 0.000594151 1.67382e-07
0.016119 2.25875e-21 0.000594174 2.22776e-06
-0.01613 9.03502e-21 0.00122518 2.65694e-08
0.01613 0 0.00122521 5.29298e-07
0.0162343 -1.35525e-20 3.59814e-10 3.8223e-06
-0.0162343 -2.71051e-20 3.59814e-10 3.09454e-07
0.0162345 -1.35525e-20 0.000113277 3.81764e-06
-0.0162345 -1.35525e-20 0.000113279 3.08919e-07
-0.0161354 0 0.00188647 1.03646e-08
0.0161355 -9.03502e-21 0.00188651 3.3061e-07
-0.0161281 6.77626e-21 0.00255569 3.22616e-08
0.0161282 -2.25875e-21 0.00255574 8.08013e-07
-0.015998 -1.35525e-20 0.0032882 8.19534e-08
0.0159982 2.71051e-20 0.00328826 1.98485e-06
-0.0160357 0 0.00323052 8.33508e-08
0.0160358 0 0.00323061 2.01512e-06
-0.016091 -1.35525e-20 0.00332623 9.84437e-08
0.0160912 1.35525e-20 0.00332628 2.495e-06
0.0164377 0 0.000292336 4.05699e-06
-0.0164377 -5.42101e-20 0.000292322 3.30877e-07
0.0164553 2.71051e-20 0.000897692 8.246e-07
-0.0164553 2.71051e-20 0.00089766 4.54719e-08
-0.0162072 -1.807e-21 0.00298944 6.5547e-08
0.0162073 0 0.00298952 1.63935e-06
-0.016466 2.71051e-20 0.00154116 1.28333e-08
0.016466 2.71051e-20 0.00154119 3.93799e-07
-0.016253 0 0.00328154 1.0534e-07
0.016253 -1.35525e-20 0.00328162 2.75385e-06
-0.0162529 -2.71051e-20 0.00339231 1.08595e-07
0.016253 -1.35525e-20 0.00339232 2.89303e-06
-0.0164659 -2.71051e-20 0.00220933 8.18696e-09
0.016466 -5.42101e-20 0.00220938 3.58645e-07
-0.0166389 0 1.04271e-10 3.34665e-07
0.0166389 1.35525e-20 1.04262e-10 4.19167e-06
-0.0166447 0 0.000100566 3.34534e-07
0.0166447 0 0.000100563 4.19256e-06
-0.0165069 -2.71051e-20 0.00278852 1.7623e-08
0.016507 0 0.00278859 5.99787e-07
0.0167551 0 6.18359e-11 4.17854e-06
-0.0167551 0 6.18413e-11 3.48283e-07
-0.0167741 6.77626e-21 0.000577078 1.99423e-07
0.0167741 -2.25875e-21 0.000577088 2.58928e-06
-0.0164731 0 0.00325216 1.04755e-07
0.0164733 0 0.00325224 2.87733e-06
-0.0167929 3.38813e-21 0.00119995 3.34955e-08
0.0167929 1.12938e-21 0.00119996 7.11946e-07
-0.0164937 -2.71051e-20 0.00349064 1.23725e-07
0.016494 1.35525e-20 0.00349077 3.49994e-06
0.0168627 -1.35525e-20 5.62475e-11 4.27471e-06
-0.0168627 -1.35525e-20 5.62517e-11 3.53195e-07
0.0168631 0 9.00315e-05 4.274e-06
-0.0168631 -1.35525e-20 9.00368e-05 3.52834e-07
-0.0167974 -2.25875e-21 0.0018671 1.22631e-08
0.0167974 -3.38813e-21 0.00186712 4.75088e-07
-0.016565 0 0.00339846 1.24638e-07
0.0165653 2.71051e-20 0.00339864 3.52676e-06
-0.0168042 -4.51751e-21 0.00251849 1.40551e-08
0.0168043 0 0.00251854 5.47924e-07
-0.0166661 0 0.00356101 1.35373e-07
0.0166663 2.71051e-20 0.00356109 3.94327e-06
-0.0167843 -2.25875e-21 0.00309016 8.03173e-08
0.0167844 -2.25875e-21 0.00309022 2.35542e-06
0.0170872 0 0.000280474 4.41232e-06
-0.0170872 -2.71051e-20 0.000280467 3.55655e-07
0.0171094 -2.71051e-20 0.000869698 9.695e-07
-0.0171094 0 0.000869686 5.70995e-08
-0.017124 0 0.00151088 1.80503e-08
0.017124 2.71051e-20 0.0015109 6.44122e-07
-0.016855 6.77626e-21 0.00363794 1.72581e-07
0.016855 -1.35525e-20 0.00363795 5.10814e-06
-0.0171219 -5.42101e-20 0.00218641 1.00754e-08
0.0171219 0 0.00218644 5.04676e-07
-0.0173128 0 1.50015e-11 3.41839e-07
0.0173128 1.35525e-20 1.49999e-11 4.43862e-06
-0.017316 0 7.61108e-05 3.41462e-07
0.017316 0 7.61049e-05 4.43907e-06
-0.016994 4.51751e-21 0.00347025 1.68149e-07
0.0169942 -9.03502e-21 0.00347044 4.96609e-06
-0.0169523 1.35525e-20 0.00367759 1.79975e-07
0.0169528 1.35525e-20 0.00367779 5.36399e-06
-0.0171196 -2.71051e-20 0.00284364 1.99005e-08
0.0171197 2.71051e-20 0.00284371 7.23584e-07
0.0174041 1.35525e-20 1.00263e-11 4.37397e-06
-0.0174041 1.35525e-20 1.00267e-11 3.4995e-07
0.0174225 -1.12938e-21 0.000552277 2.7834e-06
-0.0174225 0 0.000552274 2.00764e-07
-0.0174465 -3.38813e-21 0.00116234 3.98514e-08
0.0174465 -2.25875e-21 0.00116235 1.00612e-06
0.0174883 0 9.27523e-12 4.4322e-06
-0.0174883 0 9.27554e-12 3.40734e-07
0.0174886 1.35525e-20 6.91564e-05 4.43241e-06
-0.0174886 0 6.91614e-05 3.40592e-07
-0.0174525 1.12938e-21 0.00183359 1.69983e-08
0.0174525 2.25875e-21 0.0018336 7.64589e-07
-0.0171558 -4.06576e-20 0.00376044 1.65376e-07
0.0171561 0 0.00376058 5.00441e-06
-0.0174398 -2.25875e-21 0.00252756 1.6102e-08
0.0174399 4.51751e-21 0.0025276 6.7894e-07
-0.0172703 0 0.00381189 1.6152e-07
0.0172706 1.35525e-20 0.003812 4.86274e-06
-0.0173099 -1.35525e-20 0.00368922 1.62835e-07
0.0173101 0 0.00368943 4.89217e-06
-0.0174177 0 0.0032729 1.00196e-07
0.0174179 -3.76459e-22 0.00327297 3.1095e-06
0.0177262 0 0.000264495 4.46104e-06
-0.0177263 -2.71051e-20 0.000264494 3.24698e-07
0.017753 0 0.000830849 1.1799e-06
-0.017753 2.71051e-20 0.000830841 5.93947e-08
-0.0177738 -2.71051e-20 0.00146634 2.44519e-08
0.0177739 -2.71051e-20 0.00146635 1.1978e-06
-0.0174674 0 0.00388874 1.48988e-07
0.0174675 -6.77626e-21 0.0038888 4.80455e-06
-0.0177697 0 0.00215829 1.55003e-08
0.0177697 2.71051e-20 0.0021583 7.20285e-07
-0.0175192 6.77626e-21 0.0039114 1.49038e-07
0.0175194 0 0.00391155 4.84637e-06
-0.0175515 -3.38813e-21 0.00385282 1.50963e-07
0.0175519 0 0.00385278 4.88993e-06
-0.0177417 2.71051e-20 0.00287714 1.8535e-08
0.0177418 -2.71051e-20 0.0028772 7.64597e-07
0.017981 -6.77626e-21 1.39444e-12 4.2957e-06
-0.017981 -6.77626e-21 1.3943e-12 4.2588e-07
0.0179821 0 5.25103e-05 4.29561e-06
-0.0179821 -6.77626e-21 5.25107e-05 4.25926e-07
-0.0175795 2.03288e-20 0.00394118 1.4573e-07
0.01758 -1.35525e-20 0.00394143 4.81807e-06
-0.0176602 0 0.00367713 1.4731e-07
0.0176605 0 0.00367727 4.73661e-06
0.0180463 0 7.99282e-13 4.23242e-06
-0.0180463 -6.77626e-21 7.99057e-13 4.55192e-07
0.0180587 0 0.000513287 2.96291e-06
-0.0180587 -1.12938e-21 0.000513287 2.69221e-07
0.0181036 0 4.49211e-05 4.26403e-06
-0.0181036 0 4.4918e-05 4.91013e-07
0.0181054 0 7.64381e-13 4.26496e-06
-0.0181054 6.77626e-21 7.64199e-13 4.88295e-07
0.0181063 2.25875e-22 0.00109871 1.83092e-06
-0.0181063 1.35525e-21 0.00109871 5.67065e-08
-0.0181013 -1.12938e-21 0.00178214 2.68785e-08
0.0181014 1.69407e-21 0.00178215 1.36061e-06
-0.0180751 1.12938e-21 0.002514 1.98886e-08
0.0180751 -4.51751e-21 0.00251403 8.16681e-07
-0.0177928 1.35525e-20 0.00406344 1.28508e-07
0.0177931 1.35525e-20 0.00406363 4.6611e-06
-0.0178461 1.35525e-20 0.00400264 1.31659e-07
0.0178465 0 0.00400286 4.7281e-06
-0.018018 -6.77626e-21 0.00326638 6.06098e-08
0.0180181 4.51751e-21 0.00326648 2.04217e-06
0.0183484 -2.71051e-20 0.000235241 4.10131e-06
-0.0183484 2.71051e-20 0.000235238 5.91994e-07
-0.0178962 0 0.00412302 1.41102e-07
0.0178965 0 0.00412318 5.04656e-06
0.0183932 5.42101e-20 0.000764488 1.95452e-06
-0.0183932 -5.42101e-20 0.000764489 8.76763e-08
-0.0180569 -6.77626e-22 0.00374603 1.03815e-07
0.0180571 -1.807e-21 0.00374614 3.70759e-06
-0.0184338 2.71051e-20 0.00138083 4.31552e-08
0.0184338 0 0.00138083 2.5834e-06
-0.0184038 0 0.00212475 2.50944e-08
0.0184038 -5.42101e-20 0.00212477 1.00633e-06
-0.0185327 3.38813e-21 3.11486e-13 4.40691e-07
0.0185329 -3.38813e-21 3.11329e-13 5.34814e-06
-0.0180751 -1.35525e-20 0.00422612 1.5095e-07
0.0180753 -1.35525e-20 0.00422622 5.61928e-06
-0.0183783 2.71051e-20 0.00286013 2.03334e-08
0.0183783 0 0.00286017 7.78745e-07
0.0186585 2.25875e-21 0.000460868 4.58097e-06
-0.0186585 -2.25875e-21 0.000460863 3.16087e-07
-0.0181758 0 0.00428412 1.50534e-07
0.0181761 0 0.00428433 5.73716e-06
-0.0182334 0 0.00409678 1.47406e-07
0.0182336 4.51751e-21 0.00409694 5.53296e-06
-0.0183787 2.71051e-20 0.00352164 2.77703e-08
0.0183789 0 0.00352172 1.23697e-06
-0.018738 0 2.24787e-13 4.40495e-07
0.018738 0 2.24588e-13 5.71615e-06
-0.0187383 -3.38813e-21 1.8583e-05 4.40664e-07
0.0187383 -3.38813e-21 1.85606e-05 5.72209e-06
-0.0187394 0 0.000144294 4.04492e-07
0.0187394 0 0.000144153 5.41147e-06
-0.0187637 0 5.23851e-14 4.45344e-07
0.0187638 0 5.23963e-14 5.80485e-06
0.018782 0 1.5237e-05 5.71938e-06
-0.018782 0 1.52548e-05 4.48324e-07
0.0187834 -3.38813e-21 4.17921e-14 5.71182e-06
-0.0187835 -6.77626e-21 4.1772e-14 4.48514e-07
0.0187414 -1.12938e-22 0.00174786 2.32122e-06
-0.0187414 -1.12938e-22 0.00174787 4.62552e-08
0.0188423 3.38813e-21 3.05852e-14 5.90834e-06
-0.0188424 -3.38813e-21 3.05567e-14 4.54739e-07
-0.0188306 4.51751e-21 0.000951028 1.44211e-07
0.0188306 2.25875e-21 0.000951028 4.55508e-06
-0.0183689 -2.71051e-20 0.00439542 1.40299e-07
0.0183691 -2.71051e-20 0.00439559 5.54134e-06
-0.0187534 2.01675e-22 0.00244424 3.5308e-08
0.0187534 -8.06698e-23 0.00244427 1.20885e-06
-0.0186869 0 0.00320185 2.75504e-08
0.018687 0 0.00320189 9.3006e-07
-0.0184805 1.35525e-20 0.00445982 1.37432e-07
0.0184807 0 0.00445997 5.49043e-06
-0.0185301 0 0.00433158 1.3864e-07
0.0185303 1.35525e-20 0.00433174 5.5174e-06
-0.0186603 4.14105e-21 0.00393311 8.93809e-08
0.0186605 -1.12938e-21 0.0039332 3.54994e-06
0.0191245 5.64689e-22 0.000340867 6.9328e-06
-0.0191245 -8.47033e-22 0.000340856 3.29935e-07
0.0192203 -1.35525e-20 9.46707e-15 6.78683e-06
-0.0192204 2.71051e-20 9.45326e-15 3.83078e-07
-0.0191646 0 0.00146339 7.44685e-08
0.0191646 0 0.00146338 4.47238e-06
-0.0190143 -2.71051e-20 0.00283781 3.6706e-08
0.0190144 -2.71051e-20 0.00283783 9.1965e-07
-0.0186819 0 0.00457601 1.27252e-07
0.0186821 0 0.00457612 5.44211e-06
-0.0187038 0 0.00458864 1.27348e-07
0.018704 1.69407e-21 0.00458877 5.46748e-06
-0.01916 -2.71051e-20 0.00195783 6.76819e-08
0.01916 0 0.00195783 2.47726e-06
-0.0187217 0 0.00456119 1.28174e-07
0.0187219 0 0.00456127 5.49249e-06
-0.0187284 1.01644e-20 0.00460285 1.26309e-07
0.0187286 1.01644e-20 0.00460299 5.44198e-06
-0.0189854 -2.71051e-20 0.00354614 2.52278e-08
0.0189855 -2.71051e-20 0.00354618 7.60928e-07
-0.0188773 4.51751e-21 0.00434122 1.26285e-07
0.0188775 4.51751e-21 0.00434132 5.35332e-06
-0.0193797 2.11758e-22 0.000837433 2.33776e-07
0.0193798 0 0.000837383 7.01779e-06
-0.0193834 -1.05879e-21 0.00085584 2.30982e-07
0.0193835 2.11758e-21 0.000855835 7.02033e-06
-0.0194038 -3.59989e-21 0.000856716 2.3439e-07
0.0194039 -1.27055e-21 0.000856714 7.15537e-06
0.0194237 0 1.54975e-15 8.72691e-06
-0.0194238 -2.71051e-20 1.53986e-15 4.78193e-07
-0.0193729 1.35525e-20 0.00169001 7.91601e-08
0.0193729 0 0.00169001 4.05776e-06
-0.0193777 -7.05861e-22 0.00244586 6.79797e-08
0.0193778 -1.41172e-22 0.00244587 1.97724e-06
-0.0189667 1.35525e-20 0.0047403 1.12301e-07
0.0189668 -1.35525e-20 0.00474041 5.20286e-06
-0.0193197 1.12938e-21 0.00318402 4.56529e-08
0.0193198 0 0.00318404 9.91143e-07
-0.0190326 0 0.0046715 1.15342e-07
0.0190327 0 0.00467159 5.27374e-06
-0.0195819 0 0.00142153 1.01455e-07
0.019582 -2.71051e-20 0.00142152 5.6244e-06
-0.019255 4.51751e-21 0.00392942 6.0272e-08
0.019255 0 0.00392947 2.24775e-06
-0.019653 6.77626e-21 3.99215e-16 4.22113e-07
0.019653 2.03288e-20 4.03295e-16 1.02271e-05
-0.0195685 -5.42101e-20 0.00193727 8.39434e-08
0.0195685 0 0.00193726 3.8419e-06
-0.0190798 2.71051e-20 0.00480552 1.2431e-07
0.0190799 0 0.00480561 5.6733e-06
-0.0197213 -2.25875e-21 0.000269929 4.54308e-07
0.0197213 0 0.000269962 1.17154e-05
-0.0192752 1.35525e-21 0.00441197 9.36994e-08
0.0192754 -1.807e-21 0.00441204 4.13468e-06
0.0198342 0 4.71809e-16 1.31006e-05
-0.0198343 3.38813e-21 4.68213e-16 4.80929e-07
-0.0192473 0 0.00490218 1.37002e-07
0.0192474 -6.77626e-21 0.00490225 6.20152e-06
-0.0196698 2.71051e-20 0.00278692 8.05344e-08
0.0196698 -2.71051e-20 0.00278693 1.50029e-06
-0.0196163 0 0.00353247 4.03409e-08
0.0196163 2.71051e-20 0.0035325 8.09292e-07
-0.019321 -3.38813e-20 0.00494469 1.34807e-07
0.0193211 -6.77626e-21 0.00494477 6.11421e-06
-0.0194215 -9.03502e-21 0.00475386 1.30716e-07
0.0194216 -1.35525e-20 0.00475393 5.85267e-06
-0.0200351 0 -3.2986e-17 5.90155e-07
0.0200352 0 -3.30812e-17 1.70866e-05
-0.0200397 3.38813e-21 0.000879744 3.89667e-07
0.0200398 -2.82344e-22 0.000879732 1.29232e-05
-0.0196209 0 0.00418606 3.16234e-08
0.0196209 2.71051e-20 0.0041861 1.33473e-06
-0.0200081 1.41172e-22 0.00168408 1.26118e-07
0.0200082 -2.82344e-22 0.00168407 5.66031e-06
-0.0200926 -1.35525e-20 6.73548e-05 5.66053e-07
0.0200928 0 6.74599e-05 1.8346e-05
-0.0200965 0 -7.17139e-19 5.66537e-07
0.0200967 0 -7.66423e-19 1.83568e-05
-0.0201334 0 8.6319e-18 5.91655e-07
0.0201336 1.35525e-20 8.60253e-18 1.88236e-05
-0.019508 -1.35525e-20 0.00505259 1.19829e-07
0.0195081 -2.71051e-20 0.00505265 5.50128e-06
-0.0200346 1.12938e-21 0.00229471 1.23348e-07
0.0200346 -3.38813e-21 0.0022947 3.36924e-06
-0.0199605 -1.58113e-21 0.00311687 9.69548e-08
0.0199605 -2.48463e-21 0.00311687 1.50519e-06
-0.0202249 -1.35525e-20 6.9338e-05 6.38952e-07
0.0202254 1.35525e-20 6.9446e-05 2.03282e-05
-0.0202304 0 -1.76858e-17 6.39012e-07
0.0202308 0 -1.76992e-17 2.03302e-05
-0.0199313 -1.12938e-21 0.0038555 5.13161e-08
0.0199314 1.12938e-21 0.00385553 9.42461e-07
-0.0196734 -1.35525e-20 0.00514806 1.23882e-07
0.0196735 2.03288e-20 0.00514812 5.3821e-06
-0.0198941 3.61401e-21 0.00456699 7.06271e-08
0.0198942 1.807e-21 0.00456703 2.86057e-06
-0.0197657 6.77626e-21 0.00520128 1.18179e-07
0.0197658 -1.35525e-20 0.00520135 5.25116e-06
-0.0198217 0 0.00501122 1.15317e-07
0.0198218 0 0.00501128 5.09415e-06
-0.0202896 -2.71051e-20 0.00277321 1.58717e-07
0.0202896 0 0.00277322 2.1928e-06
-0.0202612 0 0.00349053 9.59363e-08
0.0202612 0 0.00349054 8.71155e-07
-0.0199064 0 0.00528243 9.10232e-08
0.0199065 0 0.0052825 4.56413e-06
-0.020245 0 0.0041794 3.9635e-08
0.0202451 -5.42101e-20 0.00417943 7.36401e-07
-0.0206572 -1.0842e-19 0.00171989 2.02668e-07
0.0206573 0 0.00171988 7.65091e-06
-0.0201293 -1.50584e-21 0.00498603 7.37128e-08
0.0201293 -1.50584e-21 0.00498607 3.47236e-06
-0.0200531 0 0.00536707 8.93974e-08
0.0200531 -6.77626e-21 0.00536711 4.7135e-06
0.0206314 2.82344e-22 0.00242248 3.48478e-06
-0.0206314 -7.05861e-23 0.0024225 2.12224e-07
-0.0207755 -5.42101e-20 0.000514971 9.2525e-07
0.0207756 0 0.000514975 3.13358e-05
-0.0205987 -5.64689e-22 0.00311579 1.80942e-07
0.0205987 0 0.00311579 1.63492e-06
-0.0203104 -2.71051e-20 0.00476269 2.4828e-08
0.0203105 0 0.00476272 9.11803e-07
-0.0201708 1.35525e-20 0.00543499 8.68153e-08
0.0201709 2.71051e-20 0.00543504 4.78975e-06
-0.0202176 -9.03502e-21 0.00527687 8.61023e-08
0.0202177 -4.51751e-21 0.00527691 4.65932e-06
-0.0205738 -4.51751e-21 0.0038174 1.07209e-07
0.0205738 -1.12938e-21 0.00381741 8.63385e-07
-0.0205818 1.12938e-21 0.00447088 4.88599e-08
0.0205819 -1.12938e-21 0.0044709 8.54738e-07
-0.0203369 2.71051e-20 0.00553082 7.9925e-08
0.020337 1.35525e-20 0.00553084 4.68579e-06
-0.0209426 -2.71051e-20 0.00274702 2.71355e-07
0.0209426 -2.71051e-20 0.00274701 2.4654e-06
-0.0209032 0 0.00344945 1.92962e-07
0.0209032 -2.71051e-20 0.00344946 1.02023e-06
-0.0204446 1.35525e-20 0.00559295 7.82884e-08
0.0204447 1.35525e-20 0.00559297 4.74585e-06
-0.0204857 0 0.00548988 7.8919e-08
0.0204858 0 0.0054899 4.74586e-06
-0.0206003 -1.50584e-21 0.00512926 5.66042e-08
0.0206004 2.25875e-21 0.00512929 3.01861e-06
-0.0208994 2.71051e-20 0.00412603 1.0103e-07
0.0208995 2.71051e-20 0.00412604 8.30258e-07
-0.0213129 0 8.97568e-05 1.0232e-06
0.0213129 2.71051e-20 8.97114e-05 3.72904e-05
-0.0213195 -1.35525e-20 -2.8926e-18 1.02313e-06
0.0213195 2.71051e-20 -2.81088e-18 3.72862e-05
-0.0213562 4.51751e-21 0.00112757 6.82012e-07
0.0213563 -2.25875e-21 0.00112758 2.44561e-05
-0.0206271 0 0.00569824 7.42129e-08
0.0206272 0 0.00569827 4.73084e-06
-0.0208932 0 0.00478634 3.37491e-08
0.0208932 -2.71051e-20 0.00478636 9.20665e-07
-0.0213143 3.38813e-21 0.00228576 3.4098e-07
0.0213143 1.12938e-21 0.00228575 5.42409e-06
-0.0214402 -1.35525e-20 1.08034e-18 1.05144e-06
0.0214402 0 1.08377e-18 3.86689e-05
-0.0206783 -6.77626e-21 0.00572779 7.4898e-08
0.0206784 0 0.00572782 4.77921e-06
0.0212371 5.64689e-22 0.00307352 2.02562e-06
-0.0212371 -4.23516e-22 0.00307353 3.16478e-07
-0.0207149 -6.77626e-21 0.00567146 7.61517e-08
0.0207149 3.38813e-21 0.00567151 4.81055e-06
-0.0207374 -1.35525e-20 0.00576188 7.37092e-08
0.0207375 0 0.0057619 4.82066e-06
-0.0208292 -3.01167e-21 0.00551236 7.58988e-08
0.0208293 1.50584e-21 0.0055124 4.62417e-06
0.0215471 1.35525e-20 0.000109109 4.01319e-05
-0.0215472 0 0.000109168 1.08631e-06
0.0215567 -1.35525e-20 9.64873e-19 4.01474e-05
-0.0215568 0 9.62135e-19 1.08693e-06
-0.0212592 1.05879e-22 0.00373092 2.32284e-07
0.0212592 0 0.00373093 1.04935e-06
-0.0212041 1.12938e-21 0.0044583 1.10004e-07
0.0212042 3.38813e-21 0.00445832 8.76669e-07
-0.0209534 -1.35525e-20 0.00588666 6.73871e-08
0.0209535 0 0.00588668 4.83709e-06
-0.0211675 2.25875e-21 0.00514627 5.78895e-08
0.0211675 4.51751e-21 0.0051463 2.11459e-06
-0.0210047 1.35525e-20 0.00583277 6.91258e-08
0.0210048 0 0.0058328 4.90424e-06
-0.0216644 0 0.00284436 5.13817e-07
0.0216644 -2.71051e-20 0.00284436 2.87867e-06
-0.0210554 0 0.00594571 7.74367e-08
0.0210555 0 0.00594574 5.36558e-06
-0.0216615 0 0.00329946 4.66595e-07
0.0216616 2.71051e-20 0.00329946 1.38796e-06
-0.0215296 -2.71051e-20 0.00411133 2.20858e-07
0.0215297 2.71051e-20 0.00411133 8.88719e-07
-0.0212153 -4.51751e-22 0.0055934 6.01982e-08
0.0212154 1.35525e-21 0.00559344 3.8337e-06
-0.0219545 5.42101e-20 0.00177021 3.79663e-07
0.0219546 0 0.0017702 1.11625e-05
-0.0220218 -5.42101e-20 0.000571119 1.18381e-06
0.0220218 -5.42101e-20 0.000571112 4.59956e-05
-0.0215067 -2.71051e-20 0.00478713 8.47883e-08
0.0215068 0 0.00478717 8.61213e-07
-0.0219097 8.47033e-22 0.00242093 4.85315e-07
0.0219097 1.69407e-21 0.00242091 5.26109e-06
-0.021227 0 0.00604562 8.7712e-08
0.0212271 0 0.00604568 6.17859e-06
-0.021872 0 0.00306771 5.2615e-07
0.0218721 -1.35525e-20 0.00306771 2.03879e-06
-0.0215266 0 0.00539884 3.31311e-08
0.0215266 0 0.00539887 1.3087e-06
-0.021392 -9.03502e-21 0.0059417 8.58851e-08
0.0213921 -9.03502e-21 0.00594175 6.10229e-06
-0.0218838 -7.05861e-22 0.00375446 4.39751e-07
0.0218838 5.64689e-22 0.00375445 1.19093e-06
-0.0213574 -2.03288e-20 0.0061213 9.03896e-08
0.0213575 -1.35525e-20 0.00612135 6.45415e-06
-0.0218345 -3.38813e-21 0.00443966 2.63189e-07
0.0218345 -3.38813e-21 0.00443967 9.26888e-07
-0.0221011 0 0.00283879 6.2433e-07
0.0221011 2.71051e-20 0.00283879 2.20056e-06
-0.0220656 -2.71051e-20 0.0032889 5.73116e-07
0.0220656 -2.71051e-20 0.0032889 1.69674e-06
-0.0218182 2.25875e-21 0.00510345 1.08386e-07
0.0218183 4.51751e-21 0.00510348 1.04722e-06
-0.0215448 0 0.00623066 8.8286e-08
0.0215449 0 0.00623073 6.35869e-06
-0.0225383 -2.71051e-20 9.17533e-05 1.21661e-06
0.0225385 -1.35525e-20 9.1676e-05 5.15234e-05
-0.0225403 0 1.77341e-19 1.21633e-06
0.0225405 0 1.79243e-19 5.14662e-05
-0.0216442 -1.35525e-20 0.00630958 8.82668e-08
-0.0221735 5.42101e-20 0.00407696 5.09697e-07
0.0221736 2.71051e-20 0.00407697 1.05222e-06
0.0216443 0 0.00630967 6.39363e-06
-0.0216896 -2.71051e-20 0.00619113 8.81766e-08
0.0216897 -1.35525e-20 0.0061912 6.37549e-06
-0.0218102 1.50584e-21 0.00580095 7.32546e-08
0.0218103 -1.12938e-21 0.00580099 3.99471e-06
-0.0225989 0 0.00115697 8.53425e-07
0.0225989 -2.25875e-21 0.00115697 3.33838e-05
-0.0226373 0 8.07387e-20 1.22155e-06
0.0226374 0 8.21344e-20 5.26264e-05
-0.0221352 0 0.00476855 2.38208e-07
0.0221353 2.71051e-20 0.00476855 9.07842e-07
-0.022582 1.12938e-21 0.00236337 6.62745e-07
0.022582 6.77626e-21 0.00236337 7.39221e-06
-0.022501 0 0.00305827 7.58247e-07
0.022501 0 0.00305827 2.12019e-06
-0.0225096 0 0.00305557 7.62061e-07
0.0225095 0 0.00306051 2.12092e-06
-0.0227256 1.35525e-20 8.82297e-05 1.23692e-06
0.0227256 0 8.81536e-05 5.3813e-05
-0.0227308 -2.71051e-20 3.08985e-20 1.23719e-06
0.0227308 -1.35525e-20 3.15503e-20 5.38248e-05
-0.0218386 1.69407e-21 0.00644697 8.54208e-08
0.0218387 0 0.00644705 6.20285e-06
-0.0221178 0 0.00543871 8.63761e-08
0.0221179 -2.71051e-20 0.00543874 1.08671e-06
-0.0218565 0 0.0064596 8.59589e-08
0.0218566 1.69407e-21 0.00645967 6.23293e-06
-0.0218725 1.69407e-21 0.00643778 8.64809e-08
0.0218726 0 0.00643786 6.26102e-06
-0.0218744 8.47033e-21 0.00647346 8.51113e-08
0.0218745 -1.52466e-20 0.00647351 6.17175e-06
-0.0225287 2.25875e-22 0.00364569 7.16534e-07
0.0225287 4.51751e-22 0.00364569 1.51107e-06
-0.0224649 -5.64689e-22 0.00441819 5.49143e-07
0.022465 0 0.00441819 1.09765e-06
-0.0220385 0 0.00622588 8.85371e-08
0.0220386 -1.50584e-21 0.00622593 6.17043e-06
-0.0224373 -1.12938e-21 0.00510163 2.8782e-07
0.0224374 -1.12938e-21 0.00510165 1.01987e-06
-0.022069 1.35525e-20 0.00662862 7.57046e-08
0.0220691 -1.35525e-20 0.00662868 5.5411e-06
-0.0221728 0 0.00656826 7.74711e-08
0.0221729 0 0.00656832 5.60378e-06
-0.0223901 6.77626e-21 0.00581142 1.24347e-07
0.0223902 2.25875e-21 0.00581146 2.63143e-06
-0.0227864 0 0.00407104 8.68148e-07
0.0227864 2.71051e-20 0.00407104 1.33069e-06
-0.0221653 -1.35525e-20 0.00670524 7.65708e-08
0.0221653 0 0.0067053 5.33744e-06
-0.0232274 5.42101e-20 0.000581689 1.27107e-06
0.0232275 5.42101e-20 0.000581683 5.97095e-05
-0.0227665 0 0.00474854 5.66398e-07
0.0227666 0 0.00474855 1.09669e-06
-0.0231993 5.42101e-20 0.00176869 5.53494e-07
0.0231993 0 0.00176868 1.52755e-05
-0.0222608 -1.35525e-20 0.00678083 7.29054e-08
0.0222609 -1.35525e-20 0.0067809 5.04932e-06
-0.0223061 -1.35525e-20 0.00667609 7.52811e-08
0.0223061 0 0.00667615 5.22996e-06
-0.0224559 -8.06698e-23 0.00637515 7.43011e-08
0.0224559 6.45358e-22 0.00637519 4.21226e-06
-0.023153 0 0.00306262 1.17259e-06
0.023153 -5.42101e-20 0.00306262 2.52929e-06
-0.0227373 0 0.00543368 2.63717e-07
0.0227374 0 0.0054337 9.86916e-07
0.0231517 -2.82344e-22 0.00371752 1.75527e-06