# omega  POINT_DATA 51037
# x  y  z  omega
0.0130568 0 4.20467e-06 1612.94
-0.0130568 0 4.20224e-06 1613.42
0.0130538 0 6.66496e-06 1615.94
-0.0130538 0 6.66145e-06 1616.42
-0.0130538 0 0.000644966 2225.95
0.0130538 0 0.000645285 2225.53
-0.0130538 0 0.00065941 2240.47
0.0130538 0 0.00065974 2240.06
-0.0130538 0 0.000674665 2289.06
0.0130538 0 0.000675 2288.66
-0.0130603 8.47033e-22 0.000649852 2234.71
0.0130603 0 0.000650175 2234.3
-0.0130603 0 0.000668993 2277.84
0.0130603 0 0.000669326 2277.43
-0.0130709 5.0822e-21 0.000658297 2210.4
0.0130709 -1.43996e-20 0.000658629 2210.17
-0.0130538 0 0.00133823 3280.23
0.0130538 0 0.00133856 3279.73
-0.0130538 -1.69407e-21 0.00135482 3268.27
0.0130538 0 0.00135516 3267.77
-0.0130538 -1.69407e-21 0.00137229 3320.3
0.0130538 1.69407e-21 0.00137264 3319.85
-0.0130609 0 0.00134178 3282.54
0.0130609 0 0.00134211 3282.05
-0.0130605 1.69407e-21 0.00136344 3311.94
0.0130605 0 0.00136379 3311.49
-0.0130744 1.86347e-20 0.00134763 3195.84
0.0130744 5.0822e-21 0.00134797 3196.19
-0.0130556 0 0.00208219 2051.84
0.0130566 4.23516e-22 0.0020858 2052.39
-0.0130676 -4.23516e-22 0.00208096 2016.76
0.0130676 -4.23516e-22 0.00208096 2017.27
-0.0133442 0 8.05854e-08 1459.92
0.0133442 -2.03288e-20 8.05851e-08 1459.44
-0.0133452 0 0.000326595 1461.07
0.0133452 4.51751e-21 0.00032676 1460.92
-0.0133372 -1.12938e-21 0.000960076 2324.67
0.0133372 -3.38813e-21 0.000960432 2337.48
-0.0132973 -2.25875e-21 0.00155434 2987.61
0.0132973 4.51751e-21 0.00155458 2990.91
-0.0132406 -3.38813e-20 0.00216285 1240.69
0.0132406 3.38813e-21 0.00216285 1241.41
-0.0132805 -6.77626e-21 0.00206436 1241.32
0.0132806 -3.38813e-21 0.00206428 1242.04
0.0133175 2.71051e-20 0.00219404 1496.31
-0.0133175 2.71051e-20 0.00219405 1495.85
-0.0133831 4.51751e-21 0.00186926 1517.65
0.0133831 0 0.00186938 1520.32
-0.0135632 2.03288e-20 9.24943e-08 1126.2
0.0135632 -1.35525e-20 9.24941e-08 1125.64
-0.0134965 4.51751e-21 0.00146628 1526.8
0.0134965 2.25875e-21 0.00146652 1614.02
-0.0136117 -6.77626e-21 8.70578e-05 1032.34
0.0136117 6.77626e-21 8.70948e-05 1031.76
-0.0136152 0 8.46271e-08 1037
0.0136152 -1.35525e-20 8.46272e-08 1036.42
-0.0136416 0 8.06399e-08 1072.04
0.0136416 1.35525e-20 8.06405e-08 1071.52
-0.0136355 4.06576e-21 0.000679005 968.138
0.0136355 -3.83988e-21 0.00067928 980.095
0.0134812 0 0.00226051 1037.38
-0.0134812 2.71051e-20 0.00226053 1036.79
-0.0136197 1.31761e-21 0.00119016 1003.05
0.0136197 3.38813e-21 0.00119046 1023.86
-0.0136061 -4.51751e-21 0.00162993 1118.26
0.0136061 -4.51751e-21 0.00163012 1135.2
0.0137235 -6.77626e-21 7.39517e-08 1029.86
-0.0137235 1.35525e-20 7.39504e-08 1030.33
0.0137252 0 9.16503e-05 1025.86
-0.0137252 0 9.16307e-05 1026.33
-0.0137102 -5.64689e-22 0.00202489 960.47
0.0137103 0 0.00202497 961.437
-0.0136752 6.77626e-21 0.00233929 1138.52
0.0136753 6.77626e-21 0.00233932 1139.06
-0.0137679 -6.77626e-21 0.00237695 1237.93
0.013768 0 0.00237697 1238.45
0.0139849 1.35525e-20 0.000399215 754.979
-0.0139849 -2.71051e-20 0.000399115 752.965
-0.0139861 4.51751e-21 0.00091313 344.683
0.0139861 0 0.000913297 360.192
-0.0139546 9.03502e-21 0.00150392 366.796
0.0139546 -9.03502e-21 0.00150406 382.956
-0.0140935 -1.35525e-20 0.000126399 830.579
0.0140935 -1.35525e-20 0.000126419 830.228
-0.0141016 -2.71051e-20 1.51491e-08 830.591
0.0141016 -2.71051e-20 1.51471e-08 830.244
-0.013961 0 0.00245528 1351.66
0.0139612 -3.38813e-21 0.00245534 1352.13
-0.0141702 0 0.000612168 560.474
0.0141702 2.71051e-20 0.000612269 567.582
-0.0139759 0 0.00246133 1363.43
0.0139761 -8.47033e-22 0.00246136 1363.83
-0.0139804 0 0.00244924 1358.39
0.0139805 -2.5411e-21 0.00244934 1358.82
-0.0141583 0 0.00121281 321.858
0.0141583 0 0.00121293 337.014
-0.0142138 0 6.98128e-09 833.349
0.0142138 1.35525e-20 6.9805e-09 833.084
-0.0141062 -2.71051e-20 0.00185466 678.047
0.0141063 0 0.00185473 691.99
-0.0140936 2.25875e-21 0.00222221 1288.48
0.0140937 0 0.00222227 1290.08
0.0143442 2.71051e-20 6.46171e-09 832.619
-0.0143442 -1.35525e-20 6.46231e-09 832.793
-0.0141439 6.77626e-21 0.00239274 1497.99
0.014144 0 0.0023928 1498.4
0.014345 0 0.000135094 832.695
-0.014345 1.35525e-20 0.000135094 832.866
-0.0141783 1.35525e-20 0.00254352 1664.57
0.0141784 0 0.00254356 1664.93
0.0144148 2.71051e-21 0.000393106 762.858
-0.0144148 -8.13152e-21 0.000393046 760.721
-0.0142931 -6.77626e-21 0.00252723 1836.2
0.0142932 -6.77626e-21 0.00252727 1836.5
-0.0142857 0 0.00258704 1906.74
0.0142858 0 0.00258706 1907.01
-0.0145008 4.51751e-21 0.000915437 258.904
0.0145009 -6.77626e-21 0.000915525 270.756
-0.0143708 -1.69407e-21 0.00229753 1328.81
0.0143709 0 0.00229758 1337.76
-0.0144716 4.51751e-21 0.00154756 243.684
0.0144716 4.51751e-21 0.00154763 258.704
-0.0144657 0 0.00205594 584.195
0.0144658 -4.51751e-21 0.002056 610.227
-0.0146705 -2.71051e-20 0.000150455 838.523
0.0146705 0 0.000150466 838.473
-0.01468 0 6.30408e-09 838.621
0.01468 0 6.30387e-09 838.571
-0.0144708 -1.35525e-20 0.00266196 2128.78
0.014471 0 0.00266201 2129.12
-0.0145058 -8.13152e-21 0.00250608 1981.16
0.0145059 -1.35525e-20 0.00250612 1981.5
0.0148234 -1.35525e-20 5.71489e-09 848.346
-0.0148234 -2.71051e-20 5.71495e-09 848.361
-0.0148746 4.51751e-21 0.000558343 554.247
0.0148746 9.03502e-21 0.000558392 559.186
-0.0147687 0 0.00191044 428.299
0.0147687 -2.71051e-20 0.00191049 442.341
-0.0146404 0 0.00273067 1643.7
0.0146406 2.71051e-20 0.00273071 1644.09
-0.0148827 1.16165e-20 0.0011685 150.158
0.0148828 0 0.00116856 162.295
0.0149747 1.35525e-20 4.96058e-09 855.784
-0.0149747 0 4.96059e-09 855.73
0.0149752 -1.35525e-20 0.000142276 855.637
-0.0149752 1.35525e-20 0.000142271 855.583
-0.0148162 0 0.00236391 1158.34
0.0148163 4.51751e-21 0.00236395 1167.32
-0.0150223 4.51751e-21 0.00156468 181.156
0.0150223 -9.03502e-21 0.00156474 194.521
-0.0151425 -2.71051e-20 0.000304852 861.137
0.0151425 0 0.000304883 861.229
-0.014892 0 0.00283336 1505.83
0.0148921 6.77626e-21 0.0028334 1506.14
-0.0151422 0 0.000920375 147.686
0.0151422 0 0.000920434 158.257
-0.015042 -1.6263e-20 0.00210477 339.99
0.0150421 1.0842e-20 0.00210482 345.657
-0.0150532 -4.51751e-21 0.00270351 1587.07
0.0150534 0 0.00270357 1587.39
-0.0150254 1.35525e-20 0.00288744 1520.16
0.0150256 3.38813e-20 0.00288752 1520.47
-0.0153086 1.35525e-20 2.24178e-09 869.523
0.0153086 0 2.24177e-09 869.652
-0.0153122 0 0.000140816 869.505
0.0153122 0 0.000140822 869.633
0.0154577 0 1.48792e-09 876.528
-0.0154577 0 1.48787e-09 876.39
-0.0154655 -4.51751e-21 0.00060398 515.589
0.0154655 -1.12938e-20 0.000604018 520.884
-0.0154631 2.25875e-21 0.00123926 117.544
0.0154631 2.03288e-20 0.00123931 129.484
-0.0152765 0 0.0029899 1605.52
0.0152766 -2.71051e-20 0.00298996 1605.85
-0.0154691 2.25875e-21 0.00188066 155.557
0.0154691 -4.51751e-21 0.00188071 168.483
0.0156043 -1.35525e-20 1.30288e-09 881.446
-0.0156043 0 1.30283e-09 881.249
0.0156046 1.35525e-20 0.000132291 881.177
-0.0156046 -1.35525e-20 0.000132288 880.981
-0.0153943 -1.35525e-20 0.00303866 1799.85
0.0153944 0 0.00303871 1800.08
-0.0154266 0 0.00293734 1794.11
0.0154267 1.35525e-20 0.00293741 1794.35
-0.0155042 2.25875e-21 0.00256117 1037.89
0.0155043 -3.76459e-21 0.00256122 1049.92
0.0157872 2.71051e-20 0.000299894 890.067
-0.0157872 2.71051e-20 0.000299869 889.833
-0.0157972 2.71051e-20 0.000914956 145.128
0.0157972 0 0.000915008 155.645
-0.015799 -2.71051e-20 0.00156064 74.4303
0.015799 -2.71051e-20 0.00156069 87.4382
-0.0156185 0 0.00313206 2060.45
0.0156185 6.77626e-21 0.00313207 2060.6
-0.0158092 0 0.00221249 161.22
0.0158093 0 0.00221254 176.638
-0.0159653 -2.71051e-20 5.84434e-10 901.875
0.0159653 2.71051e-20 5.84428e-10 902.16
-0.0159712 0 0.000124936 901.94
0.0159712 0 0.000124938 902.225
-0.015693 6.77626e-21 0.00316295 2052.16
0.0156931 0 0.00316301 2052.29
-0.0157206 -6.77626e-21 0.0031026 2019.74
0.0157208 0 0.00310257 2019.83
-0.0158002 0 0.00293364 1733.81
0.0158003 0 0.0029337 1741.17
-0.0157817 6.77626e-21 0.00319963 2129.07
0.015782 0 0.00319974 2129.34
0.0161034 -1.35525e-20 4.04844e-10 917.463
-0.0161034 -1.35525e-20 4.04848e-10 917.177
-0.016119 -2.25875e-21 0.000594151 536.199
0.016119 2.25875e-21 0.000594174 542.136
-0.01613 9.03502e-21 0.00122518 108.144
0.01613 0 0.00122521 120.952
0.0162343 -1.35525e-20 3.59814e-10 925.248
-0.0162343 -2.71051e-20 3.59814e-10 924.924
0.0162345 -1.35525e-20 0.000113277 924.789
-0.0162345 -1.35525e-20 0.000113279 924.467
-0.0161354 0 0.00188647 99.4299
0.0161355 -9.03502e-21 0.00188651 114.443
-0.0161281 6.77626e-21 0.00255569 540.647
0.0161282 -2.25875e-21 0.00255574 564.357
-0.015998 -1.35525e-20 0.0032882 2446.08
0.0159982 2.71051e-20 0.00328826 2446.31
-0.0160357 0 0.00323052 2403.16
0.0160358 0 0.00323061 2403.41
-0.016091 -1.35525e-20 0.00332623 2050.33
0.0160912 1.35525e-20 0.00332628 2050.76
0.0164377 0 0.000292336 937.161
-0.0164377 -5.42101e-20 0.000292322 936.788
0.0164553 2.71051e-20 0.000897692 162.631
-0.0164553 2.71051e-20 0.00089766 149.613
-0.0162072 -1.807e-21 0.00298944 1468.61
0.0162073 0 0.00298952 1486.09
-0.016466 2.71051e-20 0.00154116 61.5935
0.016466 2.71051e-20 0.00154119 76.4259
-0.016253 0 0.00328154 1917.19
0.016253 -1.35525e-20 0.00328162 1917.74
-0.0162529 -2.71051e-20 0.00339231 1866.87
0.016253 -1.35525e-20 0.00339232 1867.48
-0.0164659 -2.71051e-20 0.00220933 97.1766
0.016466 -5.42101e-20 0.00220938 114.16
-0.0166389 0 1.04271e-10 961.534
0.0166389 1.35525e-20 1.04262e-10 961.939
-0.0166447 0 0.000100566 961.627
0.0166447 0 0.000100563 962.031
-0.0165069 -2.71051e-20 0.00278852 329.507
0.016507 0 0.00278859 365.171
0.0167551 0 6.18359e-11 986.435
-0.0167551 0 6.18413e-11 986.041
-0.0167741 6.77626e-21 0.000577078 572.807
0.0167741 -2.25875e-21 0.000577088 580.542
-0.0164731 0 0.00325216 2007.02
0.0164733 0 0.00325224 2007.69
-0.0167929 3.38813e-21 0.00119995 107.597
0.0167929 1.12938e-21 0.00119996 123.004
-0.0164937 -2.71051e-20 0.00349064 1696.62
0.016494 1.35525e-20 0.00349077 1697.13
0.0168627 -1.35525e-20 5.62475e-11 994.874
-0.0168627 -1.35525e-20 5.62517e-11 994.458
0.0168631 0 9.00315e-05 994.432
-0.0168631 -1.35525e-20 9.00368e-05 994.016
-0.0167974 -2.25875e-21 0.0018671 70.4225
0.0167974 -3.38813e-21 0.00186712 86.0095
-0.016565 0 0.00339846 1701.34
0.0165653 2.71051e-20 0.00339864 1701.86
-0.0168042 -4.51751e-21 0.00251849 176.263
0.0168043 0 0.00251854 196.893
-0.0166661 0 0.00356101 1598.58
0.0166663 2.71051e-20 0.00356109 1599.2
-0.0167843 -2.25875e-21 0.00309016 994.985
0.0167844 -2.25875e-21 0.00309022 1006.59
0.0170872 0 0.000280474 1019.13
-0.0170872 -2.71051e-20 0.000280467 1018.69
0.0171094 -2.71051e-20 0.000869698 177.77
-0.0171094 0 0.000869686 160.099
-0.017124 0 0.00151088 57.4261
0.017124 2.71051e-20 0.0015109 74.02
-0.016855 6.77626e-21 0.00363794 1135.52
0.016855 -1.35525e-20 0.00363795 1136.68
-0.0171219 -5.42101e-20 0.00218641 64.661
0.0171219 0 0.00218644 78.6058
-0.0173128 0 1.50015e-11 1063.52
0.0173128 1.35525e-20 1.49999e-11 1063.99
-0.017316 0 7.61108e-05 1063.58
0.017316 0 7.61049e-05 1064.06
-0.016994 4.51751e-21 0.00347025 1200.79
0.0169942 -9.03502e-21 0.00347044 1201.57
-0.0169523 1.35525e-20 0.00367759 1047.44
0.0169528 1.35525e-20 0.00367779 1048.25
-0.0171196 -2.71051e-20 0.00284364 195.31
0.0171197 2.71051e-20 0.00284371 209.287
0.0174041 1.35525e-20 1.00263e-11 1096.75
-0.0174041 1.35525e-20 1.00267e-11 1096.29
0.0174225 -1.12938e-21 0.000552277 643.784
-0.0174225 0 0.000552274 633.351
-0.0174465 -3.38813e-21 0.00116234 113.446
0.0174465 -2.25875e-21 0.00116235 132.875
0.0174883 0 9.27523e-12 1104.45
-0.0174883 0 9.27554e-12 1103.98
0.0174886 1.35525e-20 6.91564e-05 1104.21
-0.0174886 0 6.91614e-05 1103.74
-0.0174525 1.12938e-21 0.00183359 56.4554
0.0174525 2.25875e-21 0.0018336 72.5868
-0.0171558 -4.06576e-20 0.00376044 1266.5
0.0171561 0 0.00376058 1267.02
-0.0174398 -2.25875e-21 0.00252756 108.828
0.0174399 4.51751e-21 0.0025276 123.696
-0.0172703 0 0.00381189 1333.54
0.0172706 1.35525e-20 0.003812 1333.95
-0.0173099 -1.35525e-20 0.00368922 1318.47
0.0173101 0 0.00368943 1318.92
-0.0174177 0 0.0032729 768.279
0.0174179 -3.76459e-22 0.00327297 783.265
0.0177262 0 0.000264495 1147.49
-0.0177263 -2.71051e-20 0.000264494 1147
0.017753 0 0.000830849 201.58
-0.017753 2.71051e-20 0.000830841 177.506
-0.0177738 -2.71051e-20 0.00146634 56.4497
0.0177739 -2.71051e-20 0.00146635 76.7581
-0.0174674 0 0.00388874 1561.64
0.0174675 -6.77626e-21 0.0038888 1561.93
-0.0177697 0 0.00215829 47.6051
0.0177697 2.71051e-20 0.0021583 61.2559
-0.0175192 6.77626e-21 0.0039114 1569.5
0.0175194 0 0.00391155 1569.86
-0.0175515 -3.38813e-21 0.00385282 1543.67
0.0175519 0 0.00385278 1543.97
-0.0177417 2.71051e-20 0.00287714 119.147
0.0177418 -2.71051e-20 0.0028772 136.994
0.017981 -6.77626e-21 1.39444e-12 1266.25
-0.017981 -6.77626e-21 1.3943e-12 1265.79
0.0179821 0 5.25103e-05 1266.36
-0.0179821 -6.77626e-21 5.25107e-05 1265.91
-0.0175795 2.03288e-20 0.00394118 1608.59
0.01758 -1.35525e-20 0.00394143 1609.05
-0.0176602 0 0.00367713 1337.01
0.0176605 0 0.00367727 1345.18
0.0180463 0 7.99282e-13 1313.66
-0.0180463 -6.77626e-21 7.99057e-13 1313.22
0.0180587 0 0.000513287 774.684
-0.0180587 -1.12938e-21 0.000513287 759.718
0.0181036 0 4.49211e-05 1335.24
-0.0181036 0 4.4918e-05 1334.8
0.0181054 0 7.64381e-13 1332.79
-0.0181054 6.77626e-21 7.64199e-13 1332.35
0.0181063 2.25875e-22 0.00109871 156.205
-0.0181063 1.35525e-21 0.00109871 131.397
-0.0181013 -1.12938e-21 0.00178214 51.1011
0.0181014 1.69407e-21 0.00178215 69.7905
-0.0180751 1.12938e-21 0.002514 69.4367
0.0180751 -4.51751e-21 0.00251403 86.9725
-0.0177928 1.35525e-20 0.00406344 1870.09
0.0177931 1.35525e-20 0.00406363 1870.34
-0.0178461 1.35525e-20 0.00400264 1818.29
0.0178465 0 0.00400286 1818.58
-0.018018 -6.77626e-21 0.00326638 429.41
0.0180181 4.51751e-21 0.00326648 457.276
0.0183484 -2.71051e-20 0.000235241 1453.31
-0.0183484 2.71051e-20 0.000235238 1452.92
-0.0178962 0 0.00412302 1557.16
0.0178965 0 0.00412318 1557.66
0.0183932 5.42101e-20 0.000764488 246.283
-0.0183932 -5.42101e-20 0.000764489 211.76
-0.0180569 -6.77626e-22 0.00374603 1120.45
0.0180571 -1.807e-21 0.00374614 1140.54
-0.0184338 2.71051e-20 0.00138083 62.8504
0.0184338 0 0.00138083 86.5961
-0.0184038 0 0.00212475 38.206
0.0184038 -5.42101e-20 0.00212477 55.3888
-0.0185327 3.38813e-21 3.11486e-13 1182.73
0.0185329 -3.38813e-21 3.11329e-13 1183.23
-0.0180751 -1.35525e-20 0.00422612 1261.03
0.0180753 -1.35525e-20 0.00422622 1261.71
-0.0183783 2.71051e-20 0.00286013 70.6174
0.0183783 0 0.00286017 92.1741
0.0186585 2.25875e-21 0.000460868 785.4
-0.0186585 -2.25875e-21 0.000460863 778.188
-0.0181758 0 0.00428412 1219.44
0.0181761 0 0.00428433 1220.03
-0.0182334 0 0.00409678 1348.8
0.0182336 4.51751e-21 0.00409694 1349.36
-0.0183787 2.71051e-20 0.00352164 257.208
0.0183789 0 0.00352172 297.969
-0.018738 0 2.24787e-13 1148.47
0.018738 0 2.24588e-13 1149.03
-0.0187383 -3.38813e-21 1.8583e-05 1147.91
0.0187383 -3.38813e-21 1.85606e-05 1148.47
-0.0187394 0 0.000144294 1034.06
0.0187394 0 0.000144153 1035.91
-0.0187637 0 5.23851e-14 1141.23
0.0187638 0 5.23963e-14 1141.81
0.018782 0 1.5237e-05 1164.21
-0.018782 0 1.52548e-05 1163.68
0.0187834 -3.38813e-21 4.17921e-14 1165.74
-0.0187835 -6.77626e-21 4.1772e-14 1165.21
0.0187414 -1.12938e-22 0.00174786 73.3171
-0.0187414 -1.12938e-22 0.00174787 51.5421
0.0188423 3.38813e-21 3.05852e-14 1149.56
-0.0188424 -3.38813e-21 3.05567e-14 1148.97
-0.0188306 4.51751e-21 0.000951028 240.752
0.0188306 2.25875e-21 0.000951028 254.052
-0.0183689 -2.71051e-20 0.00439542 1357.74
0.0183691 -2.71051e-20 0.00439559 1358.26
-0.0187534 2.01675e-22 0.00244424 51.5156
0.0187534 -8.06698e-23 0.00244427 69.3956
-0.0186869 0 0.00320185 130.477
0.018687 0 0.00320189 152.917
-0.0184805 1.35525e-20 0.00445982 1370.01
0.0184807 0 0.00445997 1370.56
-0.0185301 0 0.00433158 1377.12
0.0185303 1.35525e-20 0.00433174 1377.65
-0.0186603 4.14105e-21 0.00393311 854.602
0.0186605 -1.12938e-21 0.0039332 872.792
0.0191245 5.64689e-22 0.000340867 725.803
-0.0191245 -8.47033e-22 0.000340856 725.189
0.0192203 -1.35525e-20 9.46707e-15 872.623
-0.0192204 2.71051e-20 9.45326e-15 871.857
-0.0191646 0 0.00146339 54.2376
0.0191646 0 0.00146338 85.569
-0.0190143 -2.71051e-20 0.00283781 48.6356
0.0190144 -2.71051e-20 0.00283783 63.8684
-0.0186819 0 0.00457601 1499.26
0.0186821 0 0.00457612 1499.7
-0.0187038 0 0.00458864 1490.33
0.018704 1.69407e-21 0.00458877 1490.76
-0.01916 -2.71051e-20 0.00195783 38.324
0.01916 0 0.00195783 56.1556
-0.0187217 0 0.00456119 1479.66
0.0187219 0 0.00456127 1480.08
-0.0187284 1.01644e-20 0.00460285 1498.24
0.0187286 1.01644e-20 0.00460299 1498.68
-0.0189854 -2.71051e-20 0.00354614 133.269
0.0189855 -2.71051e-20 0.00354618 144.379
-0.0188773 4.51751e-21 0.00434122 1268.77
0.0188775 4.51751e-21 0.00434132 1277.34
-0.0193797 2.11758e-22 0.000837433 329.397
0.0193798 0 0.000837383 344.828
-0.0193834 -1.05879e-21 0.00085584 316.423
0.0193835 2.11758e-21 0.000855835 332.318
-0.0194038 -3.59989e-21 0.000856716 315.929
0.0194039 -1.27055e-21 0.000856714 331.926
0.0194237 0 1.54975e-15 915.798
-0.0194238 -2.71051e-20 1.53986e-15 914.79
-0.0193729 1.35525e-20 0.00169001 47.9891
0.0193729 0 0.00169001 71.5814
-0.0193777 -7.05861e-22 0.00244586 39.3644
0.0193778 -1.41172e-22 0.00244587 55.528
-0.0189667 1.35525e-20 0.0047403 1674.71
0.0189668 -1.35525e-20 0.00474041 1675.05
-0.0193197 1.12938e-21 0.00318402 73.855
0.0193198 0 0.00318404 89.1588
-0.0190326 0 0.0046715 1624.28
0.0190327 0 0.00467159 1624.66
-0.0195819 0 0.00142153 61.5298
0.019582 -2.71051e-20 0.00142152 85.6665
-0.019255 4.51751e-21 0.00392942 417.394
0.019255 0 0.00392947 444.648
-0.019653 6.77626e-21 3.99215e-16 662.046
0.019653 2.03288e-20 4.03295e-16 663.37
-0.0195685 -5.42101e-20 0.00193727 35.6848
0.0195685 0 0.00193726 56.3673
-0.0190798 2.71051e-20 0.00480552 1377.99
0.0190799 0 0.00480561 1378.54
-0.0197213 -2.25875e-21 0.000269929 637.4
0.0197213 0 0.000269962 638.923
-0.0192752 1.35525e-21 0.00441197 999.924
0.0192754 -1.807e-21 0.00441204 1020.11
0.0198342 0 4.71809e-16 623.287
-0.0198343 3.38813e-21 4.68213e-16 621.549
-0.0192473 0 0.00490218 1049.25
0.0192474 -6.77626e-21 0.00490225 1050.01
-0.0196698 2.71051e-20 0.00278692 35.4236
0.0196698 -2.71051e-20 0.00278693 48.9784
-0.0196163 0 0.00353247 75.4584
0.0196163 2.71051e-20 0.0035325 96.9031
-0.019321 -3.38813e-20 0.00494469 1057.81
0.0193211 -6.77626e-21 0.00494477 1058.6
-0.0194215 -9.03502e-21 0.00475386 1182.79
0.0194216 -1.35525e-20 0.00475393 1183.49
-0.0200351 0 -3.2986e-17 646.587
0.0200352 0 -3.30812e-17 648.866
-0.0200397 3.38813e-21 0.000879744 326.28
0.0200398 -2.82344e-22 0.000879732 345.093
-0.0196209 0 0.00418606 234.415
0.0196209 2.71051e-20 0.0041861 275.301
-0.0200081 1.41172e-22 0.00168408 45.9398
0.0200082 -2.82344e-22 0.00168407 70.4042
-0.0200926 -1.35525e-20 6.73548e-05 549.714
0.0200928 0 6.74599e-05 552.008
-0.0200965 0 -7.17139e-19 549.331
0.0200967 0 -7.66423e-19 551.628
-0.0201334 0 8.6319e-18 532.854
0.0201336 1.35525e-20 8.60253e-18 535.165
-0.019508 -1.35525e-20 0.00505259 1304.28
0.0195081 -2.71051e-20 0.00505265 1304.94
-0.0200346 1.12938e-21 0.00229471 34.2427
0.0200346 -3.38813e-21 0.0022947 52.9676
-0.0199605 -1.58113e-21 0.00311687 45.9336
0.0199605 -2.48463e-21 0.00311687 62.5967
-0.0202249 -1.35525e-20 6.9338e-05 490.319
0.0202254 1.35525e-20 6.9446e-05 492.731
-0.0202304 0 -1.76858e-17 490.268
0.0202308 0 -1.76992e-17 492.68
-0.0199313 -1.12938e-21 0.0038555 120.734
0.0199314 1.12938e-21 0.00385553 147.983
-0.0196734 -1.35525e-20 0.00514806 1242.41
0.0196735 2.03288e-20 0.00514812 1243.03
-0.0198941 3.61401e-21 0.00456699 763.328
0.0198942 1.807e-21 0.00456703 781.012
-0.0197657 6.77626e-21 0.00520128 1341.45
0.0197658 -1.35525e-20 0.00520135 1342.04
-0.0198217 0 0.00501122 1413.09
0.0198218 0 0.00501128 1413.66
-0.0202896 -2.71051e-20 0.00277321 29.2241
0.0202896 0 0.00277322 44.6692
-0.0202612 0 0.00349053 47.6888
0.0202612 0 0.00349054 63.3181
-0.0199064 0 0.00528243 1803.91
0.0199065 0 0.0052825 1804.35
-0.020245 0 0.0041794 116.774
0.0202451 -5.42101e-20 0.00417943 146.634
-0.0206572 -1.0842e-19 0.00171989 38.1518
0.0206573 0 0.00171988 67.3247
-0.0201293 -1.50584e-21 0.00498603 1315.98
0.0201293 -1.50584e-21 0.00498607 1323.72
-0.0200531 0 0.00536707 1660.29
0.0200531 -6.77626e-21 0.00536711 1660.81
0.0206314 2.82344e-22 0.00242248 47.6568
-0.0206314 -7.05861e-23 0.0024225 30.0308
-0.0207755 -5.42101e-20 0.000514971 303.784
0.0207756 0 0.000514975 307.542
-0.0205987 -5.64689e-22 0.00311579 34.1333
0.0205987 0 0.00311579 47.8225
-0.0203104 -2.71051e-20 0.00476269 368.249
0.0203105 0 0.00476272 397.799
-0.0201708 1.35525e-20 0.00543499 1649.02
0.0201709 2.71051e-20 0.00543504 1649.56
-0.0202176 -9.03502e-21 0.00527687 1766.7
0.0202177 -4.51751e-21 0.00527691 1767.17
-0.0205738 -4.51751e-21 0.0038174 66.6491
0.0205738 -1.12938e-21 0.00381741 84.6888
-0.0205818 1.12938e-21 0.00447088 190.998
0.0205819 -1.12938e-21 0.0044709 215.088
-0.0203369 2.71051e-20 0.00553082 1815.89
0.020337 1.35525e-20 0.00553084 1816.44
-0.0209426 -2.71051e-20 0.00274702 25.4655
0.0209426 -2.71051e-20 0.00274701 38.8813
-0.0209032 0 0.00344945 34.4329
0.0209032 -2.71051e-20 0.00344946 44.853
-0.0204446 1.35525e-20 0.00559295 1800.4
0.0204447 1.35525e-20 0.00559297 1801
-0.0204857 0 0.00548988 1810.57
0.0204858 0 0.0054899 1811.16
-0.0206003 -1.50584e-21 0.00512926 1130.46
0.0206004 2.25875e-21 0.00512929 1148.25
-0.0208994 2.71051e-20 0.00412603 66.3659
0.0208995 2.71051e-20 0.00412604 82.8854
-0.0213129 0 8.97568e-05 281.888
0.0213129 2.71051e-20 8.97114e-05 286.366
-0.0213195 -1.35525e-20 -2.8926e-18 281.907
0.0213195 2.71051e-20 -2.81088e-18 286.385
-0.0213562 4.51751e-21 0.00112757 158.338
0.0213563 -2.25875e-21 0.00112758 173.82
-0.0206271 0 0.00569824 1940.95
0.0206272 0 0.00569827 1941.63
-0.0208932 0 0.00478634 184.846
0.0208932 -2.71051e-20 0.00478636 201.823
-0.0213143 3.38813e-21 0.00228576 29.4657
0.0213143 1.12938e-21 0.00228575 48.9923
-0.0214402 -1.35525e-20 1.08034e-18 274.874
0.0214402 0 1.08377e-18 279.521
-0.0206783 -6.77626e-21 0.00572779 1904.68
0.0206784 0 0.00572782 1905.41
0.0212371 5.64689e-22 0.00307352 40.7039
-0.0212371 -4.23516e-22 0.00307353 27.9012
-0.0207149 -6.77626e-21 0.00567146 1871.57
0.0207149 3.38813e-21 0.00567151 1872.32
-0.0207374 -1.35525e-20 0.00576188 1940.79
0.0207375 0 0.0057619 1941.48
-0.0208292 -3.01167e-21 0.00551236 1633.72
0.0208293 1.50584e-21 0.0055124 1642.29
0.0215471 1.35525e-20 0.000109109 272.254
-0.0215472 0 0.000109168 267.429
0.0215567 -1.35525e-20 9.64873e-19 272.127
-0.0215568 0 9.62135e-19 267.299
-0.0212592 1.05879e-22 0.00373092 44.9857
0.0212592 0 0.00373093 57.326
-0.0212041 1.12938e-21 0.0044583 101.577
0.0212042 3.38813e-21 0.00445832 117.808
-0.0209534 -1.35525e-20 0.00588666 2167.96
0.0209535 0 0.00588668 2168.56
-0.0211675 2.25875e-21 0.00514627 565.462
0.0211675 4.51751e-21 0.0051463 592.194
-0.0210047 1.35525e-20 0.00583277 2115.23
0.0210048 0 0.0058328 2115.83
-0.0216644 0 0.00284436 22.4184
0.0216644 -2.71051e-20 0.00284436 38.0993
-0.0210554 0 0.00594571 1829.2
0.0210555 0 0.00594574 1829.81
-0.0216615 0 0.00329946 25.8808
0.0216616 2.71051e-20 0.00329946 37.5391
-0.0215296 -2.71051e-20 0.00411133 46.9003
0.0215297 2.71051e-20 0.00411133 57.5014
-0.0212153 -4.51751e-22 0.0055934 1320.04
0.0212154 1.35525e-21 0.00559344 1340.39
-0.0219545 5.42101e-20 0.00177021 36.2394
0.0219546 0 0.0017702 60.729
-0.0220218 -5.42101e-20 0.000571119 245.495
0.0220218 -5.42101e-20 0.000571112 251.027
-0.0215067 -2.71051e-20 0.00478713 103.439
0.0215068 0 0.00478717 124.185
-0.0219097 8.47033e-22 0.00242093 26.5349
0.0219097 1.69407e-21 0.00242091 44.1125
-0.021227 0 0.00604562 1497.67
0.0212271 0 0.00604568 1498.31
-0.021872 0 0.00306771 23.3103
0.0218721 -1.35525e-20 0.00306771 36.5532
-0.0215266 0 0.00539884 317.754
0.0215266 0 0.00539887 355.362
-0.021392 -9.03502e-21 0.0059417 1578.02
0.0213921 -9.03502e-21 0.00594175 1578.67
-0.0218838 -7.05861e-22 0.00375446 33.5432
0.0218838 5.64689e-22 0.00375445 45.1912
-0.0213574 -2.03288e-20 0.0061213 1424.74
0.0213575 -1.35525e-20 0.00612135 1425.43
-0.0218345 -3.38813e-21 0.00443966 62.1311
0.0218345 -3.38813e-21 0.00443967 77.216
-0.0221011 0 0.00283879 21.2542
0.0221011 2.71051e-20 0.00283879 34.6372
-0.0220656 -2.71051e-20 0.0032889 22.9651
0.0220656 -2.71051e-20 0.0032889 35.4803
-0.0218182 2.25875e-21 0.00510345 167.019
0.0218183 4.51751e-21 0.00510348 189.736
-0.0215448 0 0.00623066 1542.4
0.0215449 0 0.00623073 1543.08
-0.0225383 -2.71051e-20 9.17533e-05 242.219
0.0225385 -1.35525e-20 9.1676e-05 248.418
-0.0225403 0 1.77341e-19 242.265
0.0225405 0 1.79243e-19 248.458
-0.0216442 -1.35525e-20 0.00630958 1534.62
-0.0221735 5.42101e-20 0.00407696 33.4782
0.0221736 2.71051e-20 0.00407697 45.7235
0.0216443 0 0.00630967 1535.28
-0.0216896 -2.71051e-20 0.00619113 1549.05
0.0216897 -1.35525e-20 0.0061912 1549.72
-0.0218102 1.50584e-21 0.00580095 970.097
0.0218103 -1.12938e-21 0.00580099 987.174
-0.0225989 0 0.00115697 140.572
0.0225989 -2.25875e-21 0.00115697 156.021
-0.0226373 0 8.07387e-20 242.502
0.0226374 0 8.21344e-20 248.835
-0.0221352 0 0.00476855 64.0387
0.0221353 2.71051e-20 0.00476855 80.66
-0.022582 1.12938e-21 0.00236337 27.4604
0.022582 6.77626e-21 0.00236337 46.2204
-0.022501 0 0.00305827 20.9819
0.022501 0 0.00305827 33.9535
-0.0225096 0 0.00305557 20.9389
0.0225095 0 0.00306051 33.9088
-0.0227256 1.35525e-20 8.82297e-05 240.145
0.0227256 0 8.81536e-05 246.624
-0.0227308 -2.71051e-20 3.08985e-20 240.131
0.0227308 -1.35525e-20 3.15503e-20 246.611
-0.0218386 1.69407e-21 0.00644697 1564.99
0.0218387 0 0.00644705 1565.63
-0.0221178 0 0.00543871 167.779
0.0221179 -2.71051e-20 0.00543874 182.297
-0.0218565 0 0.0064596 1554.7
0.0218566 1.69407e-21 0.00645967 1555.35
-0.0218725 1.69407e-21 0.00643778 1548.32
0.0218726 0 0.00643786 1548.99
-0.0218744 8.47033e-21 0.00647346 1568.15
0.0218745 -1.52466e-20 0.00647351 1568.78
-0.0225287 2.25875e-22 0.00364569 27.4647
0.0225287 4.51751e-22 0.00364569 40.4794
-0.0224649 -5.64689e-22 0.00441819 41.3496
0.022465 0 0.00441819 56.1035
-0.0220385 0 0.00622588 1363.21
0.0220386 -1.50584e-21 0.00622593 1370.76
-0.0224373 -1.12938e-21 0.00510163 90.9633
0.0224374 -1.12938e-21 0.00510165 108.878
-0.022069 1.35525e-20 0.00662862 1714.44
0.0220691 -1.35525e-20 0.00662868 1714.97
-0.0221728 0 0.00656826 1697.6
0.0221729 0 0.00656832 1698.17
-0.0223901 6.77626e-21 0.00581142 469.091
0.0223902 2.25875e-21 0.00581146 500.408
-0.0227864 0 0.00407104 26.2383
0.0227864 2.71051e-20 0.00407104 40.0841
-0.0221653 -1.35525e-20 0.00670524 1766.03
0.0221653 0 0.0067053 1766.61
-0.0232274 5.42101e-20 0.000581689 236.592
0.0232275 5.42101e-20 0.000581683 243.783
-0.0227665 0 0.00474854 42.1979
0.0227666 0 0.00474855 58.4965
-0.0231993 5.42101e-20 0.00176869 35.879
0.0231993 0 0.00176868 61.1928
-0.0222608 -1.35525e-20 0.00678083 1830.02
0.0222609 -1.35525e-20 0.0067809 1830.69
-0.0223061 -1.35525e-20 0.00667609 1785.55
0.0223061 0 0.00667615 1786.22
-0.0224559 -8.06698e-23 0.00637515 1168.11
0.0224559 6.45358e-22 0.00637519 1192.64
-0.023153 0 0.00306262 17.9811
0.023153 -5.42101e-20 0.00306262 31.4317
-0.0227373 0 0.00543368 87.0372
0.0227374 0 0.0054337 111.471
0.0231517 -2.82344e-22 0.00371752 37.2803
-0.0231516 4.23516e-22 0.00371939 21.5786
-0.0224505 -1.69407e-21 0.00693112 1958.1
0.0224506 0 0.00693119 1958.61
-0.0230941 0 0.00439939 29.528
0.0230941 5.64689e-22 0.00439939 46.3181
-0.0224718 0 0.00694795 1969.64
0.0224719 -1.69407e-21 0.00694801 1970.14
-0.0224913 3.38813e-21 0.00692543 1960.62
0.0224914 1.69407e-21 0.00692549 1961.13
-0.0227469 0 0.00606425 236.788
0.0227469 0 0.00606427 295.315
-0.0224924 -8.47033e-21 0.0069643 1965.66
0.0224925 -1.18585e-20 0.00696434 1966.16
-0.0230702 -5.64689e-21 0.00507678 52.0146
0.0230702 -3.38813e-21 0.00507679 72.2993
-0.0226501 7.52918e-21 0.00674888 1742.62
0.0226501 -6.02335e-21 0.0067489 1749.65
-0.0230547 0 0.00573921 122.346
0.0230547 2.25875e-21 0.00573922 158.304
-0.0237727 0 6.9488e-05 236.275
0.0237729 0 6.94154e-05 243.883
-0.0237733 0 3.56747e-20 236.276
0.0237735 0 3.62133e-20 243.882
-0.0234288 2.71051e-20 0.00404821 19.7779
0.0234288 2.71051e-20 0.00404822 38.8154
-0.0227099 0 0.00713638 2025.45
0.02271 1.35525e-20 0.00713642 2025.78
-0.0238467 -1.35525e-20 -1.44547e-21 236.422
0.0238468 1.35525e-20 -1.45574e-21 244.091
-0.0238238 1.12938e-21 0.00116196 137.245
0.0238238 3.38813e-21 0.00116196 153.522
-0.0227817 1.35525e-20 0.00707299 1972.27
0.0227818 1.35525e-20 0.00707303 1972.62
-0.0233917 0 0.00472621 29.965
0.0233918 -2.71051e-20 0.00472621 48.0295
-0.023014 4.51751e-21 0.00640613 620.338
0.023014 6.77626e-21 0.00640614 656.83
-0.0239154 0 6.7028e-05 236.179
0.0239154 0 6.69607e-05 243.924
-0.0239175 0 -9.71955e-22 236.179
0.0239175 0 -9.83578e-22 243.924
0.0237984 0 0.00239289 45.4631
-0.0237984 2.25875e-21 0.00239289 26.6519
-0.0228223 2.71051e-20 0.0072253 1619.34
0.0228223 0 0.00722534 1619.87
-0.0233899 0 0.00538613 49.3235
0.0233899 0 0.00538615 71.8543
-0.0230284 -1.35525e-21 0.00685519 1232.28
0.0230284 0 0.00685521 1250.44
-0.0238366 -1.69407e-22 0.00363264 18.2394
0.0238366 2.82344e-22 0.00363262 33.8666
0.0237221 1.50584e-21 0.00437772 41.0663
-0.0237221 0 0.00437772 23.0287
-0.0233571 0 0.00605948 110.614
0.0233571 0 0.00605949 148.219
0.0230005 1.01644e-20 0.0073663 1051.09
-0.0230006 1.86347e-20 0.0073663 1050.35
0.023013 2.79521e-20 0.00737619 1043.27
-0.0230131 8.47033e-22 0.00737618 1042.53
0.0231562 9.03502e-21 0.00719484 1271.84
-0.0231562 -1.35525e-20 0.00719483 1271.19
-0.0237825 1.12938e-21 0.00497093 33.7417
0.0237825 5.64689e-22 0.00497093 53.3867
-0.0233676 -2.71051e-20 0.00666648 298.528
0.0233676 0 0.00666649 336.921
-0.023688 -6.77626e-21 0.00571604 62.4232
0.0236881 1.12938e-21 0.00571604 89.7414
0.0232066 -1.35525e-20 0.00752929 1286.49
-0.0232066 -1.35525e-20 0.00752929 1285.81
-0.0244467 0 0.000582597 235.853
0.0244467 0 0.000582599 244.031
0.0244304 0 0.00177449 61.0135
-0.0244304 5.42101e-20 0.00177449 36.1958
-0.0236703 1.12938e-21 0.0063643 152.536