# p  POINT_DATA 28841
# x  y  z  p
-1.35525e-20 0.015557 5.70113e-08 -0.00555051
1.35525e-20 -0.015557 5.70113e-08 0.0121056
0 -0.015557 0.000135955 0.0121055
6.77626e-21 0.015557 0.000135978 -0.00554974
0 -0.015557 0.000527091 0.0121055
-6.77626e-21 0.015557 0.000527192 -0.00554995
0 -0.015557 0.000659598 0.0121055
0 0.015557 0.00065972 -0.00555078
-6.77626e-21 -0.015557 0.000798595 0.0121055
0 0.015557 0.000798713 -0.00555053
-6.77626e-21 -0.0155569 0.00121618 0.0121055
-6.77626e-21 0.0155569 0.00121632 -0.00555074
0 -0.0155569 0.0013548 0.0121055
-6.77626e-21 0.0155569 0.00135493 -0.00555111
0 -0.0156159 6.66059e-05 0.0121055
-6.77626e-21 0.0156159 6.66205e-05 -0.00555016
6.77626e-21 -0.015617 5.86706e-08 0.0121055
6.77626e-21 0.015617 5.86703e-08 -0.00555016
0 -0.0156133 0.000594009 0.0121055
0 0.0156134 0.000594136 -0.00555042
0 -0.0156101 0.000720993 0.0121054
6.77626e-21 0.0156101 0.000721135 -0.0055507
0 -0.0155569 0.00150202 0.0121055
-6.77626e-21 0.0155569 0.00150211 -0.00555075
6.77626e-21 -0.0156099 0.00127802 0.0121054
0 0.0156099 0.00127818 -0.00555098
6.77626e-21 -0.0156067 0.00140494 0.0121055
0 0.0156067 0.00140508 -0.00555097
6.77626e-21 -0.0156758 6.25745e-08 0.0121054
0 0.0156759 6.25738e-08 -0.00555066
0 -0.0155569 0.00193256 0.0121055
-6.77626e-21 0.015557 0.00193259 -0.00555075
1.35525e-20 -0.0156643 0.000653665 0.0121054
2.71051e-20 0.0156643 0.000653856 -0.0055509
-6.77626e-21 0.015557 0.002087 -0.00555113
6.77626e-21 -0.015557 0.002087 0.0121055
1.35525e-20 -0.0156581 0.00132517 0.0121054
0 0.0156581 0.00132537 -0.00555126
6.77626e-21 0.0156109 0.00197559 -0.00555099
0 -0.0156109 0.00197556 0.0121055
-6.77626e-21 -0.01562 0.00210848 0.0121055
-6.77626e-21 0.01562 0.00210848 -0.00555128
6.77626e-21 0.0156426 0.00205606 -0.00555128
0 -0.0156426 0.00205603 0.0121055
-6.77626e-21 0.0156707 0.00197917 -0.00555131
0 -0.0156707 0.00197909 0.0121054
1.35525e-20 -0.0156949 0.00213398 0.0121054
0 0.0156949 0.00213398 -0.00555123
-3.38813e-20 -0.015885 7.41481e-08 0.0121053
-6.77626e-21 0.015885 7.41479e-08 -0.00555217
-1.12938e-21 -0.01589 0.000347638 0.0121052
0 0.01589 0.000347812 -0.00555207
1.35525e-21 -0.0158834 0.000956224 0.0121051
-1.807e-21 0.0158834 0.000956574 -0.0055521
1.50584e-21 -0.0158471 0.00154369 0.0121053
-3.76459e-21 0.0158471 0.00154397 -0.00555208
5.64689e-22 0.0158414 0.00196399 -0.00555142
0 -0.0158414 0.00196388 0.0121051
2.03288e-20 -0.015839 0.00218308 0.0121052
-6.77626e-21 0.015839 0.00218308 -0.00555125
-1.35525e-20 -0.0159079 0.00220656 0.0121052
1.35525e-20 0.0159079 0.00220657 -0.00555117
-2.25875e-21 -0.0160357 0.0016614 0.012105
3.38813e-21 0.0160357 0.00166177 -0.00555147
0 -0.0161336 1.64294e-05 0.012105
-4.23516e-22 0.0161337 1.62936e-05 -0.00555214
0 -0.0161343 5.30972e-08 0.012105
4.23516e-22 0.0161345 5.3091e-08 -0.00555214
1.35525e-20 -0.0159895 0.00223437 0.0121051
-2.71051e-20 0.0159895 0.00223438 -0.00555096
0 -0.0161453 5.24536e-08 0.012105
4.23516e-22 0.0161478 5.2446e-08 -0.00555211
-3.38813e-21 -0.0161363 0.000658379 0.0121049
-3.38813e-21 0.0161363 0.000658899 -0.0055513
0 -0.0161079 0.00123674 0.012105
-2.25875e-21 0.0161079 0.00123731 -0.00555149
7.52918e-22 -0.0162278 0.00195621 0.0121048
7.52918e-22 0.0162278 0.0019565 -0.00555088
0 -0.0161978 0.00230533 0.0121048
0 0.016198 0.00230539 -0.00555124
0 -0.0162561 0.00232518 0.0121048
-6.77626e-21 0.0162561 0.00232519 -0.00555156
-6.77626e-21 0.016267 0.00230123 -0.00555148
0 -0.016267 0.00230114 0.0121048
-6.77626e-21 0.0162975 0.0022713 -0.00555127
0 -0.0162976 0.0022711 0.0121047
3.38813e-20 0.0162993 0.00233988 -0.00555131
0 -0.0162994 0.00233991 0.0121048
-1.807e-20 0.0164712 0.000318829 -0.0055515
0 -0.0164713 0.000318482 0.0121046
4.51751e-21 0.0164838 0.000934255 -0.00555148
-4.51751e-21 -0.0164839 0.000933479 0.0121045
-1.35525e-20 0.0165151 8.91806e-08 -0.00555134
0 -0.0165152 8.91797e-08 0.0121045
-9.03502e-21 0.0164768 0.00151157 -0.00555158
0 -0.0164769 0.00151091 0.0121046
2.71051e-20 0.0166394 9.23356e-08 -0.0055511
0 -0.0166395 9.23348e-08 0.0121043
1.35525e-20 0.0165053 0.00240993 -0.00555057
-4.06576e-20 -0.0165054 0.00240993 0.0121044
2.71051e-20 0.0167038 0.000635453 -0.00555143
-2.71051e-20 -0.0167039 0.000634624 0.0121043
2.82344e-22 0.0165943 0.00217414 -0.00555016
-3.10579e-21 -0.0165944 0.00217395 0.0121042
0 0.0167298 0.00122683 -0.0055514
-5.42101e-20 -0.0167299 0.00122587 0.0121042
2.71051e-20 0.0166885 0.00181396 -0.00555152
0 -0.0166886 0.00181342 0.0121043
0 -0.0166609 0.002463 0.0121044
0 0.0166609 0.00246301 -0.00555143
0 0.0168423 7.09371e-08 -0.00555115
-1.35525e-20 -0.0168424 7.09349e-08 0.0121041
0 0.0169749 0.000303028 -0.00555137
-2.25875e-21 -0.016975 0.000302617 0.012104
0 0.0168731 0.00220951 -0.00555128
0 -0.0168731 0.0022093 0.0121041
-2.25875e-21 0.016996 0.000918651 -0.00555124
0 -0.0169961 0.00091773 0.0121039
-2.03288e-20 0.0168624 0.00253141 -0.00555156
6.77626e-21 -0.0168624 0.00253143 0.0121042
4.51751e-21 0.0169886 0.00152444 -0.00555138
-3.38813e-21 -0.0169887 0.00152368 0.0121039
-2.71051e-20 0.0170875 2.46042e-08 -0.00555159
-1.35525e-20 -0.0170876 2.4598e-08 0.0121039
0 0.0169822 0.0019947 -0.00555143
4.51751e-21 -0.0169822 0.00199432 0.012104
-9.03502e-21 -0.0169517 0.00241974 0.0121041
4.51751e-21 0.0169517 0.00241984 -0.00555179
-2.03288e-20 -0.0169618 0.00256517 0.0121041
-2.71051e-20 0.0169619 0.0025652 -0.00555182
-2.71051e-20 0.0172725 0.000609723 -0.00555199
2.71051e-20 -0.0172727 0.000608854 0.0121036
2.71051e-20 0.017301 3.8681e-09 -0.00555209
2.71051e-20 -0.0173012 3.85985e-09 0.0121037
2.71051e-20 0.0172756 0.00121852 -0.00555192
2.71051e-20 -0.0172759 0.00121756 0.0121036
5.42101e-20 0.0172503 0.00183266 -0.00555209
0 -0.0172504 0.00183216 0.0121037
-2.71051e-20 -0.0171626 0.00263335 0.0121039
0 0.0171626 0.00263335 -0.00555216
5.64689e-22 0.0172628 0.00228364 -0.00555208
-1.69407e-21 -0.0172628 0.00228347 0.0121037
-2.71051e-20 0.0175152 3.90385e-09 -0.00555223
-1.35525e-20 -0.0175152 3.89758e-09 0.0121034
-2.25875e-21 0.0176167 0.000304206 -0.00555235
-4.51751e-21 -0.0176168 0.0003039 0.0121033
3.38813e-21 0.0176138 0.000914405 -0.00555229
7.90564e-21 -0.0176139 0.000913728 0.0121031
-5.64689e-21 -0.0175987 0.00154607 0.0121031
-1.12938e-21 0.0175986 0.00154661 -0.00555211
-8.47033e-22 0.0174822 0.00274305 -0.00555187
-1.52466e-20 -0.0174824 0.00274311 0.0121033
2.37169e-20 -0.0174953 0.00274748 0.0121033
-1.10114e-20 0.0174954 0.00274754 -0.00555187
-1.35525e-20 0.0177276 5.30319e-09 -0.00555252
0 -0.0177276 5.30115e-09 0.0121031
2.25875e-21 -0.0176266 0.0021181 0.0121032
2.25875e-21 0.0176266 0.00211837 -0.00555248
2.25875e-21 -0.0175734 0.00255388 0.0121032
4.51751e-21 0.0175734 0.00255396 -0.00555211
0 -0.0179395 5.3668e-09 0.0121028
0 0.0179395 5.36695e-09 -0.0055529
0 0.0179446 0.000602116 -0.00555282
-2.71051e-20 -0.0179448 0.000601729 0.0121027
0 0.0179404 0.00122928 -0.00555272
2.71051e-20 -0.0179405 0.00122883 0.0121027
0 -0.0179 0.00190857 0.0121028
0 0.0179 0.00190883 -0.00555269
-2.71051e-20 -0.0177925 0.00284977 0.012103
-2.71051e-20 0.0177926 0.00284978 -0.00555257
0 -0.0179476 0.00242616 0.0121027
-2.71051e-20 0.0179477 0.00242626 -0.00555274
-2.71051e-20 -0.0181451 4.40312e-09 0.0121025
1.35525e-20 0.0181451 4.40323e-09 -0.00555311
0 -0.0180151 0.00292661 0.0121028
0 0.0180152 0.00292666 -0.00555307
4.51751e-21 0.0182715 0.000300951 -0.00555324
4.51751e-21 -0.0182716 0.000300824 0.0121023
4.51751e-21 0.0182775 0.000913256 -0.00555308
-2.25875e-21 -0.0182775 0.000912982 0.0121022
1.12938e-20 -0.0182701 0.00156202 0.0121022
-6.77626e-21 0.0182702 0.00156226 -0.00555312
2.25875e-21 -0.0182365 0.00214905 0.0121023
2.25875e-21 0.0182365 0.00214918 -0.00555323
0 0.0181446 0.0029715 -0.00555319
-6.77626e-21 -0.0181446 0.00297151 0.0121026
4.51751e-22 -0.018187 0.00270962 0.0121025
-9.03502e-22 0.018187 0.00270971 -0.00555328
-1.35525e-20 0.0183922 2.43152e-09 -0.0055534
1.35525e-20 -0.0183922 2.43142e-09 0.0121021
0 -0.0185886 1.4653e-09 0.0121018
0 0.0185886 1.46536e-09 -0.00555369
2.71051e-20 -0.0183436 0.00304025 0.0121023
-2.71051e-20 0.0183438 0.00304031 -0.00555334
2.71051e-20 0.0185996 0.000594964 -0.00555356
0 -0.0185997 0.000594844 0.0121017
-5.80823e-21 -0.0186737 0.00129279 0.0121015
0 0.0186737 0.00129292 -0.00555353
-1.35525e-20 -0.0187703 1.23407e-09 0.0121016
-2.71051e-20 0.0187703 1.23411e-09 -0.00555381
0 -0.0185172 0.00309968 0.0121016
3.38813e-20 0.0185172 0.00309971 -0.00555175
1.35525e-20 0.0187147 0.00187627 -0.00555377
0 -0.0187147 0.00187618 0.0121016
-4.51751e-21 0.0186673 0.00253576 -0.00555352
3.01167e-21 -0.0186673 0.00253569 0.0121017
-4.51751e-21 0.018823 0.000903617 -0.00555361
0 -0.018823 0.000903518 0.0121014
6.77626e-21 0.0188705 0.000248278 -0.00555387
-4.51751e-21 -0.0188706 0.000248244 0.0121014
2.71051e-21 -0.0186433 0.00294006 0.0121016
5.42101e-21 0.0186434 0.00294015 -0.00555289
-2.71051e-20 -0.0189391 0.0015442 0.0121012
0 0.018939 0.00154428 -0.00555378
1.27055e-21 0.01877 0.00318707 -0.00555392
2.32934e-21 -0.0187697 0.00318691 0.0121016
-1.35525e-20 -0.0188366 0.00285351 0.0121017
6.77626e-21 0.0188366 0.0028535 -0.0055544
1.35525e-20 0.0190684 6.42266e-10 -0.00555399
0 -0.0190684 6.42229e-10 0.0121011
2.71051e-20 -0.0189469 0.0022033 0.0121012
-2.71051e-20 0.0189469 0.00220336 -0.00555429
6.77626e-21 -0.0189609 0.002942 0.0121017
6.77626e-21 0.018961 0.00294206 -0.00555531
0 -0.0192376 4.1695e-10 0.0121009
0 0.0192376 4.16977e-10 -0.00555405
1.807e-20 0.0192505 0.000578849 -0.00555396
0 -0.0192506 0.000578823 0.0121007
1.12938e-20 0.0192653 0.00120345 -0.00555404
-9.03502e-21 -0.0192654 0.00120342 0.0121006
2.25875e-21 -0.0192727 0.00186892 0.0121007
-2.25875e-21 0.0192727 0.00186895 -0.0055544
1.35525e-20 -0.0190867 0.00329553 0.0121011
1.35525e-20 0.0190869 0.00329559 -0.0055546
1.35525e-20 0.0193938 3.58667e-10 -0.00555392
0 -0.0193938 3.58645e-10 0.0121006
1.35525e-20 0.0193936 0.000130558 -0.00555393
1.35525e-20 -0.0193936 0.000130549 0.0121006
-1.35525e-20 -0.019134 0.00323281 0.012101
0 0.0191342 0.00323291 -0.00555465
-2.25875e-21 -0.019259 0.0025456 0.0121008
9.03502e-21 0.019259 0.00254567 -0.00555447
2.71051e-20 -0.0192049 0.00333603 0.0121009
1.35525e-20 0.019205 0.00333606 -0.0055548
-9.03502e-22 -0.0193216 0.00298789 0.0121007
-2.48463e-21 0.0193217 0.00298796 -0.00555467
-2.71051e-20 0.0195688 0.0002809 -0.00555397
2.71051e-20 -0.0195688 0.000280889 0.0121004
0 0.019589 0.000871785 -0.00555419
2.71051e-20 -0.0195891 0.000871776 0.0121001
-2.71051e-20 0.019374 0.00328238 -0.00555503
-2.71051e-20 -0.019374 0.00328231 0.0121006
0 0.0196057 0.00151362 -0.0055545
2.71051e-20 -0.0196057 0.0015136 0.0121001
-1.35525e-20 0.0193742 0.00339401 -0.00555507
2.71051e-20 -0.0193743 0.00339402 0.0121006
2.71051e-20 -0.0196062 0.00219166 0.0121001
0 0.0196062 0.0021917 -0.00555503
-1.35525e-20 0.0197445 1.18814e-10 -0.00555439
0 -0.0197445 1.18805e-10 0.0121
-1.35525e-20 0.0197496 0.000118775 -0.0055544
2.71051e-20 -0.0197497 0.000118768 0.0121
0 -0.0196349 0.00277745 0.0121002
2.71051e-20 0.0196349 0.00277749 -0.00555483
2.71051e-20 -0.0195953 0.00324393 0.0121002
1.35525e-20 0.0195954 0.00324399 -0.00555543
-1.35525e-20 0.0198868 6.23618e-11 -0.00555482
1.35525e-20 -0.0198869 6.23578e-11 0.0120997
-2.25875e-21 0.0199025 0.000551659 -0.00555478
0 -0.0199025 0.000551656 0.0120996
-1.35525e-20 -0.0196374 0.00348418 0.0121001
-2.71051e-20 0.0196377 0.00348428 -0.00555553
-2.25875e-21 0.0199263 0.001165 -0.00555484
-3.38813e-21 -0.0199263 0.001165 0.0120995
1.35525e-20 -0.0197066 0.00339972 0.0121
0 0.0197068 0.00339991 -0.00555562
-1.35525e-20 0.0200175 0.000104914 -0.00555501
0 -0.0200175 0.000104929 0.0120996
0 0.020018 5.47771e-11 -0.00555501
0 -0.0200181 5.47715e-11 0.0120996
1.12938e-21 -0.0199354 0.00184126 0.0120995
3.38813e-21 0.0199354 0.00184128 -0.00555503
4.51751e-21 -0.0199396 0.00250633 0.0120996
0 0.0199397 0.00250637 -0.00555528
-1.35525e-20 -0.0198049 0.00354152 0.0120997
-1.35525e-20 0.019805 0.00354156 -0.00555579
1.12938e-21 -0.0199176 0.00307602 0.0120996
-4.51751e-21 0.0199177 0.00307606 -0.00555564
0 -0.0202108 0.000262556 0.0120992
2.71051e-20 0.0202108 0.00026255 -0.00555547
0 0.0202372 0.000828992 -0.00555548
2.71051e-20 -0.0202372 0.000828987 0.0120989
0 0.0199792 0.00344752 -0.00555617
-2.71051e-20 -0.0199793 0.00344738 0.0120995
-6.77626e-21 0.0199875 0.00360402 -0.00555629
-1.35525e-20 -0.0199877 0.00360407 0.0120994
0 0.0202611 0.00146964 -0.0055552
-2.71051e-20 -0.0202612 0.00146963 0.012099
-2.71051e-20 -0.0202613 0.00216726 0.0120989
-5.42101e-20 0.0202614 0.00216729 -0.00555535
-1.35525e-20 -0.020424 1.48352e-11 0.012099
1.35525e-20 0.0204241 1.48335e-11 -0.00555416
0 -0.0204263 8.83644e-05 0.012099
1.35525e-20 0.0204264 8.83482e-05 -0.00555415
6.77626e-21 -0.0201259 0.00365139 0.0120992
2.71051e-20 -0.0202574 0.00283427 0.0120991
-2.71051e-20 0.0202575 0.00283433 -0.0055559
6.77626e-21 0.0201264 0.00365156 -0.00555654
0 -0.0202301 0.00346725 0.0120989
0 0.0202303 0.00346745 -0.00555658
0 -0.0205367 8.07365e-12 0.0120988
0 0.0205367 8.07331e-12 -0.00555327
2.25875e-21 -0.0205431 0.000507253 0.0120987
-2.25875e-21 0.0205431 0.000507255 -0.0055543
-2.25875e-21 0.0205806 0.00109812 -0.00555526
-2.25875e-21 -0.0205806 0.00109812 0.0120984
-1.35525e-20 0.0206332 7.23344e-05 -0.00555159
-1.35525e-20 -0.0206332 7.23369e-05 0.0120989
0 0.0206362 7.47662e-12 -0.00555169
-1.35525e-20 -0.0206362 7.47681e-12 0.0120989
1.35525e-20 -0.0203259 0.00371982 0.0120987
0 0.0203262 0.0037199 -0.00555657
1.12938e-21 -0.0205919 0.0017924 0.0120983
-1.12938e-21 0.0205919 0.00179242 -0.00555523
-2.25875e-21 -0.0205776 0.00251315 0.0120984
-3.38813e-21 0.0205776 0.00251319 -0.00555609
-1.35525e-20 -0.0204397 0.00376151 0.012098
1.35525e-20 0.0204398 0.00376155 -0.00555547
-1.35525e-20 -0.0204727 0.00364916 0.0120981
-1.35525e-20 0.0204728 0.00364933 -0.00555579
1.8823e-21 -0.0205733 0.00324403 0.0120983
1.12938e-21 0.0205734 0.00324407 -0.00555674
0 0.0208433 0.000231582 -0.0055503
2.71051e-20 -0.0208434 0.000231576 0.0120987
-2.71051e-20 0.0208763 0.000747827 -0.00555593
-2.71051e-20 -0.0208763 0.000747825 0.0120981
-2.71051e-20 0.0209306 0.00137574 -0.00555448
2.71051e-20 -0.0209307 0.00137573 0.0120976
1.35525e-20 0.0206256 0.00382198 -0.00555747
1.35525e-20 -0.0206258 0.00382201 0.0120981
0 -0.0209017 0.00213763 0.0120978
-2.71051e-20 0.0209017 0.00213766 -0.00555578
6.77626e-21 -0.0207137 0.00385275 0.0120982
6.77626e-21 0.0207139 0.00385285 -0.0055582
5.42101e-20 -0.0208885 0.0028589 0.0120977
2.71051e-20 0.0208886 0.00285896 -0.00555726
6.77626e-21 -0.02076 0.00376312 0.0120982
6.77626e-21 0.0207604 0.00376287 -0.00555851
1.50584e-21 -0.0211429 0.000434515 0.0120978
-4.51751e-21 0.0211429 0.000434517 -0.0055532
-5.27043e-21 -0.020841 0.00362678 0.0120983
7.52918e-22 0.0208412 0.00362688 -0.00555897
6.77626e-21 -0.0208385 0.00389815 0.0120976
6.77626e-21 0.0208392 0.00389846 -0.00555805
-2.96462e-21 0.0212597 5.23664e-13 -0.00555273
-4.23516e-22 -0.0212598 5.24304e-13 0.0120976
-8.47033e-22 0.0212767 1.41034e-05 -0.00555274
4.23516e-22 0.0212812 1.48332e-06 -0.00555273
8.89385e-21 -0.0212768 1.40587e-05 0.0120976
0 -0.0212769 1.7356e-06 0.0120976
0 0.0212896 2.69174e-13 -0.00555275
0 -0.0212896 2.70632e-13 0.0120976
-1.69407e-21 0.0212724 0.000879015 -0.0055543
-1.8823e-22 -0.0212724 0.000879006 0.0120973
3.38813e-22 0.0212426 0.00171822 -0.00555545
1.01644e-21 -0.0212427 0.00171817 0.0120972
-2.25875e-21 -0.0212146 0.00249699 0.0120971
2.25875e-21 0.0212146 0.00249702 -0.00555678
1.35525e-20 -0.0210353 0.00398137 0.0120971
1.35525e-20 0.0210356 0.00398151 -0.00555887
2.25875e-21 -0.021178 0.00323684 0.0120969
-2.25875e-21 0.0211781 0.00323695 -0.00555754
-1.35525e-20 -0.0210737 0.00393718 0.0120971
-2.71051e-20 0.0210739 0.00393742 -0.00555888
1.35525e-20 -0.0211187 0.00402023 0.0120969
0 0.0211188 0.00402028 -0.00555898
8.06698e-23 -0.0212477 0.0036816 0.0120967
0 0.0212477 0.00368165 -0.00555841
-5.42101e-20 0.0215747 0.00130741 -0.00555517
0 -0.0215747 0.0013074 0.0120969
0 0.0212487 0.00397497 -0.0055594
-1.35525e-20 -0.0212488 0.00397483 0.0120966
6.77626e-21 0.0212528 0.00408536 -0.00555965
-2.03288e-20 -0.021253 0.00408547 0.0120965
-2.25875e-21 0.0216407 0.000331745 -0.0055526
0 -0.0216408 0.000331738 0.0120959
-2.71051e-20 0.0215441 0.00209933 -0.00555641
-2.71051e-20 -0.0215441 0.00209931 0.0120965
-2.71051e-20 -0.0215224 0.00284519 0.0120962
0 0.0215225 0.00284524 -0.00555757
0 0.0217961 7.90662e-14 -0.00555356
1.35525e-20 -0.0217961 7.93942e-14 0.0120957
0 -0.0215506 0.0034709 0.012096
0 0.0215507 0.00347098 -0.00555802
-2.71051e-20 -0.021496 0.00395183 0.012096
2.71051e-20 0.0214961 0.00395191 -0.00556007
-6.77626e-21 -0.0214981 0.0042046 0.0120957
-6.77626e-21 0.0214986 0.00420483 -0.00555982
0 0.0218605 0.00170496 -0.00555658
3.29402e-22 -0.0218606 0.0017049 0.0120961
-2.25875e-22 0.0219212 0.000827144 -0.00555435
-3.83988e-21 -0.0219212 0.00082713 0.012096
-2.71051e-20 0.0219609 4.00731e-14 -0.00555453
1.35525e-20 -0.021961 4.01625e-14 0.0120962
5.64689e-22 -0.0218494 0.00247004 0.0120957
-5.64689e-22 0.0218494 0.00247006 -0.00555742
1.35525e-20 -0.0216144 0.00413961 0.0120954
1.35525e-20 0.0216146 0.0041399 -0.00555963
1.35525e-20 -0.0216502 0.00427848 0.0120951
0 0.0216504 0.00427858 -0.00555923
5.64689e-22 -0.0218421 0.00317491 0.0120954
1.12938e-21 0.0218422 0.00317497 -0.00555805
0 -0.0217324 0.0043183 0.0120944
0 0.0217325 0.00431833 -0.00555822
-2.71051e-20 -0.0217584 0.00423542 0.0120944
-1.35525e-20 0.0217584 0.00423558 -0.00555843
0 0.0221732 2.80694e-14 -0.00555419
0 -0.0221734 2.81207e-14 0.0120961
0 -0.0218663 0.00385214 0.0120948
-7.05861e-23 0.0218671 0.00385266 -0.00555881
2.71051e-20 0.0222021 0.00129535 -0.00555682
0 -0.0222022 0.00129534 0.0120953
0 -0.0222511 0.000330196 0.0120963
0 0.0222517 0.000329756 -0.00555364
2.71051e-20 0.0221693 0.00208073 -0.00555792
2.71051e-20 -0.0221694 0.00208072 0.0120953
1.35525e-20 0.0218632 0.00438168 -0.0055593
-2.71051e-20 -0.0218633 0.00438173 0.0120944
-6.77626e-21 -0.0223211 1.21337e-14 0.0120958
-2.03288e-20 0.0223211 1.20993e-14 -0.00555453
-2.71051e-20 -0.0221597 0.00282092 0.0120947
2.71051e-20 0.0221597 0.00282095 -0.00555781
-2.71051e-20 -0.0221457 0.00350906 0.0120945
2.71051e-20 0.0221457 0.00350913 -0.00555874
-1.35525e-20 -0.0220147 0.00445519 0.0120943
-6.77626e-21 0.0220149 0.00445527 -0.00555981
5.42101e-20 0.0225414 1.2233e-15 -0.00555569
0 -0.0225415 1.22688e-15 0.0120946
3.95282e-21 -0.0221394 0.00425952 0.0120943
2.25875e-21 0.0221395 0.00425957 -0.00556013
0 0.0224964 0.00168457 -0.00555723
4.23516e-21 -0.0224964 0.00168462 0.0120947
-4.23516e-22 0.0225021 0.0016848 -0.00555722
4.23516e-22 -0.0225021 0.00168484 0.0120946
-4.23516e-22 -0.0225129 0.001688 0.0120946
0 0.0225131 0.001688 -0.0055572
-1.807e-21 0.022576 0.000874286 -0.00555529
-2.71051e-21 -0.0225761 0.000874279 0.0120942
5.64689e-22 0.0225135 0.00242347 -0.00555754
8.06698e-23 -0.0225135 0.0024234 0.012094
2.25875e-21 -0.0224593 0.00318118 0.0120937
-4.51751e-21 0.0224593 0.00318122 -0.00555836
1.69407e-21 -0.0223014 0.00459401 0.0120933
0 0.0223021 0.00459434 -0.00556055
6.32451e-21 -0.0224349 0.00390494 0.0120934
-3.16226e-21 0.0224349 0.00390503 -0.00555926
-9.74088e-21 0.0228058 8.71796e-16 -0.00555371
4.23516e-22 -0.022806 8.73835e-16 0.0120907
3.81165e-21 0.022811 2.493e-05 -0.00555364
-4.23516e-22 -0.0228111 2.41514e-05 0.0120906
3.38813e-21 -0.0223411 0.0046132 0.0120932
3.38813e-21 0.0223413 0.00461331 -0.00556076
0 -0.0228141 8.54707e-16 0.0120906
-1.12938e-21 0.0228117 0.000334111 -0.00555369
2.96462e-21 0.0228142 8.52135e-16 -0.00555368
-5.64689e-22 -0.0228118 0.000334123 0.0120913
0 -0.0223469 0.00460662 0.0120932
-3.38813e-21 0.022347 0.00460681 -0.00556075
0 -0.0223544 0.00461967 0.0120932
0 0.0223545 0.00461971 -0.0055608
0 -0.0223624 0.00458463 0.0120932
0 0.0223623 0.00458505 -0.00556067
-1.69407e-21 0.0223809 0.00461205 -0.00556074
0 -0.0223811 0.00461193 0.012093
0 0.0223956 0.00463962 -0.00556075
-1.69407e-21 -0.022396 0.00463981 0.0120929
-1.35525e-20 -0.0225313 0.00433152 0.0120933
0 0.0225314 0.00433163 -0.00556033
0 -0.0227767 0.00282449 0.012093
5.42101e-20 0.0227767 0.00282452 -0.00555777
0 0.0229169 0.00145352 -0.00555646
2.71051e-20 -0.022917 0.00145354 0.0120943
-2.71051e-20 0.0229127 0.00195201 -0.00555599
-2.71051e-20 -0.0229127 0.00195199 0.0120931
0 -0.0227583 0.00352767 0.0120925
0 0.0227583 0.00352773 -0.00555906
0 -0.0226788 0.00436536 0.0120927
-1.35525e-20 0.0226788 0.00436543 -0.00556044
-1.35525e-20 -0.0231146 6.2653e-16 0.0120924
1.35525e-20 0.0231146 6.24699e-16 -0.00555478
-2.82344e-22 0.0231263 0.00085734 -0.00555533
2.82344e-22 -0.0231263 0.00085738 0.0120923
0 0.0231204 0.00168687 -0.00555608
1.35525e-20 -0.0231204 0.00168687 0.0120929
-1.35525e-20 -0.022691 0.00478261 0.0120911
1.35525e-20 0.0226912 0.00478269 -0.00556068
-4.23516e-22 0.0231332 0.00244156 -0.00555707
2.5411e-21 -0.0231332 0.00244155 0.0120921
-1.35525e-20 -0.0227887 0.00466778 0.012091
-1.35525e-20 0.0227888 0.00466792 -0.00556056
-1.12938e-21 -0.0230834 0.00317451 0.012092
4.51751e-21 0.0230834 0.00317454 -0.00555801
0 -0.023319 3.12047e-16 0.0120919
0 0.0233192 3.1085e-16 -0.00555529
0 -0.0230283 0.00391279 0.0120916
0 0.0230283 0.00391288 -0.00555867
0 -0.0233299 0.00142278 0.0120923
0 0.02333 0.00142275 -0.00555416
0 -0.0233168 0.00194192 0.012092
0 0.0233168 0.00194193 -0.00555631
-2.71051e-20 -0.0228965 0.00488208 0.0120912
5.42101e-20 0.0228965 0.0048821 -0.0055612
0 0.0234102 0.000267349 -0.00555538
2.25875e-21 -0.0234102 0.000267197 0.012092
2.25875e-21 -0.0229985 0.00439045 0.0120912
-3.76459e-21 0.0229986 0.00439055 -0.00555955
-1.35525e-20 0.023516 1.75113e-16 -0.00555562
-6.77626e-21 -0.0235163 1.75793e-16 0.0120919
2.71051e-20 -0.0234234 0.00278582 0.0120914
0 0.0234234 0.00278584 -0.00555671
0 -0.023065 0.00496366 0.0120906
0 0.0230651 0.00496372 -0.00556196
2.71051e-20 -0.0233787 0.00352555 0.012091
0 0.0233787 0.00352559 -0.0055585
0 0.023716 -1.12992e-16 -0.00555557
-1.35525e-20 -0.0237161 -1.12641e-16 0.0120921
4.51751e-22 -0.0232667 0.00471649 0.0120901
0 0.0232668 0.00471653 -0.00556149
0 -0.0233857 0.00417624 0.0120905
0 0.0233857 0.00417629 -0.00555781
0 0.0232203 0.00503884 -0.00556167
-6.77626e-21 -0.0232204 0.00503886 0.0120899
1.69407e-21 0.0237642 0.00087167 -0.00555535
-1.97641e-21 -0.0237642 0.000871743 0.0120917
0 -0.0237896 9.69124e-05 0.0120918
0 0.0237897 9.71024e-05 -0.00555624
0 -0.0237941 4.97838e-16 0.0120918
-1.35525e-20 0.0237941 5.00227e-16 -0.00555627
1.41172e-22 -0.0237453 0.00168599 0.0120914
-5.64689e-22 0.0237454 0.00168598 -0.00555542
1.35525e-20 -0.0238503 -3.62296e-16 0.0120918
0 0.0238505 -3.64289e-16 -0.00555591
-9.03502e-22 -0.0237771 0.00232528 0.0120908
-4.06576e-21 0.0237771 0.00232532 -0.00555678
-1.35525e-20 -0.0233449 0.00509915 0.0120895
0 0.023345 0.00509919 -0.00556131
-2.25875e-21 -0.0237117 0.00315189 0.0120904
3.38813e-21 0.0237118 0.0031519 -0.00555816
-1.35525e-20 -0.0239753 0.000105662 0.0120917
1.35525e-20 0.0239757 0.000105887 -0.00555548
0 -0.0240028 2.38539e-16 0.0120916
-2.25875e-21 -0.0236913 0.00385633 0.0120898
3.38813e-21 0.0236913 0.00385637 -0.00555885
0 0.0240033 2.38657e-16 -0.0055555
-1.35525e-20 -0.0235265 0.00518704 0.0120874
2.37169e-20 0.0235265 0.00518705 -0.0055601
6.02335e-21 0.0237117 0.00456141 -0.00555969
-1.35525e-20 -0.0237117 0.00456136 0.0120889
0 -0.0235864 0.00521604 0.0120874
-3.38813e-21 0.0235866 0.00521614 -0.00556041
-1.89735e-20 -0.0236568 0.00499179 0.012088
-1.6263e-20 0.0236569 0.00499184 -0.00556033
0 -0.0240359 0.00277848 0.01209
2.71051e-20 0.0240359 0.00277849 -0.00555751
2.71051e-20 -0.0240146 0.00349442 0.0120892
0 0.0240146 0.00349445 -0.00555999
0 -0.0237108 0.00516849 0.0120876
-1.35525e-20 0.0237109 0.00516865 -0.00556104
0 -0.0237216 0.00528148 0.0120878
0 0.0237216 0.0052815 -0.00556226
3.38813e-21 0.0238516 0.00489339 -0.00556058
0 -0.0238517 0.00489345 0.0120883
0 -0.0239976 0.00419233 0.0120885
0 0.0239977 0.00419237 -0.00555921
-6.77626e-21 0.0238168 0.00514851 -0.00556124
6.77626e-21 -0.0238169 0.00514833 0.0120877
1.35525e-20 0.0238282 0.00525495 -0.0055623
6.77626e-21 -0.0238283 0.0052549 0.0120874
0 0.0238429 0.00534021 -0.00556297
-6.77626e-21 -0.023843 0.00534026 0.012087
5.42101e-20 0.0243893 0.00171904 -0.00555461
0 -0.0243893 0.00171904 0.0120902
1.35525e-20 -0.0239789 0.00489861 0.0120886
1.35525e-20 0.0239789 0.0048987 -0.0055597
1.41172e-22 0.0243696 0.00243126 -0.00555825
0 -0.0243706 0.00243184 0.0120893
0 -0.0244866 0.000512679 0.0120911
5.42101e-20 0.0244867 0.000512677 -0.00555412
-3.38813e-21 -0.0243442 0.00312513 0.0120886
2.25875e-21 0.0243442 0.00312514 -0.00555917
2.03288e-20 -0.0239577 0.00539578 0.0120864
-2.03288e-20 0.0239577 0.00539581 -0.00556363
2.71051e-21 0.0240299 0.00521685 -0.00556275
8.13152e-21 -0.0240299 0.00521683 0.012087
-2.25875e-21 -0.0243197 0.0038376 0.0120879
0 0.0243197 0.00383762 -0.00555913
4.51751e-21 -0.0242836 0.00455355 0.0120871
-6.77626e-21 0.0242836 0.00455361 -0.00555903
0 0.0241601 0.00549381 -0.00556367
-1.35525e-20 -0.0241602 0.00549381 0.0120864
-7.52918e-22 -0.0242636 0.00502106 0.0120863
-5.27043e-21 0.0242636 0.0050211 -0.0055606
0 -0.0246819 0.00275431 0.0120882
0 0.0246819 0.00275432 -0.00556107
0 -0.0246457 0.00346487 0.0120872
0 0.0246457 0.00346489 -0.00555843
0 0.0243131 0.00556784 -0.00556475
0 -0.0243131 0.00556784 0.0120855
2.71051e-20 0.0249637 3.14343e-16 -0.00555508
0 -0.0249638 3.14534e-16 0.01209
0 0.0249658 0.000127132 -0.00555503
-1.35525e-20 -0.0249658 0.000127056 0.01209
-2.71051e-20 -0.0246319 0.00416566 0.0120867
0 0.0246319 0.00416568 -0.00555903
-4.51751e-21 0.0250669 0.0011139 -0.00555508
-2.25875e-21 -0.0250669 0.0011139 0.0120892
-1.807e-21 0.0245277 0.00533373 -0.00556383
3.61401e-21 -0.0245277 0.00533373 0.0120848
2.71051e-20 -0.0246411 0.00480616 0.0120853
0 0.0246411 0.00480619 -0.00555833
0 -0.0251264 -5.56023e-18 0.0120895
2.71051e-20 0.0251265 -5.53943e-18 -0.00555525
-6.77626e-21 0.0244891 0.00565307 -0.00556528
-6.77626e-21 -0.0244893 0.0056531 0.0120845
2.25875e-21 0.0250457 0.00228488 -0.00555602
5.64689e-21 -0.0250457 0.00228488 0.012088
0 -0.0249744 0.00307723 0.0120871
-2.82344e-22 0.0249744 0.00307727 -0.00555768
-2.71051e-20 0.0245965 0.00570506 -0.00556524
-2.71051e-20 -0.0245966 0.00570506 0.0120841
2.71051e-20 -0.0252751 0.000134702 0.0120892
0 -0.0249933 0.00376619 0.0120857
-8.47033e-22 0.0249934 0.00376619 -0.00555729
0 0.0252752 0.000134769 -0.0055556
-1.35525e-20 -0.0252845 -2.39201e-18 0.0120892
1.35525e-20 0.0252846 -2.39376e-18 -0.00555563
1.12938e-21 -0.0249434 0.00449172 0.0120848
-3.38813e-21 0.0249434 0.00449173 -0.00555802
-3.38813e-20 0.0247822 0.00579494 -0.00556653
-2.37169e-20 -0.0247823 0.00579496 0.0120814
1.50584e-21 0.0249666 0.00518174 -0.0055616
-4.51751e-21 -0.0249666 0.00518171 0.0120835
-6.77626e-21 -0.0248296 0.00581788 0.0120815
6.77626e-21 0.0248297 0.00581793 -0.00556653
1.89735e-20 0.0249104 0.00560269 -0.00556474
5.42101e-21 -0.0249105 0.00560268 0.0120823
-2.71051e-20 0.0254015 0.00285468 -0.00555124
-2.71051e-20 -0.0254015 0.00285468 0.0120871
-2.71051e-20 -0.0252645 0.0041447 0.012084
2.71051e-20 0.0252645 0.00414472 -0.0055555
0 0.0254031 0.00331055 -0.00555528
2.71051e-20 -0.0254031 0.00331053 0.0120852
-6.77626e-21 -0.0249624 0.00577186 0.0120818
6.77626e-21 0.0249624 0.00577198 -0.00556603
1.35525e-20 -0.0249739 0.00588773 0.0120821
0 0.0249739 0.00588773 -0.0055674
0 -0.0252501 0.00482063 0.0120833
2.71051e-20 0.0252501 0.00482065 -0.00555923
0 0.0257172 0.000556259 -0.00555622
0 -0.0257173 0.000556256 0.0120882
0 0.0250722 0.00575404 -0.00556527
6.77626e-21 -0.0250723 0.0057539 0.012082
0 0.0256698 0.00175088 -0.00555537
-5.42101e-20 -0.0256699 0.00175088 0.0120871
2.82344e-22 -0.0256382 0.0024157 0.0120864
-1.69407e-21 0.0256382 0.00241572 -0.00555047
6.77626e-21 0.0250837 0.00586272 -0.00556708
6.77626e-21 -0.0250837 0.0058627 0.0120815
1.35525e-20 -0.0256079 0.00307874 0.0120852
0 0.0256079 0.00307875 -0.00555023
0 0.0250979 0.00594758 -0.00556832
0 -0.025098 0.00594765 0.0120811
2.25875e-21 -0.0251925 0.00555309 0.0120823
0 0.0251926 0.00555306 -0.00556321
-1.35525e-20 0.0252317 0.00551488 -0.00556075
0 -0.0252317 0.00551484 0.0120835
0 -0.0255924 0.00379288 0.0120836
-3.01167e-21 0.0255924 0.00379288 -0.00555386
-6.77626e-21 -0.0252102 0.00600188 0.0120803
-6.77626e-21 0.0252102 0.00600189 -0.00556922
-2.71051e-21 0.0252817 0.00582896 -0.00556664
-5.42101e-21 -0.0252818 0.00582896 0.0120812
-5.64689e-21 -0.0255735 0.00447394 0.0120827
0 0.0255735 0.00447395 -0.00555624
0 -0.0258318 0.00284479 0.0120853
0 0.0258318 0.00284478 -0.00554405
-2.71051e-20 -0.0257993 0.00329833 0.0120835
0 0.0257993 0.00329834 -0.00554873
-2.25875e-21 0.0255336 0.00517881 -0.00555921
2.25875e-21 -0.0255336 0.00517877 0.0120816
0 0.025412 0.0060992 -0.00556973
1.35525e-20 -0.0254121 0.00609923 0.0120805
0 -0.0255488 0.00563573 0.0120804
2.25875e-21 0.0255489 0.00563577 -0.0055629
0 0.0262228 -2.4481e-18 -0.00555844
-2.71051e-20 -0.0262229 -2.47067e-18 0.012087
-1.35525e-20 0.0262241 0.000110141 -0.00555844
0 -0.0262242 0.000110108 0.012087
0 -0.025914 0.00409941 0.0120826
2.71051e-20 0.025914 0.00409942 -0.005553
0 -0.0255676 0.00617787 0.0120792
-1.35525e-20 0.0255676 0.0061779 -0.00557098
0 0.025876 0.00480446 -0.00555724
-2.71051e-20 -0.025876 0.00480444 0.0120811
4.51751e-21 0.0263175 0.00114406 -0.00555837
-4.51751e-21 -0.0263176 0.00114406 0.0120862
1.35525e-20 0.0263543 1.29153e-19 -0.00555872
0 -0.0263544 1.25826e-19 0.0120866
4.51751e-21 0.0263095 0.00235737 -0.00555182
0 -0.0263095 0.00235736 0.0120845
-1.05879e-22 -0.0262457 0.00306372 0.0120833
0 0.0262443 0.00306373 -0.00554753
0 -0.0262456 0.00305715 0.0120833
-1.05879e-22 0.0262456 0.00305727 -0.00554757
3.17637e-22 0.0262459 0.0030829 -0.00554761
-2.22346e-21 -0.0262459 0.00308326 0.0120832
-2.71051e-20 0.0258908 0.00543286 -0.0055576
0 -0.0258909 0.00543283 0.0120797