# p  POINT_DATA 51037
# x  y  z  p
0.0130568 0 4.20467e-06 -0.00551526
-0.0130568 0 4.20224e-06 0.0120555
0.0130538 0 6.66496e-06 -0.00551523
-0.0130538 0 6.66145e-06 0.0120555
-0.0130538 0 0.000644966 0.0120554
0.0130538 0 0.000645285 -0.005514
-0.0130538 0 0.00065941 0.0120555
0.0130538 0 0.00065974 -0.00551405
-0.0130538 0 0.000674665 0.0120555
0.0130538 0 0.000675 -0.00551396
-0.0130603 8.47033e-22 0.000649852 0.0120554
0.0130603 0 0.000650175 -0.00551401
-0.0130603 0 0.000668993 0.0120555
0.0130603 0 0.000669326 -0.00551398
-0.0130709 5.0822e-21 0.000658297 0.0120554
0.0130709 -1.43996e-20 0.000658629 -0.005514
-0.0130538 0 0.00133823 0.0120554
0.0130538 0 0.00133856 -0.0055128
-0.0130538 -1.69407e-21 0.00135482 0.0120554
0.0130538 0 0.00135516 -0.00551288
-0.0130538 -1.69407e-21 0.00137229 0.0120554
0.0130538 1.69407e-21 0.00137264 -0.00551284
-0.0130609 0 0.00134178 0.0120554
0.0130609 0 0.00134211 -0.00551281
-0.0130605 1.69407e-21 0.00136344 0.0120554
0.0130605 0 0.00136379 -0.00551284
-0.0130744 1.86347e-20 0.00134763 0.0120553
0.0130744 5.0822e-21 0.00134797 -0.00551279
-0.0130556 0 0.00208219 0.0120552
0.0130566 4.23516e-22 0.0020858 -0.00551216
-0.0130676 -4.23516e-22 0.00208096 0.0120552
0.0130676 -4.23516e-22 0.00208096 -0.00551202
-0.0133442 0 8.05854e-08 0.0120552
0.0133442 -2.03288e-20 8.05851e-08 -0.00551693
-0.0133452 0 0.000326595 0.0120553
0.0133452 4.51751e-21 0.00032676 -0.00551659
-0.0133372 -1.12938e-21 0.000960076 0.0120547
0.0133372 -3.38813e-21 0.000960432 -0.00551294
-0.0132973 -2.25875e-21 0.00155434 0.0120547
0.0132973 4.51751e-21 0.00155458 -0.00551264
-0.0132406 -3.38813e-20 0.00216285 0.0120541
0.0132406 3.38813e-21 0.00216285 -0.00550951
-0.0132805 -6.77626e-21 0.00206436 0.0120539
0.0132806 -3.38813e-21 0.00206428 -0.00550904
0.0133175 2.71051e-20 0.00219404 -0.00551053
-0.0133175 2.71051e-20 0.00219405 0.0120543
-0.0133831 4.51751e-21 0.00186926 0.0120538
0.0133831 0 0.00186938 -0.0055093
-0.0135632 2.03288e-20 9.24943e-08 0.0120535
0.0135632 -1.35525e-20 9.24941e-08 -0.00551099
-0.0134965 4.51751e-21 0.00146628 0.0120542
0.0134965 2.25875e-21 0.00146652 -0.0055131
-0.0136117 -6.77626e-21 8.70578e-05 0.0120542
0.0136117 6.77626e-21 8.70948e-05 -0.00551062
-0.0136152 0 8.46271e-08 0.0120541
0.0136152 -1.35525e-20 8.46272e-08 -0.00551056
-0.0136416 0 8.06399e-08 0.0120532
0.0136416 1.35525e-20 8.06405e-08 -0.0055103
-0.0136355 4.06576e-21 0.000679005 0.0120533
0.0136355 -3.83988e-21 0.00067928 -0.00550921
0.0134812 0 0.00226051 -0.0055098
-0.0134812 2.71051e-20 0.00226053 0.0120538
-0.0136197 1.31761e-21 0.00119016 0.0120532
0.0136197 3.38813e-21 0.00119046 -0.0055091
-0.0136061 -4.51751e-21 0.00162993 0.0120532
0.0136061 -4.51751e-21 0.00163012 -0.00550835
0.0137235 -6.77626e-21 7.39517e-08 -0.00550977
-0.0137235 1.35525e-20 7.39504e-08 0.012053
0.0137252 0 9.16503e-05 -0.00550977
-0.0137252 0 9.16307e-05 0.012053
-0.0137102 -5.64689e-22 0.00202489 0.012053
0.0137103 0 0.00202497 -0.00550831
-0.0136752 6.77626e-21 0.00233929 0.012053
0.0136753 6.77626e-21 0.00233932 -0.00550841
-0.0137679 -6.77626e-21 0.00237695 0.0120526
0.013768 0 0.00237697 -0.00550757
0.0139849 1.35525e-20 0.000399215 -0.00550739
-0.0139849 -2.71051e-20 0.000399115 0.0120516
-0.0139861 4.51751e-21 0.00091313 0.012052
0.0139861 0 0.000913297 -0.00550848
-0.0139546 9.03502e-21 0.00150392 0.0120522
0.0139546 -9.03502e-21 0.00150406 -0.00550867
-0.0140935 -1.35525e-20 0.000126399 0.0120516
0.0140935 -1.35525e-20 0.000126419 -0.00550666
-0.0141016 -2.71051e-20 1.51491e-08 0.0120516
0.0141016 -2.71051e-20 1.51471e-08 -0.00550657
-0.013961 0 0.00245528 0.0120507
0.0139612 -3.38813e-21 0.00245534 -0.00549765
-0.0141702 0 0.000612168 0.0120513
0.0141702 2.71051e-20 0.000612269 -0.00550546
-0.0139759 0 0.00246133 0.0120506
0.0139761 -8.47033e-22 0.00246136 -0.0054971
-0.0139804 0 0.00244924 0.0120506
0.0139805 -2.5411e-21 0.00244934 -0.00549695
-0.0141583 0 0.00121281 0.0120513
0.0141583 0 0.00121293 -0.00550539
-0.0142138 0 6.98128e-09 0.0120511
0.0142138 1.35525e-20 6.9805e-09 -0.00550561
-0.0141062 -2.71051e-20 0.00185466 0.0120514
0.0141063 0 0.00185473 -0.00550553
-0.0140936 2.25875e-21 0.00222221 0.0120506
0.0140937 0 0.00222227 -0.00549901
0.0143442 2.71051e-20 6.46171e-09 -0.00550449
-0.0143442 -1.35525e-20 6.46231e-09 0.0120506
-0.0141439 6.77626e-21 0.00239274 0.0120506
0.014144 0 0.0023928 -0.00550113
0.014345 0 0.000135094 -0.00550449
-0.014345 1.35525e-20 0.000135094 0.0120506
-0.0141783 1.35525e-20 0.00254352 0.0120511
0.0141784 0 0.00254356 -0.00550613
0.0144148 2.71051e-21 0.000393106 -0.00550375
-0.0144148 -8.13152e-21 0.000393046 0.0120504
-0.0142931 -6.77626e-21 0.00252723 0.0120507
0.0142932 -6.77626e-21 0.00252727 -0.00550598
-0.0142857 0 0.00258704 0.0120508
0.0142858 0 0.00258706 -0.00550624
-0.0145008 4.51751e-21 0.000915437 0.01205
0.0145009 -6.77626e-21 0.000915525 -0.00550221
-0.0143708 -1.69407e-21 0.00229753 0.0120505
0.0143709 0 0.00229758 -0.00550567
-0.0144716 4.51751e-21 0.00154756 0.01205
0.0144716 4.51751e-21 0.00154763 -0.00550223
-0.0144657 0 0.00205594 0.0120503
0.0144658 -4.51751e-21 0.002056 -0.0055059
-0.0146705 -2.71051e-20 0.000150455 0.0120494
0.0146705 0 0.000150466 -0.00550169
-0.01468 0 6.30408e-09 0.0120494
0.01468 0 6.30387e-09 -0.0055016
-0.0144708 -1.35525e-20 0.00266196 0.0120501
0.014471 0 0.00266201 -0.00550578
-0.0145058 -8.13152e-21 0.00250608 0.0120502
0.0145059 -1.35525e-20 0.00250612 -0.00550707
0.0148234 -1.35525e-20 5.71489e-09 -0.00550073
-0.0148234 -2.71051e-20 5.71495e-09 0.0120489
-0.0148746 4.51751e-21 0.000558343 0.0120486
0.0148746 9.03502e-21 0.000558392 -0.00550016
-0.0147687 0 0.00191044 0.0120489
0.0147687 -2.71051e-20 0.00191049 -0.00550125
-0.0146404 0 0.00273067 0.0120495
0.0146406 2.71051e-20 0.00273071 -0.00550451
-0.0148827 1.16165e-20 0.0011685 0.0120484
0.0148828 0 0.00116856 -0.00549947
0.0149747 1.35525e-20 4.96058e-09 -0.00549967
-0.0149747 0 4.96059e-09 0.0120483
0.0149752 -1.35525e-20 0.000142276 -0.00549966
-0.0149752 1.35525e-20 0.000142271 0.0120483
-0.0148162 0 0.00236391 0.0120489
0.0148163 4.51751e-21 0.00236395 -0.00550314
-0.0150223 4.51751e-21 0.00156468 0.012048
0.0150223 -9.03502e-21 0.00156474 -0.00549873
-0.0151425 -2.71051e-20 0.000304852 0.0120476
0.0151425 0 0.000304883 -0.0054983
-0.014892 0 0.00283336 0.012049
0.0148921 6.77626e-21 0.0028334 -0.0055071
-0.0151422 0 0.000920375 0.0120475
0.0151422 0 0.000920434 -0.00549761
-0.015042 -1.6263e-20 0.00210477 0.0120479
0.0150421 1.0842e-20 0.00210482 -0.00549902
-0.0150532 -4.51751e-21 0.00270351 0.0120484
0.0150534 0 0.00270357 -0.00550559
-0.0150254 1.35525e-20 0.00288744 0.0120485
0.0150256 3.38813e-20 0.00288752 -0.00550679
-0.0153086 1.35525e-20 2.24178e-09 0.012047
0.0153086 0 2.24177e-09 -0.00549714
-0.0153122 0 0.000140816 0.012047
0.0153122 0 0.000140822 -0.00549711
0.0154577 0 1.48792e-09 -0.00549627
-0.0154577 0 1.48787e-09 0.0120464
-0.0154655 -4.51751e-21 0.00060398 0.0120463
0.0154655 -1.12938e-20 0.000604018 -0.00549596
-0.0154631 2.25875e-21 0.00123926 0.0120463
0.0154631 2.03288e-20 0.00123931 -0.00549589
-0.0152765 0 0.0029899 0.012047
0.0152766 -2.71051e-20 0.00298996 -0.005502
-0.0154691 2.25875e-21 0.00188066 0.0120462
0.0154691 -4.51751e-21 0.00188071 -0.00549682
0.0156043 -1.35525e-20 1.30288e-09 -0.00549536
-0.0156043 0 1.30283e-09 0.0120458
0.0156046 1.35525e-20 0.000132291 -0.00549534
-0.0156046 -1.35525e-20 0.000132288 0.0120458
-0.0153943 -1.35525e-20 0.00303866 0.0120461
0.0153944 0 0.00303871 -0.00550085
-0.0154266 0 0.00293734 0.0120461
0.0154267 1.35525e-20 0.00293741 -0.00550088
-0.0155042 2.25875e-21 0.00256117 0.0120462
0.0155043 -3.76459e-21 0.00256122 -0.00550085
0.0157872 2.71051e-20 0.000299894 -0.00549406
-0.0157872 2.71051e-20 0.000299869 0.0120451
-0.0157972 2.71051e-20 0.000914956 0.012045
0.0157972 0 0.000915008 -0.00549377
-0.015799 -2.71051e-20 0.00156064 0.012045
0.015799 -2.71051e-20 0.00156069 -0.00549461
-0.0156185 0 0.00313206 0.0120458
0.0156185 6.77626e-21 0.00313207 -0.00550507
-0.0158092 0 0.00221249 0.0120449
0.0158093 0 0.00221254 -0.00549646
-0.0159653 -2.71051e-20 5.84434e-10 0.0120444
0.0159653 2.71051e-20 5.84428e-10 -0.00549288
-0.0159712 0 0.000124936 0.0120443
0.0159712 0 0.000124938 -0.00549282
-0.015693 6.77626e-21 0.00316295 0.0120458
0.0156931 0 0.00316301 -0.00550715
-0.0157206 -6.77626e-21 0.0031026 0.0120458
0.0157208 0 0.00310257 -0.00550757
-0.0158002 0 0.00293364 0.0120458
0.0158003 0 0.0029337 -0.00550888
-0.0157817 6.77626e-21 0.00319963 0.0120451
0.015782 0 0.00319974 -0.00550382
0.0161034 -1.35525e-20 4.04844e-10 -0.00549212
-0.0161034 -1.35525e-20 4.04848e-10 0.0120438
-0.016119 -2.25875e-21 0.000594151 0.0120437
0.016119 2.25875e-21 0.000594174 -0.00549175
-0.01613 9.03502e-21 0.00122518 0.0120437
0.01613 0 0.00122521 -0.005492
0.0162343 -1.35525e-20 3.59814e-10 -0.00549119
-0.0162343 -2.71051e-20 3.59814e-10 0.0120433
0.0162345 -1.35525e-20 0.000113277 -0.00549117
-0.0162345 -1.35525e-20 0.000113279 0.0120433
-0.0161354 0 0.00188647 0.0120436
0.0161355 -9.03502e-21 0.00188651 -0.00549351
-0.0161281 6.77626e-21 0.00255569 0.0120436
0.0161282 -2.25875e-21 0.00255574 -0.00549687
-0.015998 -1.35525e-20 0.0032882 0.012044
0.0159982 2.71051e-20 0.00328826 -0.00550069
-0.0160357 0 0.00323052 0.0120439
0.0160358 0 0.00323061 -0.0055002
-0.016091 -1.35525e-20 0.00332623 0.0120436
0.0160912 1.35525e-20 0.00332628 -0.00549965
0.0164377 0 0.000292336 -0.00548974
-0.0164377 -5.42101e-20 0.000292322 0.0120425
0.0164553 2.71051e-20 0.000897692 -0.00548935
-0.0164553 2.71051e-20 0.00089766 0.0120423
-0.0162072 -1.807e-21 0.00298944 0.0120432
0.0162073 0 0.00298952 -0.00549867
-0.016466 2.71051e-20 0.00154116 0.0120423
0.016466 2.71051e-20 0.00154119 -0.00549028
-0.016253 0 0.00328154 0.0120429
0.016253 -1.35525e-20 0.00328162 -0.00549827
-0.0162529 -2.71051e-20 0.00339231 0.0120429
0.016253 -1.35525e-20 0.00339232 -0.00549865
-0.0164659 -2.71051e-20 0.00220933 0.0120422
0.016466 -5.42101e-20 0.00220938 -0.00549268
-0.0166389 0 1.04271e-10 0.0120419
0.0166389 1.35525e-20 1.04262e-10 -0.00548846
-0.0166447 0 0.000100566 0.0120418
0.0166447 0 0.000100563 -0.0054884
-0.0165069 -2.71051e-20 0.00278852 0.0120421
0.016507 0 0.00278859 -0.00549674
0.0167551 0 6.18359e-11 -0.00548787
-0.0167551 0 6.18413e-11 0.0120415
-0.0167741 6.77626e-21 0.000577078 0.0120413
0.0167741 -2.25875e-21 0.000577088 -0.00548741
-0.0164731 0 0.00325216 0.0120419
0.0164733 0 0.00325224 -0.00549679
-0.0167929 3.38813e-21 0.00119995 0.012041
0.0167929 1.12938e-21 0.00119996 -0.00548754
-0.0164937 -2.71051e-20 0.00349064 0.0120419
0.016494 1.35525e-20 0.00349077 -0.00549688
0.0168627 -1.35525e-20 5.62475e-11 -0.00548691
-0.0168627 -1.35525e-20 5.62517e-11 0.0120412
0.0168631 0 9.00315e-05 -0.0054869
-0.0168631 -1.35525e-20 9.00368e-05 0.0120412
-0.0167974 -2.25875e-21 0.0018671 0.0120409
0.0167974 -3.38813e-21 0.00186712 -0.00548882
-0.016565 0 0.00339846 0.0120416
0.0165653 2.71051e-20 0.00339864 -0.00549594
-0.0168042 -4.51751e-21 0.00251849 0.0120408
0.0168043 0 0.00251854 -0.00549152
-0.0166661 0 0.00356101 0.0120411
0.0166663 2.71051e-20 0.00356109 -0.00549598
-0.0167843 -2.25875e-21 0.00309016 0.0120408
0.0167844 -2.25875e-21 0.00309022 -0.00549343
0.0170872 0 0.000280474 -0.00548537
-0.0170872 -2.71051e-20 0.000280467 0.0120404
0.0171094 -2.71051e-20 0.000869698 -0.00548517
-0.0171094 0 0.000869686 0.0120397
-0.017124 0 0.00151088 0.0120397
0.017124 2.71051e-20 0.0015109 -0.00548547
-0.016855 6.77626e-21 0.00363794 0.0120403
0.016855 -1.35525e-20 0.00363795 -0.00549233
-0.0171219 -5.42101e-20 0.00218641 0.0120395
0.0171219 0 0.00218644 -0.0054869
-0.0173128 0 1.50015e-11 0.0120392
0.0173128 1.35525e-20 1.49999e-11 -0.00548473
-0.017316 0 7.61108e-05 0.0120392
0.017316 0 7.61049e-05 -0.0054847
-0.016994 4.51751e-21 0.00347025 0.0120397
0.0169942 -9.03502e-21 0.00347044 -0.00549131
-0.0169523 1.35525e-20 0.00367759 0.0120399
0.0169528 1.35525e-20 0.00367779 -0.0054918
-0.0171196 -2.71051e-20 0.00284364 0.0120396
0.0171197 2.71051e-20 0.00284371 -0.00548973
0.0174041 1.35525e-20 1.00263e-11 -0.00548511
-0.0174041 1.35525e-20 1.00267e-11 0.0120389
0.0174225 -1.12938e-21 0.000552277 -0.00548466
-0.0174225 0 0.000552274 0.0120385
-0.0174465 -3.38813e-21 0.00116234 0.0120384
0.0174465 -2.25875e-21 0.00116235 -0.0054841
0.0174883 0 9.27523e-12 -0.00548443
-0.0174883 0 9.27554e-12 0.0120382
0.0174886 1.35525e-20 6.91564e-05 -0.00548442
-0.0174886 0 6.91614e-05 0.0120382
-0.0174525 1.12938e-21 0.00183359 0.0120384
0.0174525 2.25875e-21 0.0018336 -0.0054847
-0.0171558 -4.06576e-20 0.00376044 0.0120389
0.0171561 0 0.00376058 -0.00549426
-0.0174398 -2.25875e-21 0.00252756 0.0120382
0.0174399 4.51751e-21 0.0025276 -0.00548639
-0.0172703 0 0.00381189 0.0120376
0.0172706 1.35525e-20 0.003812 -0.0054854
-0.0173099 -1.35525e-20 0.00368922 0.0120376
0.0173101 0 0.00368943 -0.00548607
-0.0174177 0 0.0032729 0.012038
0.0174179 -3.76459e-22 0.00327297 -0.00549013
0.0177262 0 0.000264495 -0.00548363
-0.0177263 -2.71051e-20 0.000264494 0.0120368
0.017753 0 0.000830849 -0.00548445
-0.017753 2.71051e-20 0.000830841 0.0120369
-0.0177738 -2.71051e-20 0.00146634 0.0120374
0.0177739 -2.71051e-20 0.00146635 -0.00548146
-0.0174674 0 0.00388874 0.0120374
0.0174675 -6.77626e-21 0.0038888 -0.00549629
-0.0177697 0 0.00215829 0.012037
0.0177697 2.71051e-20 0.0021583 -0.00548496
-0.0175192 6.77626e-21 0.0039114 0.0120373
0.0175194 0 0.00391155 -0.00549916
-0.0175515 -3.38813e-21 0.00385282 0.0120373
0.0175519 0 0.00385278 -0.00549999
-0.0177417 2.71051e-20 0.00287714 0.0120368
0.0177418 -2.71051e-20 0.0028772 -0.00548438
0.017981 -6.77626e-21 1.39444e-12 -0.00548102
-0.017981 -6.77626e-21 1.3943e-12 0.0120353
0.0179821 0 5.25103e-05 -0.00548101
-0.0179821 -6.77626e-21 5.25107e-05 0.0120353
-0.0175795 2.03288e-20 0.00394118 0.0120368
0.01758 -1.35525e-20 0.00394143 -0.0054962
-0.0176602 0 0.00367713 0.0120373
0.0176605 0 0.00367727 -0.0055037
0.0180463 0 7.99282e-13 -0.00548098
-0.0180463 -6.77626e-21 7.99057e-13 0.0120351
0.0180587 0 0.000513287 -0.00548221
-0.0180587 -1.12938e-21 0.000513287 0.0120353
0.0181036 0 4.49211e-05 -0.00547927
-0.0181036 0 4.4918e-05 0.0120338
0.0181054 0 7.64381e-13 -0.00547927
-0.0181054 6.77626e-21 7.64199e-13 0.0120338
0.0181063 2.25875e-22 0.00109871 -0.00547962
-0.0181063 1.35525e-21 0.00109871 0.0120358
-0.0181013 -1.12938e-21 0.00178214 0.0120357
0.0181014 1.69407e-21 0.00178215 -0.0054828
-0.0180751 1.12938e-21 0.002514 0.0120355
0.0180751 -4.51751e-21 0.00251403 -0.00548716
-0.0177928 1.35525e-20 0.00406344 0.0120357
0.0177931 1.35525e-20 0.00406363 -0.00549627
-0.0178461 1.35525e-20 0.00400264 0.0120355
0.0178465 0 0.00400286 -0.00549511
-0.018018 -6.77626e-21 0.00326638 0.0120354
0.0180181 4.51751e-21 0.00326648 -0.00548983
0.0183484 -2.71051e-20 0.000235241 -0.00547671
-0.0183484 2.71051e-20 0.000235238 0.0120323
-0.0178962 0 0.00412302 0.0120353
0.0178965 0 0.00412318 -0.00549511
0.0183932 5.42101e-20 0.000764488 -0.00548356
-0.0183932 -5.42101e-20 0.000764489 0.0120351
-0.0180569 -6.77626e-22 0.00374603 0.0120348
0.0180571 -1.807e-21 0.00374614 -0.00549332
-0.0184338 2.71051e-20 0.00138083 0.0120341
0.0184338 0 0.00138083 -0.00547084
-0.0184038 0 0.00212475 0.0120343
0.0184038 -5.42101e-20 0.00212477 -0.00549324
-0.0185327 3.38813e-21 3.11486e-13 0.0120344
0.0185329 -3.38813e-21 3.11329e-13 -0.00547722
-0.0180751 -1.35525e-20 0.00422612 0.0120343
0.0180753 -1.35525e-20 0.00422622 -0.00549337
-0.0183783 2.71051e-20 0.00286013 0.0120341
0.0183783 0 0.00286017 -0.00548683
0.0186585 2.25875e-21 0.000460868 -0.0054775
-0.0186585 -2.25875e-21 0.000460863 0.0120339
-0.0181758 0 0.00428412 0.0120338
0.0181761 0 0.00428433 -0.00549327
-0.0182334 0 0.00409678 0.0120337
0.0182336 4.51751e-21 0.00409694 -0.00549172
-0.0183787 2.71051e-20 0.00352164 0.0120337
0.0183789 0 0.00352172 -0.00549387
-0.018738 0 2.24787e-13 0.0120343
0.018738 0 2.24588e-13 -0.00547597
-0.0187383 -3.38813e-21 1.8583e-05 0.0120343
0.0187383 -3.38813e-21 1.85606e-05 -0.00547598
-0.0187394 0 0.000144294 0.0120341
0.0187394 0 0.000144153 -0.00547608
-0.0187637 0 5.23851e-14 0.0120342
0.0187638 0 5.23963e-14 -0.00547582
0.018782 0 1.5237e-05 -0.00547652
-0.018782 0 1.52548e-05 0.0120345
0.0187834 -3.38813e-21 4.17921e-14 -0.00547653
-0.0187835 -6.77626e-21 4.1772e-14 0.0120346
0.0187414 -1.12938e-22 0.00174786 -0.00547981
-0.0187414 -1.12938e-22 0.00174787 0.012033
0.0188423 3.38813e-21 3.05852e-14 -0.00547585
-0.0188424 -3.38813e-21 3.05567e-14 0.0120338
-0.0188306 4.51751e-21 0.000951028 0.012033
0.0188306 2.25875e-21 0.000951028 -0.00547831
-0.0183689 -2.71051e-20 0.00439542 0.0120329
0.0183691 -2.71051e-20 0.00439559 -0.00549541
-0.0187534 2.01675e-22 0.00244424 0.0120324
0.0187534 -8.06698e-23 0.00244427 -0.00547992
-0.0186869 0 0.00320185 0.0120323
0.018687 0 0.00320189 -0.00548597
-0.0184805 1.35525e-20 0.00445982 0.0120316
0.0184807 0 0.00445997 -0.00548374
-0.0185301 0 0.00433158 0.0120316
0.0185303 1.35525e-20 0.00433174 -0.00548473
-0.0186603 4.14105e-21 0.00393311 0.0120319
0.0186605 -1.12938e-21 0.0039332 -0.0054907
0.0191245 5.64689e-22 0.000340867 -0.00546405
-0.0191245 -8.47033e-22 0.000340856 0.0120317
0.0192203 -1.35525e-20 9.46707e-15 -0.00546516
-0.0192204 2.71051e-20 9.45326e-15 0.0120316
-0.0191646 0 0.00146339 0.0120323
0.0191646 0 0.00146338 -0.00549518
-0.0190143 -2.71051e-20 0.00283781 0.0120309
0.0190144 -2.71051e-20 0.00283783 -0.00547895
-0.0186819 0 0.00457601 0.0120312
0.0186821 0 0.00457612 -0.00549623
-0.0187038 0 0.00458864 0.0120312
0.018704 1.69407e-21 0.00458877 -0.00549757
-0.01916 -2.71051e-20 0.00195783 0.0120306
0.01916 0 0.00195783 -0.00546208
-0.0187217 0 0.00456119 0.0120312
0.0187219 0 0.00456127 -0.00549806
-0.0187284 1.01644e-20 0.00460285 0.012031
0.0187286 1.01644e-20 0.00460299 -0.00549646
-0.0189854 -2.71051e-20 0.00354614 0.0120306
0.0189855 -2.71051e-20 0.00354618 -0.00548405
-0.0188773 4.51751e-21 0.00434122 0.0120312
0.0188775 4.51751e-21 0.00434132 -0.00550364
-0.0193797 2.11758e-22 0.000837433 0.0120299
0.0193798 0 0.000837383 -0.00547598
-0.0193834 -1.05879e-21 0.00085584 0.0120299
0.0193835 2.11758e-21 0.000855835 -0.00547652
-0.0194038 -3.59989e-21 0.000856716 0.0120298
0.0194039 -1.27055e-21 0.000856714 -0.00547647
0.0194237 0 1.54975e-15 -0.00547583
-0.0194238 -2.71051e-20 1.53986e-15 0.0120309
-0.0193729 1.35525e-20 0.00169001 0.0120303
0.0193729 0 0.00169001 -0.00547614
-0.0193777 -7.05861e-22 0.00244586 0.0120292
0.0193778 -1.41172e-22 0.00244587 -0.00546948
-0.0189667 1.35525e-20 0.0047403 0.0120297
0.0189668 -1.35525e-20 0.00474041 -0.00549765
-0.0193197 1.12938e-21 0.00318402 0.0120294
0.0193198 0 0.00318404 -0.00547734
-0.0190326 0 0.0046715 0.0120294
0.0190327 0 0.00467159 -0.00549663
-0.0195819 0 0.00142153 0.0120298
0.019582 -2.71051e-20 0.00142152 -0.00547408
-0.019255 4.51751e-21 0.00392942 0.0120292
0.019255 0 0.00392947 -0.00548913
-0.019653 6.77626e-21 3.99215e-16 0.0120283
0.019653 2.03288e-20 4.03295e-16 -0.00548233
-0.0195685 -5.42101e-20 0.00193727 0.012029
0.0195685 0 0.00193726 -0.00547428
-0.0190798 2.71051e-20 0.00480552 0.0120292
0.0190799 0 0.00480561 -0.00549746
-0.0197213 -2.25875e-21 0.000269929 0.0120281
0.0197213 0 0.000269962 -0.00548227
-0.0192752 1.35525e-21 0.00441197 0.0120287
0.0192754 -1.807e-21 0.00441204 -0.00549599
0.0198342 0 4.71809e-16 -0.00548132
-0.0198343 3.38813e-21 4.68213e-16 0.0120276
-0.0192473 0 0.00490218 0.0120282
0.0192474 -6.77626e-21 0.00490225 -0.0054991
-0.0196698 2.71051e-20 0.00278692 0.0120282
0.0196698 -2.71051e-20 0.00278693 -0.00546538
-0.0196163 0 0.00353247 0.0120278
0.0196163 2.71051e-20 0.0035325 -0.00548027
-0.019321 -3.38813e-20 0.00494469 0.0120278
0.0193211 -6.77626e-21 0.00494477 -0.00549931
-0.0194215 -9.03502e-21 0.00475386 0.0120277
0.0194216 -1.35525e-20 0.00475393 -0.00549755
-0.0200351 0 -3.2986e-17 0.0120272
0.0200352 0 -3.30812e-17 -0.00547782
-0.0200397 3.38813e-21 0.000879744 0.0120273
0.0200398 -2.82344e-22 0.000879732 -0.00547464
-0.0196209 0 0.00418606 0.0120275
0.0196209 2.71051e-20 0.0041861 -0.00549712
-0.0200081 1.41172e-22 0.00168408 0.0120276
0.0200082 -2.82344e-22 0.00168407 -0.00547269
-0.0200926 -1.35525e-20 6.73548e-05 0.0120269
0.0200928 0 6.74599e-05 -0.00547836
-0.0200965 0 -7.17139e-19 0.0120269
0.0200967 0 -7.66423e-19 -0.00547834
-0.0201334 0 8.6319e-18 0.0120269
0.0201336 1.35525e-20 8.60253e-18 -0.00547558
-0.019508 -1.35525e-20 0.00505259 0.0120271
0.0195081 -2.71051e-20 0.00505265 -0.00550092
-0.0200346 1.12938e-21 0.00229471 0.0120269
0.0200346 -3.38813e-21 0.0022947 -0.00547333
-0.0199605 -1.58113e-21 0.00311687 0.0120266
0.0199605 -2.48463e-21 0.00311687 -0.00547724
-0.0202249 -1.35525e-20 6.9338e-05 0.0120265
0.0202254 1.35525e-20 6.9446e-05 -0.00547048
-0.0202304 0 -1.76858e-17 0.0120265
0.0202308 0 -1.76992e-17 -0.00547046
-0.0199313 -1.12938e-21 0.0038555 0.0120262
0.0199314 1.12938e-21 0.00385553 -0.00549003
-0.0196734 -1.35525e-20 0.00514806 0.012026
0.0196735 2.03288e-20 0.00514812 -0.00548552
-0.0198941 3.61401e-21 0.00456699 0.0120256
0.0198942 1.807e-21 0.00456703 -0.00549614
-0.0197657 6.77626e-21 0.00520128 0.0120255
0.0197658 -1.35525e-20 0.00520135 -0.0054865
-0.0198217 0 0.00501122 0.0120254
0.0198218 0 0.00501128 -0.0054876
-0.0202896 -2.71051e-20 0.00277321 0.0120254
0.0202896 0 0.00277322 -0.00548053
-0.0202612 0 0.00349053 0.0120249
0.0202612 0 0.00349054 -0.00548448
-0.0199064 0 0.00528243 0.0120248
0.0199065 0 0.0052825 -0.00550316
-0.020245 0 0.0041794 0.0120245
0.0202451 -5.42101e-20 0.00417943 -0.00549815
-0.0206572 -1.0842e-19 0.00171989 0.0120251
0.0206573 0 0.00171988 -0.00547316
-0.0201293 -1.50584e-21 0.00498603 0.0120239
0.0201293 -1.50584e-21 0.00498607 -0.00549749
-0.0200531 0 0.00536707 0.0120242
0.0200531 -6.77626e-21 0.00536711 -0.00550753
0.0206314 2.82344e-22 0.00242248 -0.00546995
-0.0206314 -7.05861e-23 0.0024225 0.0120245
-0.0207755 -5.42101e-20 0.000514971 0.0120245
0.0207756 0 0.000514975 -0.0054517
-0.0205987 -5.64689e-22 0.00311579 0.0120239
0.0205987 0 0.00311579 -0.00547602
-0.0203104 -2.71051e-20 0.00476269 0.0120233
0.0203105 0 0.00476272 -0.0055003
-0.0201708 1.35525e-20 0.00543499 0.0120236
0.0201709 2.71051e-20 0.00543504 -0.00550949
-0.0202176 -9.03502e-21 0.00527687 0.0120234
0.0202177 -4.51751e-21 0.00527691 -0.00550557
-0.0205738 -4.51751e-21 0.0038174 0.0120232
0.0205738 -1.12938e-21 0.00381741 -0.00548851
-0.0205818 1.12938e-21 0.00447088 0.0120226
0.0205819 -1.12938e-21 0.0044709 -0.0054954
-0.0203369 2.71051e-20 0.00553082 0.0120226
0.020337 1.35525e-20 0.00553084 -0.00550819
-0.0209426 -2.71051e-20 0.00274702 0.0120234
0.0209426 -2.71051e-20 0.00274701 -0.00545733
-0.0209032 0 0.00344945 0.0120218
0.0209032 -2.71051e-20 0.00344946 -0.0054815
-0.0204446 1.35525e-20 0.00559295 0.0120217
0.0204447 1.35525e-20 0.00559297 -0.00549695
-0.0204857 0 0.00548988 0.0120216
0.0204858 0 0.0054899 -0.00549785
-0.0206003 -1.50584e-21 0.00512926 0.0120217
0.0206004 2.25875e-21 0.00512929 -0.00550184
-0.0208994 2.71051e-20 0.00412603 0.0120214
0.0208995 2.71051e-20 0.00412604 -0.00549003
-0.0213129 0 8.97568e-05 0.0120224
0.0213129 2.71051e-20 8.97114e-05 -0.00544922
-0.0213195 -1.35525e-20 -2.8926e-18 0.0120224
0.0213195 2.71051e-20 -2.81088e-18 -0.00544921
-0.0213562 4.51751e-21 0.00112757 0.0120221
0.0213563 -2.25875e-21 0.00112758 -0.00545693
-0.0206271 0 0.00569824 0.0120211
0.0206272 0 0.00569827 -0.00550925
-0.0208932 0 0.00478634 0.0120209
0.0208932 -2.71051e-20 0.00478636 -0.0054932
-0.0213143 3.38813e-21 0.00228576 0.0120215
0.0213143 1.12938e-21 0.00228575 -0.00546575
-0.0214402 -1.35525e-20 1.08034e-18 0.0120221
0.0214402 0 1.08377e-18 -0.00545029
-0.0206783 -6.77626e-21 0.00572779 0.012021
0.0206784 0 0.00572782 -0.00551269
0.0212371 5.64689e-22 0.00307352 -0.00546998
-0.0212371 -4.23516e-22 0.00307353 0.012021
-0.0207149 -6.77626e-21 0.00567146 0.0120209
0.0207149 3.38813e-21 0.00567151 -0.00551385
-0.0207374 -1.35525e-20 0.00576188 0.0120205
0.0207375 0 0.0057619 -0.00550916
-0.0208292 -3.01167e-21 0.00551236 0.0120208
0.0208293 1.50584e-21 0.0055124 -0.00551844
0.0215471 1.35525e-20 0.000109109 -0.00545014
-0.0215472 0 0.000109168 0.0120217
0.0215567 -1.35525e-20 9.64873e-19 -0.00545004
-0.0215568 0 9.62135e-19 0.0120217
-0.0212592 1.05879e-22 0.00373092 0.0120199
0.0212592 0 0.00373093 -0.0054788
-0.0212041 1.12938e-21 0.0044583 0.0120197
0.0212042 3.38813e-21 0.00445832 -0.00548835
-0.0209534 -1.35525e-20 0.00588666 0.0120191
0.0209535 0 0.00588668 -0.00550896
-0.0211675 2.25875e-21 0.00514627 0.0120191
0.0211675 4.51751e-21 0.0051463 -0.00549865
-0.0210047 1.35525e-20 0.00583277 0.0120189
0.0210048 0 0.0058328 -0.00550775
-0.0216644 0 0.00284436 0.0120189
0.0216644 -2.71051e-20 0.00284436 -0.00547937
-0.0210554 0 0.00594571 0.0120188
0.0210555 0 0.00594574 -0.00550851
-0.0216615 0 0.00329946 0.0120182
0.0216616 2.71051e-20 0.00329946 -0.00546724
-0.0215296 -2.71051e-20 0.00411133 0.0120182
0.0215297 2.71051e-20 0.00411133 -0.0054803
-0.0212153 -4.51751e-22 0.0055934 0.0120183
0.0212154 1.35525e-21 0.00559344 -0.00550483
-0.0219545 5.42101e-20 0.00177021 0.012019
0.0219546 0 0.0017702 -0.00545412
-0.0220218 -5.42101e-20 0.000571119 0.0120199
0.0220218 -5.42101e-20 0.000571112 -0.00544875
-0.0215067 -2.71051e-20 0.00478713 0.0120181
0.0215068 0 0.00478717 -0.00548952
-0.0219097 8.47033e-22 0.00242093 0.0120182
0.0219097 1.69407e-21 0.00242091 -0.00546256
-0.021227 0 0.00604562 0.0120175
0.0212271 0 0.00604568 -0.00550561
-0.021872 0 0.00306771 0.0120174
0.0218721 -1.35525e-20 0.00306771 -0.00546627
-0.0215266 0 0.00539884 0.0120172
0.0215266 0 0.00539887 -0.00550218
-0.021392 -9.03502e-21 0.0059417 0.012017
0.0213921 -9.03502e-21 0.00594175 -0.0055042
-0.0218838 -7.05861e-22 0.00375446 0.0120165
0.0218838 5.64689e-22 0.00375445 -0.00547164
-0.0213574 -2.03288e-20 0.0061213 0.0120169
0.0213575 -1.35525e-20 0.00612135 -0.00550584
-0.0218345 -3.38813e-21 0.00443966 0.0120168
0.0218345 -3.38813e-21 0.00443967 -0.00548237
-0.0221011 0 0.00283879 0.0120174
0.0221011 2.71051e-20 0.00283879 -0.00545799
-0.0220656 -2.71051e-20 0.0032889 0.012016
0.0220656 -2.71051e-20 0.0032889 -0.00546396
-0.0218182 2.25875e-21 0.00510345 0.0120163
0.0218183 4.51751e-21 0.00510348 -0.00549276
-0.0215448 0 0.00623066 0.0120166
0.0215449 0 0.00623073 -0.00550982
-0.0225383 -2.71051e-20 9.17533e-05 0.0120172
0.0225385 -1.35525e-20 9.1676e-05 -0.00544402
-0.0225403 0 1.77341e-19 0.0120172
0.0225405 0 1.79243e-19 -0.00544397
-0.0216442 -1.35525e-20 0.00630958 0.012016
-0.0221735 5.42101e-20 0.00407696 0.0120155
0.0221736 2.71051e-20 0.00407697 -0.00547564
0.0216443 0 0.00630967 -0.00549515
-0.0216896 -2.71051e-20 0.00619113 0.0120158
0.0216897 -1.35525e-20 0.0061912 -0.00549685
-0.0218102 1.50584e-21 0.00580095 0.0120157
0.0218103 -1.12938e-21 0.00580099 -0.00550303
-0.0225989 0 0.00115697 0.0120162
0.0225989 -2.25875e-21 0.00115697 -0.0054462
-0.0226373 0 8.07387e-20 0.0120167
0.0226374 0 8.21344e-20 -0.00544332
-0.0221352 0 0.00476855 0.0120152
0.0221353 2.71051e-20 0.00476855 -0.00548358
-0.022582 1.12938e-21 0.00236337 0.0120149
0.022582 6.77626e-21 0.00236337 -0.00545275
-0.022501 0 0.00305827 0.0120145
0.022501 0 0.00305827 -0.00545755
-0.0225096 0 0.00305557 0.0120144
0.0225095 0 0.00306051 -0.00545741
-0.0227256 1.35525e-20 8.82297e-05 0.0120163
0.0227256 0 8.81536e-05 -0.00544251
-0.0227308 -2.71051e-20 3.08985e-20 0.0120163
0.0227308 -1.35525e-20 3.15503e-20 -0.00544244
-0.0218386 1.69407e-21 0.00644697 0.0120153
0.0218387 0 0.00644705 -0.00551377
-0.0221178 0 0.00543871 0.0120148
0.0221179 -2.71051e-20 0.00543874 -0.00549536
-0.0218565 0 0.0064596 0.0120153
0.0218566 1.69407e-21 0.00645967 -0.00551553
-0.0218725 1.69407e-21 0.00643778 0.0120153
0.0218726 0 0.00643786 -0.00551633
-0.0218744 8.47033e-21 0.00647346 0.0120152
0.0218745 -1.52466e-20 0.00647351 -0.00551403
-0.0225287 2.25875e-22 0.00364569 0.0120136
0.0225287 4.51751e-22 0.00364569 -0.00546763
-0.0224649 -5.64689e-22 0.00441819 0.0120136
0.022465 0 0.00441819 -0.00547706
-0.0220385 0 0.00622588 0.0120153
0.0220386 -1.50584e-21 0.00622593 -0.00552586
-0.0224373 -1.12938e-21 0.00510163 0.0120135
0.0224374 -1.12938e-21 0.00510165 -0.00548734
-0.022069 1.35525e-20 0.00662862 0.0120139
0.0220691 -1.35525e-20 0.00662868 -0.00551485
-0.0221728 0 0.00656826 0.0120136
0.0221729 0 0.00656832 -0.00551283
-0.0223901 6.77626e-21 0.00581142 0.0120134
0.0223902 2.25875e-21 0.00581146 -0.00550159
-0.0227864 0 0.00407104 0.0120121
0.0227864 2.71051e-20 0.00407104 -0.00547071
-0.0221653 -1.35525e-20 0.00670524 0.0120141
0.0221653 0 0.0067053 -0.00551554
-0.0232274 5.42101e-20 0.000581689 0.0120137
0.0232275 5.42101e-20 0.000581683 -0.00543819
-0.0227665 0 0.00474854 0.0120119
0.0227666 0 0.00474855 -0.00547824
-0.0231993 5.42101e-20 0.00176869 0.0120121
0.0231993 0 0.00176868 -0.00544381
-0.0222608 -1.35525e-20 0.00678083 0.0120136
0.0222609 -1.35525e-20 0.0067809 -0.00550393
-0.0223061 -1.35525e-20 0.00667609 0.0120134
0.0223061 0 0.00667615 -0.00550468
-0.0224559 -8.06698e-23 0.00637515 0.012013
0.0224559 6.45358e-22 0.00637519 -0.00551006
-0.023153 0 0.00306262 0.0120106
0.023153 -5.42101e-20 0.00306262 -0.00545635
-0.0227373 0 0.00543368 0.012012
0.0227374 0 0.0054337 -0.0054919
0.0231517 -2.82344e-22 0.00371752 -0.0054741
-0.0231516 4.23516e-22 0.00371939 0.0120105
-0.0224505 -1.69407e-21 0.00693112 0.0120131
0.0224506 0 0.00693119 -0.00551641
-0.0230941 0 0.00439939 0.0120105
0.0230941 5.64689e-22 0.00439939 -0.00548037
-0.0224718 0 0.00694795 0.0120131
0.0224719 -1.69407e-21 0.00694801 -0.00551787
-0.0224913 3.38813e-21 0.00692543 0.0120131
0.0224914 1.69407e-21 0.00692549 -0.00551842
-0.0227469 0 0.00606425 0.0120119
0.0227469 0 0.00606427 -0.00550594
-0.0224924 -8.47033e-21 0.0069643 0.012013
0.0224925 -1.18585e-20 0.00696434 -0.00551679
-0.0230702 -5.64689e-21 0.00507678 0.0120103
0.0230702 -3.38813e-21 0.00507679 -0.00548684
-0.0226501 7.52918e-21 0.00674888 0.0120129