# U  POINT_DATA 28841
# x  y  z  U_x  U_y  U_z
-1.35525e-20 0.015557 5.70113e-08 0 0 0
1.35525e-20 -0.015557 5.70113e-08 0 0 0
0 -0.015557 0.000135955 0 0 0
6.77626e-21 0.015557 0.000135978 0 0 0
0 -0.015557 0.000527091 0 0 0
-6.77626e-21 0.015557 0.000527192 0 0 0
0 -0.015557 0.000659598 0 0 0
0 0.015557 0.00065972 0 0 0
-6.77626e-21 -0.015557 0.000798595 0 0 0
0 0.015557 0.000798713 0 0 0
-6.77626e-21 -0.0155569 0.00121618 0 0 0
-6.77626e-21 0.0155569 0.00121632 0 0 0
0 -0.0155569 0.0013548 0 0 0
-6.77626e-21 0.0155569 0.00135493 0 0 0
0 -0.0156159 6.66059e-05 2.20981e-06 -2.97527e-06 1.37435e-07
-6.77626e-21 0.0156159 6.66205e-05 1.17957e-06 5.11507e-07 -6.46937e-07
6.77626e-21 -0.015617 5.86706e-08 0 0 0
6.77626e-21 0.015617 5.86703e-08 0 0 0
0 -0.0156133 0.000594009 2.11603e-06 -2.84901e-06 1.31603e-07
0 0.0156134 0.000594136 1.1295e-06 4.89794e-07 -6.19476e-07
0 -0.0156101 0.000720993 2.02027e-05 -2.2219e-05 -1.15025e-09
6.77626e-21 0.0156101 0.000721135 8.38913e-05 -8.85658e-05 2.59932e-06
0 -0.0155569 0.00150202 0 0 0
-6.77626e-21 0.0155569 0.00150211 0 0 0
6.77626e-21 -0.0156099 0.00127802 2.01102e-05 -2.21172e-05 -1.14498e-09
0 0.0156099 0.00127818 8.35043e-05 -8.81572e-05 2.58733e-06
6.77626e-21 -0.0156067 0.00140494 2.02298e-05 -2.2367e-05 -1.10959e-06
0 0.0156067 0.00140508 8.01535e-05 -8.71439e-05 4.25035e-06
6.77626e-21 -0.0156758 6.25745e-08 0 0 0
0 0.0156759 6.25738e-08 0 0 0
0 -0.0155569 0.00193256 0 0 0
-6.77626e-21 0.015557 0.00193259 0 0 0
1.35525e-20 -0.0156643 0.000653665 2.17367e-05 -2.29382e-05 3.22146e-08
2.71051e-20 0.0156643 0.000653856 8.58627e-05 -0.000105885 1.03706e-06
-6.77626e-21 0.015557 0.002087 0 0 0
6.77626e-21 -0.015557 0.002087 0 0 0
1.35525e-20 -0.0156581 0.00132517 4.1652e-05 -4.27594e-05 -1.24644e-06
0 0.0156581 0.00132537 0.000184959 -0.000222384 -2.46148e-06
6.77626e-21 0.0156109 0.00197559 8.69364e-05 -9.45184e-05 4.61003e-06
0 -0.0156109 0.00197556 2.19408e-05 -2.42586e-05 -1.20343e-06
-6.77626e-21 -0.01562 0.00210848 0 0 0
-6.77626e-21 0.01562 0.00210848 0 0 0
6.77626e-21 0.0156426 0.00205606 6.2243e-05 -7.0569e-05 -3.61068e-06
0 -0.0156426 0.00205603 2.41747e-05 -2.38598e-05 -1.70836e-06
-6.77626e-21 0.0156707 0.00197917 0.000168534 -0.000204647 -6.02394e-06
0 -0.0156707 0.00197909 4.29248e-05 -4.44961e-05 -1.84843e-06
1.35525e-20 -0.0156949 0.00213398 0 0 0
0 0.0156949 0.00213398 0 0 0
-3.38813e-20 -0.015885 7.41481e-08 0 0 0
-6.77626e-21 0.015885 7.41479e-08 0 0 0
-1.12938e-21 -0.01589 0.000347638 2.73097e-05 -2.98723e-05 3.32943e-07
0 0.01589 0.000347812 5.92812e-05 -8.19384e-05 8.56026e-07
1.35525e-21 -0.0158834 0.000956224 0.000114872 -0.000128558 -1.53722e-06
-1.807e-21 0.0158834 0.000956574 0.000385468 -0.000485169 3.63375e-06
1.50584e-21 -0.0158471 0.00154369 0.000120969 -0.000132093 -1.66485e-06
-3.76459e-21 0.0158471 0.00154397 0.000416046 -0.000511463 -3.48033e-05
5.64689e-22 0.0158414 0.00196399 0.000189565 -0.000243402 -2.56469e-05
0 -0.0158414 0.00196388 7.73741e-05 -9.07155e-05 -8.54986e-07
2.03288e-20 -0.015839 0.00218308 0 0 0
-6.77626e-21 0.015839 0.00218308 0 0 0
-1.35525e-20 -0.0159079 0.00220656 0 0 0
1.35525e-20 0.0159079 0.00220657 0 0 0
-2.25875e-21 -0.0160357 0.0016614 0.000183847 -0.0001934 -3.2272e-06
3.38813e-21 0.0160357 0.00166177 0.000593665 -0.000753506 -4.24496e-05
0 -0.0161336 1.64294e-05 5.94313e-07 -6.67981e-07 4.49255e-08
-4.23516e-22 0.0161337 1.62936e-05 -1.19013e-07 -1.1597e-07 -4.73346e-08
0 -0.0161343 5.30972e-08 0 0 0
4.23516e-22 0.0161345 5.3091e-08 0 0 0
1.35525e-20 -0.0159895 0.00223437 0 0 0
-2.71051e-20 0.0159895 0.00223438 0 0 0
0 -0.0161453 5.24536e-08 4.86736e-08 -4.7944e-08 -5.584e-10
4.23516e-22 0.0161478 5.2446e-08 3.01916e-09 -3.33244e-08 -2.69607e-09
-3.38813e-21 -0.0161363 0.000658379 0.000119327 -0.000127173 -2.5705e-06
-3.38813e-21 0.0161363 0.000658899 0.000368185 -0.000489528 6.15873e-06
0 -0.0161079 0.00123674 0.00021247 -0.000218394 -5.09326e-06
-2.25875e-21 0.0161079 0.00123731 0.000725981 -0.000911864 -2.02495e-05
7.52918e-22 -0.0162278 0.00195621 0.000183787 -0.00019281 -1.20892e-06
7.52918e-22 0.0162278 0.0019565 0.000483525 -0.000588095 -2.3471e-05
0 -0.0161978 0.00230533 0 0 0
0 0.016198 0.00230539 0 0 0
0 -0.0162561 0.00232518 0 0 0
-6.77626e-21 0.0162561 0.00232519 0 0 0
-6.77626e-21 0.016267 0.00230123 5.0775e-05 -6.74435e-05 -7.22266e-07
0 -0.016267 0.00230114 2.51073e-05 -2.01673e-05 -1.80979e-06
-6.77626e-21 0.0162975 0.0022713 0.000100807 -0.00014225 -2.24092e-06
0 -0.0162976 0.0022711 4.23726e-05 -3.72552e-05 -2.24962e-06
3.38813e-20 0.0162993 0.00233988 0 0 0
0 -0.0162994 0.00233991 0 0 0
-1.807e-20 0.0164712 0.000318829 6.58685e-05 -7.82222e-05 1.05629e-06
0 -0.0164713 0.000318482 2.93305e-05 -2.94458e-05 -3.44275e-07
4.51751e-21 0.0164838 0.000934255 0.000699946 -0.000895723 -3.88794e-05
-4.51751e-21 -0.0164839 0.000933479 0.000279738 -0.000273169 -5.03371e-07
-1.35525e-20 0.0165151 8.91806e-08 0 0 0
0 -0.0165152 8.91797e-08 0 0 0
-9.03502e-21 0.0164768 0.00151157 0.000917341 -0.00115547 -3.83731e-05
0 -0.0164769 0.00151091 0.000352191 -0.000339212 -1.13784e-05
2.71051e-20 0.0166394 9.23356e-08 0 0 0
0 -0.0166395 9.23348e-08 0 0 0
1.35525e-20 0.0165053 0.00240993 0 0 0
-4.06576e-20 -0.0165054 0.00240993 0 0 0
2.71051e-20 0.0167038 0.000635453 0.000484272 -0.000608006 -3.34508e-05
-2.71051e-20 -0.0167039 0.000634624 0.000193934 -0.000185827 9.1224e-07
2.82344e-22 0.0165943 0.00217414 0.000448791 -0.000596891 2.84514e-05
-3.10579e-21 -0.0165944 0.00217395 0.000217953 -0.000234467 -8.93147e-06
0 0.0167298 0.00122683 0.00105342 -0.00136715 -2.90265e-05
-5.42101e-20 -0.0167299 0.00122587 0.000409557 -0.000387679 -1.09039e-05
2.71051e-20 0.0166885 0.00181396 0.00089352 -0.00115792 1.56997e-05
0 -0.0166886 0.00181342 0.000371501 -0.000343154 -1.85108e-05
0 -0.0166609 0.002463 0 0 0
0 0.0166609 0.00246301 0 0 0
0 0.0168423 7.09371e-08 0 0 0
-1.35525e-20 -0.0168424 7.09349e-08 0 0 0
0 0.0169749 0.000303028 6.18693e-05 -7.35758e-05 -1.68149e-06
-2.25875e-21 -0.016975 0.000302617 2.85738e-05 -2.87588e-05 1.80909e-07
0 0.0168731 0.00220951 0.000556761 -0.000765803 2.94238e-05
0 -0.0168731 0.0022093 0.000292424 -0.000272848 -1.80414e-05
-2.25875e-21 0.016996 0.000918651 0.000877174 -0.00122678 -5.66665e-05
0 -0.0169961 0.00091773 0.000411104 -0.000411389 -6.24149e-06
-2.03288e-20 0.0168624 0.00253141 0 0 0
6.77626e-21 -0.0168624 0.00253143 0 0 0
4.51751e-21 0.0169886 0.00152444 0.00121183 -0.0016856 -4.97977e-06
-3.38813e-21 -0.0169887 0.00152368 0.000544636 -0.000528304 -2.37805e-05
-2.71051e-20 0.0170875 2.46042e-08 0 0 0
-1.35525e-20 -0.0170876 2.4598e-08 0 0 0
0 0.0169822 0.0019947 0.000912149 -0.00126462 2.32517e-05
4.51751e-21 -0.0169822 0.00199432 0.000444389 -0.000406928 -2.46454e-05
-9.03502e-21 -0.0169517 0.00241974 0.000139987 -0.00012609 -1.21764e-05
4.51751e-21 0.0169517 0.00241984 0.00025593 -0.000339645 1.5132e-05
-2.03288e-20 -0.0169618 0.00256517 0 0 0
-2.71051e-20 0.0169619 0.0025652 0 0 0
-2.71051e-20 0.0172725 0.000609723 0.000568818 -0.000775411 -2.81574e-05
2.71051e-20 -0.0172727 0.000608854 0.000258763 -0.000248086 -1.69309e-06
2.71051e-20 0.017301 3.8681e-09 0 0 0
2.71051e-20 -0.0173012 3.85985e-09 0 0 0
2.71051e-20 0.0172756 0.00121852 0.001309 -0.00181454 -4.39419e-05
2.71051e-20 -0.0172759 0.00121756 0.000582557 -0.000543556 -1.47039e-05
5.42101e-20 0.0172503 0.00183266 0.00126044 -0.00176811 -1.71088e-05
0 -0.0172504 0.00183216 0.000586642 -0.000525243 -2.4971e-05
-2.71051e-20 -0.0171626 0.00263335 0 0 0
0 0.0171626 0.00263335 0 0 0
5.64689e-22 0.0172628 0.00228364 0.000718245 -0.00101355 -5.8819e-06
-1.69407e-21 -0.0172628 0.00228347 0.0004037 -0.000362818 -2.25338e-05
-2.71051e-20 0.0175152 3.90385e-09 0 0 0
-1.35525e-20 -0.0175152 3.89758e-09 0 0 0
-2.25875e-21 0.0176167 0.000304206 8.37251e-05 -0.000117213 -2.68029e-06
-4.51751e-21 -0.0176168 0.0003039 3.85614e-05 -3.76096e-05 -3.61401e-07
3.38813e-21 0.0176138 0.000914405 0.00100183 -0.00146322 -5.39133e-05
7.90564e-21 -0.0176139 0.000913728 0.000593667 -0.000555322 -5.06964e-06
-5.64689e-21 -0.0175987 0.00154607 0.000826289 -0.000747356 -3.2884e-05
-1.12938e-21 0.0175986 0.00154661 0.00150885 -0.00219868 -4.47208e-05
-8.47033e-22 0.0174822 0.00274305 0 0 0
-1.52466e-20 -0.0174824 0.00274311 0 0 0
2.37169e-20 -0.0174953 0.00274748 0 0 0
-1.10114e-20 0.0174954 0.00274754 0 0 0
-1.35525e-20 0.0177276 5.30319e-09 0 0 0
0 -0.0177276 5.30115e-09 0 0 0
2.25875e-21 -0.0176266 0.0021181 0.000680609 -0.000607282 -3.24869e-05
2.25875e-21 0.0176266 0.00211837 0.00122068 -0.00174953 -3.75065e-05
2.25875e-21 -0.0175734 0.00255388 0.000294242 -0.000272795 -1.37481e-05
4.51751e-21 0.0175734 0.00255396 0.000484253 -0.000693914 -3.44737e-05
0 -0.0179395 5.3668e-09 0 0 0
0 0.0179395 5.36695e-09 0 0 0
0 0.0179446 0.000602116 0.000570202 -0.000877614 -2.74615e-05
-2.71051e-20 -0.0179448 0.000601729 0.000350099 -0.000317907 -2.13337e-06
0 0.0179404 0.00122928 0.00143647 -0.00219456 -5.25975e-05
2.71051e-20 -0.0179405 0.00122883 0.000844651 -0.00074957 -1.89108e-05
0 -0.0179 0.00190857 0.000869807 -0.000758311 -3.47403e-05
0 0.0179 0.00190883 0.00155183 -0.00232927 -4.11681e-05
-2.71051e-20 -0.0177925 0.00284977 0 0 0
-2.71051e-20 0.0177926 0.00284978 0 0 0
0 -0.0179476 0.00242616 0.000601893 -0.000537693 -3.06504e-05
-2.71051e-20 0.0179477 0.00242626 0.00102757 -0.00149706 -2.57356e-05
-2.71051e-20 -0.0181451 4.40312e-09 0 0 0
1.35525e-20 0.0181451 4.40323e-09 0 0 0
0 -0.0180151 0.00292661 0 0 0
0 0.0180152 0.00292666 0 0 0
4.51751e-21 0.0182715 0.000300951 0.000107657 -0.000167459 -1.94574e-06
4.51751e-21 -0.0182716 0.000300824 6.96485e-05 -6.42789e-05 -6.57341e-07
4.51751e-21 0.0182775 0.000913256 0.00116433 -0.00184523 -5.14009e-05
-2.25875e-21 -0.0182775 0.000912982 0.000768328 -0.000684191 -6.78815e-06
1.12938e-20 -0.0182701 0.00156202 0.00112085 -0.000970667 -3.52901e-05
-6.77626e-21 0.0182702 0.00156226 0.00184357 -0.00285246 -3.97551e-05
2.25875e-21 -0.0182365 0.00214905 0.000988253 -0.000869721 -4.63321e-05
2.25875e-21 0.0182365 0.00214918 0.00165351 -0.00247641 -4.04756e-05
0 0.0181446 0.0029715 0 0 0
-6.77626e-21 -0.0181446 0.00297151 0 0 0
4.51751e-22 -0.018187 0.00270962 0.000435906 -0.000390952 -2.97361e-05
-9.03502e-22 0.018187 0.00270971 0.000704442 -0.000992645 -2.02426e-05
-1.35525e-20 0.0183922 2.43152e-09 0 0 0
1.35525e-20 -0.0183922 2.43142e-09 0 0 0
0 -0.0185886 1.4653e-09 0 0 0
0 0.0185886 1.46536e-09 0 0 0
2.71051e-20 -0.0183436 0.00304025 0 0 0
-2.71051e-20 0.0183438 0.00304031 0 0 0
2.71051e-20 0.0185996 0.000594964 0.000648987 -0.00106243 -2.26734e-05
0 -0.0185997 0.000594844 0.000445995 -0.000392996 -2.18983e-06
-5.80823e-21 -0.0186737 0.00129279 0.00123385 -0.00105324 -2.45946e-05
0 0.0186737 0.00129292 0.00188666 -0.00303622 -4.05785e-05
-1.35525e-20 -0.0187703 1.23407e-09 0 0 0
-2.71051e-20 0.0187703 1.23411e-09 0 0 0
0 -0.0185172 0.00309968 0 0 0
3.38813e-20 0.0185172 0.00309971 0 0 0
1.35525e-20 0.0187147 0.00187627 0.00211862 -0.00330318 -5.05412e-05
0 -0.0187147 0.00187618 0.00133194 -0.00114207 -4.02183e-05
-4.51751e-21 0.0186673 0.00253576 0.0013975 -0.00209116 -3.06709e-05
3.01167e-21 -0.0186673 0.00253569 0.000867493 -0.000772223 -3.617e-05
-4.51751e-21 0.018823 0.000903617 0.00129031 -0.00212991 -3.92845e-05
0 -0.018823 0.000903518 0.000909855 -0.000791803 -6.37866e-06
6.77626e-21 0.0188705 0.000248278 0.000108818 -0.000173912 -2.66264e-07
-4.51751e-21 -0.0188706 0.000248244 6.00559e-05 -5.46275e-05 -7.7848e-07
2.71051e-21 -0.0186433 0.00294006 0.000388954 -0.000373016 -2.13109e-05
5.42101e-21 0.0186434 0.00294015 0.000599994 -0.000865576 1.525e-06
-2.71051e-20 -0.0189391 0.0015442 0.00149241 -0.00125794 -3.5664e-05
0 0.018939 0.00154428 0.00228495 -0.00367645 -3.25391e-05
1.27055e-21 0.01877 0.00318707 1.67689e-06 -2.48417e-06 -4.89802e-08
2.32934e-21 -0.0187697 0.00318691 1.15384e-06 -1.00771e-06 -6.38627e-08
-1.35525e-20 -0.0188366 0.00285351 0.000617629 -0.000557882 -2.79341e-05
6.77626e-21 0.0188366 0.0028535 0.000925756 -0.00136359 -1.1026e-05
1.35525e-20 0.0190684 6.42266e-10 0 0 0
0 -0.0190684 6.42229e-10 0 0 0
2.71051e-20 -0.0189469 0.0022033 0.0014087 -0.0012213 -4.47972e-05
-2.71051e-20 0.0189469 0.00220336 0.00225099 -0.00343618 -7.6592e-05
6.77626e-21 -0.0189609 0.002942 0.000591128 -0.000525406 -2.65918e-05
6.77626e-21 0.018961 0.00294206 0.000851938 -0.00125793 -1.07015e-05
0 -0.0192376 4.1695e-10 0 0 0
0 0.0192376 4.16977e-10 0 0 0
1.807e-20 0.0192505 0.000578849 0.000701393 -0.00119926 -8.99816e-06
0 -0.0192506 0.000578823 0.000530906 -0.000456441 -5.41995e-07
1.12938e-20 0.0192653 0.00120345 0.00190702 -0.00316783 -2.94974e-05
-9.03502e-21 -0.0192654 0.00120342 0.00136448 -0.00114885 -1.47159e-05
2.25875e-21 -0.0192727 0.00186892 0.00164412 -0.0013892 -3.27487e-05
-2.25875e-21 0.0192727 0.00186895 0.00247784 -0.00392409 -6.78793e-05
1.35525e-20 -0.0190867 0.00329553 0 0 0
1.35525e-20 0.0190869 0.00329559 0 0 0
1.35525e-20 0.0193938 3.58667e-10 0 0 0
0 -0.0193938 3.58645e-10 0 0 0
1.35525e-20 0.0193936 0.000130558 9.33965e-06 -1.6487e-05 -8.3293e-07
1.35525e-20 -0.0193936 0.000130549 3.12334e-06 -2.98454e-06 -1.07124e-06
-1.35525e-20 -0.019134 0.00323281 0.000155452 -0.00014827 -5.92979e-06
0 0.0191342 0.00323291 0.000255892 -0.000348971 1.15448e-05
-2.25875e-21 -0.019259 0.0025456 0.00124912 -0.00110121 -3.06641e-05
9.03502e-21 0.019259 0.00254567 0.00193708 -0.00294469 -5.91595e-05
2.71051e-20 -0.0192049 0.00333603 0 0 0
1.35525e-20 0.019205 0.00333606 0 0 0
-9.03502e-22 -0.0193216 0.00298789 0.000746941 -0.000694562 -2.29621e-05
-2.48463e-21 0.0193217 0.00298796 0.00113154 -0.00164455 -9.86353e-06
-2.71051e-20 0.0195688 0.0002809 1.92965e-05 -3.20515e-05 -1.81154e-06
2.71051e-20 -0.0195688 0.000280889 6.4666e-06 -6.34533e-06 -1.76299e-06
0 0.019589 0.000871785 0.0014284 -0.00250522 3.50476e-06
2.71051e-20 -0.0195891 0.000871776 0.00116105 -0.000985375 4.02234e-06
-2.71051e-20 0.019374 0.00328238 0.000404295 -0.000546029 7.51815e-06
-2.71051e-20 -0.019374 0.00328231 0.000258982 -0.000256245 -8.37113e-06
0 0.0196057 0.00151362 0.00259096 -0.00427391 -4.62737e-05
2.71051e-20 -0.0196057 0.0015136 0.00183516 -0.0015046 -2.41193e-05
-1.35525e-20 0.0193742 0.00339401 0 0 0
2.71051e-20 -0.0193743 0.00339402 0 0 0
2.71051e-20 -0.0196062 0.00219166 0.0018604 -0.00158779 -2.63381e-05
0 0.0196062 0.0021917 0.00281481 -0.00436338 -0.000117347
-1.35525e-20 0.0197445 1.18814e-10 0 0 0
0 -0.0197445 1.18805e-10 0 0 0
-1.35525e-20 0.0197496 0.000118775 8.49673e-06 -1.4999e-05 -7.57756e-07
2.71051e-20 -0.0197497 0.000118768 2.8415e-06 -2.71522e-06 -9.74571e-07
0 -0.0196349 0.00277745 0.00130811 -0.00119451 -2.6997e-05
2.71051e-20 0.0196349 0.00277749 0.00198295 -0.0029678 -5.56671e-05
2.71051e-20 -0.0195953 0.00324393 0.000515653 -0.000504887 -1.79688e-05
1.35525e-20 0.0195954 0.00324399 0.000771367 -0.00103222 1.58325e-05
-1.35525e-20 0.0198868 6.23618e-11 0 0 0
1.35525e-20 -0.0198869 6.23578e-11 0 0 0
-2.25875e-21 0.0199025 0.000551659 0.00070913 -0.00128307 1.62045e-05
0 -0.0199025 0.000551656 0.000593853 -0.000498816 1.82517e-06
-1.35525e-20 -0.0196374 0.00348418 0 0 0
-2.71051e-20 0.0196377 0.00348428 0 0 0
-2.25875e-21 0.0199263 0.001165 0.00206407 -0.00352473 -1.01588e-05
-3.38813e-21 -0.0199263 0.001165 0.00160607 -0.00132052 -5.80429e-06
1.35525e-20 -0.0197066 0.00339972 0.000250959 -0.000248306 -8.11178e-06
0 0.0197068 0.00339991 0.000391616 -0.000528905 7.28238e-06
-1.35525e-20 0.0200175 0.000104914 7.47067e-06 -1.78391e-05 -5.64405e-06
0 -0.0200175 0.000104929 2.4752e-06 -2.2949e-06 -1.20871e-06
0 0.020018 5.47771e-11 0 0 0
0 -0.0200181 5.47715e-11 0 0 0
1.12938e-21 -0.0199354 0.00184126 0.0020596 -0.00170788 -1.544e-05
3.38813e-21 0.0199354 0.00184128 0.00290938 -0.00464068 -0.000102936
4.51751e-21 -0.0199396 0.00250633 0.0018009 -0.00158457 -1.50336e-05
0 0.0199397 0.00250637 0.00267495 -0.00407353 -0.000124523
-1.35525e-20 -0.0198049 0.00354152 0 0 0
-1.35525e-20 0.019805 0.00354156 0 0 0
1.12938e-21 -0.0199176 0.00307602 0.0010453 -0.000989716 -1.35552e-05
-4.51751e-21 0.0199177 0.00307606 0.00157538 -0.00228873 -4.89798e-05
0 -0.0202108 0.000262556 6.02554e-06 -5.94837e-06 -2.31274e-06
2.71051e-20 0.0202108 0.00026255 1.84617e-05 -3.94248e-05 -9.38729e-06
0 0.0202372 0.000828992 0.00142926 -0.00265658 7.29718e-05
2.71051e-20 -0.0202372 0.000828987 0.00125632 -0.00104613 7.15279e-06
0 0.0199792 0.00344752 0.000627664 -0.00085182 -6.37599e-06
-2.71051e-20 -0.0199793 0.00344738 0.000399119 -0.000403274 -6.03831e-06
-6.77626e-21 0.0199875 0.00360402 0 0 0
-1.35525e-20 -0.0199877 0.00360407 0 0 0
0 0.0202611 0.00146964 0.00284718 -0.00472667 -6.82015e-05
-2.71051e-20 -0.0202612 0.00146963 0.00219448 -0.00176251 -1.08448e-05
-2.71051e-20 -0.0202613 0.00216726 0.00236246 -0.00198408 1.77353e-07
-5.42101e-20 0.0202614 0.00216729 0.00340427 -0.005241 -0.000180432
-1.35525e-20 -0.020424 1.48352e-11 0 0 0
1.35525e-20 0.0204241 1.48335e-11 0 0 0
0 -0.0204263 8.83644e-05 2.08446e-06 -1.93263e-06 -1.0179e-06
1.35525e-20 0.0204264 8.83482e-05 6.29105e-06 -1.50223e-05 -4.75285e-06
6.77626e-21 -0.0201259 0.00365139 0 0 0
2.71051e-20 -0.0202574 0.00283427 0.00175539 -0.00163077 -4.51907e-06
-2.71051e-20 0.0202575 0.00283433 0.00262617 -0.00393724 -0.000154491
6.77626e-21 0.0201264 0.00365156 0 0 0
0 -0.0202301 0.00346725 0.000555599 -0.000563104 -6.83982e-06
0 0.0202303 0.00346745 0.000858478 -0.00116706 -1.08766e-05
0 -0.0205367 8.07365e-12 0 0 0
0 0.0205367 8.07331e-12 0 0 0
2.25875e-21 -0.0205431 0.000507253 0.000614921 -0.000501963 6.08067e-06
-2.25875e-21 0.0205431 0.000507255 0.000676191 -0.00128951 6.94547e-05
-2.25875e-21 0.0205806 0.00109812 0.00213833 -0.00367645 5.28012e-05
-2.25875e-21 -0.0205806 0.00109812 0.00179087 -0.0014402 8.65526e-06
-1.35525e-20 0.0206332 7.23344e-05 3.49447e-07 -2.27328e-05 -2.50106e-05
-1.35525e-20 -0.0206332 7.23369e-05 2.02429e-06 -1.83316e-06 1.66626e-07
0 0.0206362 7.47662e-12 0 0 0
-1.35525e-20 -0.0206362 7.47681e-12 0 0 0
1.35525e-20 -0.0203259 0.00371982 0 0 0
0 0.0203262 0.0037199 0 0 0
1.12938e-21 -0.0205919 0.0017924 0.00248281 -0.00203139 4.4882e-06
-1.12938e-21 0.0205919 0.00179242 0.00330408 -0.00519893 -0.000142419
-2.25875e-21 -0.0205776 0.00251315 0.00231346 -0.00203867 4.53069e-06
-3.38813e-21 0.0205776 0.00251319 0.00330283 -0.00501761 -0.000231966
-1.35525e-20 -0.0204397 0.00376151 0 0 0
1.35525e-20 0.0204398 0.00376155 0 0 0
-1.35525e-20 -0.0204727 0.00364916 0.000331709 -0.000385242 1.9258e-06
-1.35525e-20 0.0204728 0.00364933 0.000547787 -0.000771409 2.44741e-05
1.8823e-21 -0.0205733 0.00324403 0.00128961 -0.00127091 1.99541e-06
1.12938e-21 0.0205734 0.00324407 0.00191025 -0.002822 -9.31239e-05
0 0.0208433 0.000231582 5.44369e-06 -4.8734e-05 -5.06673e-05
2.71051e-20 -0.0208434 0.000231576 6.12388e-06 -5.86938e-06 -1.32609e-06
-2.71051e-20 0.0208763 0.000747827 0.00132448 -0.00253496 0.000258533
-2.71051e-20 -0.0208763 0.000747825 0.00126418 -0.00101655 2.09948e-05
-2.71051e-20 0.0209306 0.00137574 0.00301394 -0.00488199 -4.13412e-05
2.71051e-20 -0.0209307 0.00137573 0.00248818 -0.00196223 1.57528e-05
1.35525e-20 0.0206256 0.00382198 0 0 0
1.35525e-20 -0.0206258 0.00382201 0 0 0
0 -0.0209017 0.00213763 0.00288971 -0.00241238 1.4575e-05
-2.71051e-20 0.0209017 0.00213766 0.00394872 -0.00595739 -0.000274208
6.77626e-21 -0.0207137 0.00385275 0 0 0
6.77626e-21 0.0207139 0.00385285 0 0 0
5.42101e-20 -0.0208885 0.0028589 0.0023146 -0.00217107 9.86712e-06
2.71051e-20 0.0208886 0.00285896 0.00332926 -0.00509471 -0.00032618
6.77626e-21 -0.02076 0.00376312 0.00032429 -0.000332387 -2.2437e-06
6.77626e-21 0.0207604 0.00376287 0.000428808 -0.00061415 -2.5752e-06
1.50584e-21 -0.0211429 0.000434515 0.000449614 -0.00036622 8.5611e-06
-4.51751e-21 0.0211429 0.000434517 0.000503187 -0.00104374 7.01038e-05
-5.27043e-21 -0.020841 0.00362678 0.000814009 -0.000850606 -8.27071e-08
7.52918e-22 0.0208412 0.00362688 0.00114374 -0.00163596 4.56183e-06
6.77626e-21 -0.0208385 0.00389815 0 0 0
6.77626e-21 0.0208392 0.00389846 0 0 0
-2.96462e-21 0.0212597 5.23664e-13 0 0 0
-4.23516e-22 -0.0212598 5.24304e-13 0 0 0
-8.47033e-22 0.0212767 1.41034e-05 1.63027e-05 -3.31358e-05 1.66485e-06
4.23516e-22 0.0212812 1.48332e-06 5.25634e-08 -3.53954e-08 9.03779e-09
8.89385e-21 -0.0212768 1.40587e-05 1.4943e-05 -1.24161e-05 3.26368e-07
0 -0.0212769 1.7356e-06 3.16561e-08 -2.1686e-08 -4.11732e-08
0 0.0212896 2.69174e-13 0 0 0
0 -0.0212896 2.70632e-13 0 0 0
-1.69407e-21 0.0212724 0.000879015 0.00169775 -0.00292328 4.06741e-05
-1.8823e-22 -0.0212724 0.000879006 0.00152451 -0.00120806 2.54361e-05
3.38813e-22 0.0212426 0.00171822 0.0036156 -0.00549831 -0.000194377
1.01644e-21 -0.0212427 0.00171817 0.00287774 -0.00232571 2.84765e-05
-2.25875e-21 -0.0212146 0.00249699 0.00289917 -0.00255055 2.33986e-05
2.25875e-21 0.0212146 0.00249702 0.00397821 -0.00599273 -0.000410674
1.35525e-20 -0.0210353 0.00398137 0 0 0
1.35525e-20 0.0210356 0.00398151 0 0 0
2.25875e-21 -0.021178 0.00323684 0.00188503 -0.00185645 1.84413e-05
-2.25875e-21 0.0211781 0.00323695 0.00272124 -0.00415724 -0.000259536
-1.35525e-20 -0.0210737 0.00393718 0.000165107 -0.000193281 6.73849e-06
-2.71051e-20 0.0210739 0.00393742 0.000286123 -0.000362304 3.47769e-05
1.35525e-20 -0.0211187 0.00402023 0 0 0
0 0.0211188 0.00402028 0 0 0
8.06698e-23 -0.0212477 0.0036816 0.00109021 -0.00118071 2.11037e-05
0 0.0212477 0.00368165 0.00162987 -0.00240219 -6.76352e-05
-5.42101e-20 0.0215747 0.00130741 0.0031966 -0.00490586 -3.9357e-05
0 -0.0215747 0.0013074 0.00286557 -0.00220751 4.78931e-05
0 0.0212487 0.00397497 0.000503846 -0.000690111 7.39714e-07
-1.35525e-20 -0.0212488 0.00397483 0.000305219 -0.000365775 1.22081e-05
6.77626e-21 0.0212528 0.00408536 0 0 0
-2.03288e-20 -0.021253 0.00408547 0 0 0
-2.25875e-21 0.0216407 0.000331745 0.000143095 -0.000601237 -7.83216e-06
0 -0.0216408 0.000331738 6.53375e-05 -5.98437e-05 8.94672e-06
-2.71051e-20 0.0215441 0.00209933 0.00458182 -0.00664085 -0.000449395
-2.71051e-20 -0.0215441 0.00209931 0.00346655 -0.00287659 3.88788e-05
-2.71051e-20 -0.0215224 0.00284519 0.00296215 -0.00275915 3.22704e-05
0 0.0215225 0.00284524 0.00410175 -0.00633996 -0.000593522
0 0.0217961 7.90662e-14 0 0 0
1.35525e-20 -0.0217961 7.93942e-14 0 0 0
0 -0.0215506 0.0034709 0.00190436 -0.00199361 3.51048e-05
0 0.0215507 0.00347098 0.00278056 -0.00429756 -0.000279112
-2.71051e-20 -0.021496 0.00395183 0.000725962 -0.000859957 2.79637e-05
2.71051e-20 0.0214961 0.00395191 0.00114845 -0.00156956 1.97247e-06
-6.77626e-21 -0.0214981 0.0042046 0 0 0
-6.77626e-21 0.0214986 0.00420483 0 0 0
0 0.0218605 0.00170496 0.00414712 -0.00597979 -0.000309109
3.29402e-22 -0.0218606 0.0017049 0.00338841 -0.00275865 3.89987e-05
-2.25875e-22 0.0219212 0.000827144 0.00174086 -0.00286458 -4.47534e-05
-3.83988e-21 -0.0219212 0.00082713 0.0016669 -0.00130601 5.24866e-05
-2.71051e-20 0.0219609 4.00731e-14 0 0 0
1.35525e-20 -0.021961 4.01625e-14 0 0 0
5.64689e-22 -0.0218494 0.00247004 0.00354815 -0.00311559 2.23467e-05
-5.64689e-22 0.0218494 0.00247006 0.00469818 -0.00691398 -0.000616849
1.35525e-20 -0.0216144 0.00413961 0.000341346 -0.00040907 1.36532e-05
1.35525e-20 0.0216146 0.0041399 0.000563931 -0.000772407 8.27926e-07
1.35525e-20 -0.0216502 0.00427848 0 0 0
0 0.0216504 0.00427858 0 0 0
5.64689e-22 -0.0218421 0.00317491 0.00275073 -0.00268513 3.2978e-05
1.12938e-21 0.0218422 0.00317497 0.00381576 -0.00591268 -0.000563828
0 -0.0217324 0.0043183 0 0 0
0 0.0217325 0.00431833 0 0 0
-2.71051e-20 -0.0217584 0.00423542 0.000271523 -0.000353873 1.39309e-05
-1.35525e-20 0.0217584 0.00423558 0.000480995 -0.000645571 3.89072e-05
0 0.0221732 2.80694e-14 0 0 0
0 -0.0221734 2.81207e-14 0 0 0
0 -0.0218663 0.00385214 0.00139484 -0.00152986 4.21273e-05
-7.05861e-23 0.0218671 0.00385266 0.00207446 -0.00310333 -0.000161929
2.71051e-20 0.0222021 0.00129535 0.00362948 -0.00517211 -0.000146041
0 -0.0222022 0.00129534 0.00323928 -0.00256332 6.22628e-05
0 -0.0222511 0.000330196 4.72389e-06 -7.72872e-06 3.19979e-06
0 0.0222517 0.000329756 0.000123778 -0.000700584 -3.26722e-05
2.71051e-20 0.0221693 0.00208073 0.00523324 -0.00720691 -0.000583516
2.71051e-20 -0.0221694 0.00208072 0.00408161 -0.00343417 1.42876e-05
1.35525e-20 0.0218632 0.00438168 0 0 0
-2.71051e-20 -0.0218633 0.00438173 0 0 0
-6.77626e-21 -0.0223211 1.21337e-14 0 0 0
-2.03288e-20 0.0223211 1.20993e-14 0 0 0
-2.71051e-20 -0.0221597 0.00282092 0.00370075 -0.00340342 4.59116e-06
2.71051e-20 0.0221597 0.00282095 0.00490012 -0.00749297 -0.000841724
-2.71051e-20 -0.0221457 0.00350906 0.00256927 -0.00268544 5.73203e-05
2.71051e-20 0.0221457 0.00350913 0.00365157 -0.00579738 -0.000584097
-1.35525e-20 -0.0220147 0.00445519 0 0 0
-6.77626e-21 0.0220149 0.00445527 0 0 0
5.42101e-20 0.0225414 1.2233e-15 0 0 0
0 -0.0225415 1.22688e-15 0 0 0
3.95282e-21 -0.0221394 0.00425952 0.00078591 -0.0008991 3.24599e-05
2.25875e-21 0.0221395 0.00425957 0.00116169 -0.00157591 -3.72505e-06
0 0.0224964 0.00168457 0.00470058 -0.00621609 -0.000403832
4.23516e-21 -0.0224964 0.00168462 0.00390384 -0.00322274 1.29184e-05
-4.23516e-22 0.0225021 0.0016848 0.00471333 -0.00622944 -0.000406935
4.23516e-22 -0.0225021 0.00168484 0.00391124 -0.0032304 1.2999e-05
-4.23516e-22 -0.0225129 0.001688 0.00392219 -0.00324013 1.17277e-05
0 0.0225131 0.001688 0.00472592 -0.00622935 -0.00040715
-1.807e-21 0.022576 0.000874286 0.00214976 -0.00309808 -0.000120717
-2.71051e-21 -0.0225761 0.000874279 0.00204828 -0.00164198 4.93761e-05
5.64689e-22 0.0225135 0.00242347 0.00532544 -0.00749963 -0.000765884
8.06698e-23 -0.0225135 0.0024234 0.00414986 -0.00366485 -2.15002e-05
2.25875e-21 -0.0224593 0.00318118 0.00348295 -0.00336852 -3.9468e-06
-4.51751e-21 0.0224593 0.00318122 0.00465446 -0.00722996 -0.000801195
1.69407e-21 -0.0223014 0.00459401 0 0 0
0 0.0223021 0.00459434 0 0 0
6.32451e-21 -0.0224349 0.00390494 0.00199494 -0.00214818 4.19515e-05
-3.16226e-21 0.0224349 0.00390503 0.00285522 -0.00440751 -0.00031352
-9.74088e-21 0.0228058 8.71796e-16 0 0 0
4.23516e-22 -0.022806 8.73835e-16 0 0 0
3.81165e-21 0.022811 2.493e-05 1.09148e-05 -4.65176e-05 -6.69053e-06
-4.23516e-22 -0.0228111 2.41514e-05 1.80932e-05 -1.52573e-05 4.3964e-06
3.38813e-21 -0.0223411 0.0046132 0 0 0
3.38813e-21 0.0223413 0.00461331 0 0 0
0 -0.0228141 8.54707e-16 0 0 0
-1.12938e-21 0.0228117 0.000334111 0.000313705 -0.000786156 -8.21723e-05
2.96462e-21 0.0228142 8.52135e-16 0 0 0
-5.64689e-22 -0.0228118 0.000334123 0.000394968 -0.0003232 5.15562e-05
0 -0.0223469 0.00460662 2.90091e-05 -3.61739e-05 1.94906e-06
-3.38813e-21 0.022347 0.00460681 5.30204e-05 -5.64118e-05 1.07566e-05
0 -0.0223544 0.00461967 0 0 0
0 0.0223545 0.00461971 0 0 0
0 -0.0223624 0.00458463 0.000117894 -0.000135275 5.13263e-06
0 0.0223623 0.00458505 0.000183495 -0.000252459 2.54034e-06
-1.69407e-21 0.0223809 0.00461205 0.000117994 -0.000134406 9.91064e-06
0 -0.0223811 0.00461193 6.56417e-05 -8.04816e-05 6.60463e-06
0 0.0223956 0.00463962 0 0 0
-1.69407e-21 -0.022396 0.00463981 0 0 0
-1.35525e-20 -0.0225313 0.00433152 0.00118292 -0.00136683 5.55623e-05
0 0.0225314 0.00433163 0.00177244 -0.00248358 -3.64646e-05
0 -0.0227767 0.00282449 0.00440077 -0.00401448 -7.51248e-05
5.42101e-20 0.0227767 0.00282452 0.00563749 -0.00841351 -0.000991504
0 0.0229169 0.00145352 0.00480551 -0.00586714 -0.000393855
2.71051e-20 -0.022917 0.00145354 0.0041468 -0.00339649 -5.37083e-05
-2.71051e-20 0.0229127 0.00195201 0.00583268 -0.00714701 -0.000652181
-2.71051e-20 -0.0229127 0.00195199 0.00467642 -0.00395839 -4.80355e-05
0 -0.0227583 0.00352767 0.00333992 -0.00342243 -6.98662e-06
0 0.0227583 0.00352773 0.00452111 -0.00734748 -0.000810239
0 -0.0226788 0.00436536 0.00129438 -0.00149338 6.48538e-05
-1.35525e-20 0.0226788 0.00436543 0.0019536 -0.00273758 -5.73439e-05
-1.35525e-20 -0.0231146 6.2653e-16 0 0 0
1.35525e-20 0.0231146 6.24699e-16 0 0 0
-2.82344e-22 0.0231263 0.00085734 0.00227258 -0.00285656 -0.000125049
2.82344e-22 -0.0231263 0.00085738 0.00219042 -0.0017658 3.15066e-05
0 0.0231204 0.00168687 0.00548699 -0.00641702 -0.000493372
1.35525e-20 -0.0231204 0.00168687 0.00454383 -0.0038035 -6.49367e-05
-1.35525e-20 -0.022691 0.00478261 0 0 0
1.35525e-20 0.0226912 0.00478269 0 0 0
-4.23516e-22 0.0231332 0.00244156 0.00618946 -0.00820623 -0.000915101
2.5411e-21 -0.0231332 0.00244155 0.00490664 -0.00433426 -0.000134119
-1.35525e-20 -0.0227887 0.00466778 0.000514973 -0.000631396 5.18148e-05
-1.35525e-20 0.0227888 0.00466792 0.000935554 -0.00106569 7.858e-05
-1.12938e-21 -0.0230834 0.00317451 0.0043015 -0.00409088 -0.000109691
4.51751e-21 0.0230834 0.00317454 0.00552207 -0.00841344 -0.000998268
0 -0.023319 3.12047e-16 0 0 0
0 0.0233192 3.1085e-16 0 0 0
0 -0.0230283 0.00391279 0.00284363 -0.00300207 -1.3624e-05
0 0.0230283 0.00391288 0.00383098 -0.00612771 -0.000504422
0 -0.0233299 0.00142278 0.00441293 -0.00365806 -8.05396e-05
0 0.02333 0.00142275 0.00522867 -0.00578193 -0.000388123
0 -0.0233168 0.00194192 0.00511236 -0.0043344 -0.000116926
0 0.0233168 0.00194193 0.00634179 -0.0072503 -0.000635669
-2.71051e-20 -0.0228965 0.00488208 0 0 0
5.42101e-20 0.0228965 0.0048821 0 0 0
0 0.0234102 0.000267349 0.000316079 -0.000576157 -1.10654e-05
2.25875e-21 -0.0234102 0.000267197 0.00061835 -0.00040128 4.67444e-05
2.25875e-21 -0.0229985 0.00439045 0.00166545 -0.00191806 5.02396e-05
-3.76459e-21 0.0229986 0.00439055 0.00243907 -0.00362875 -8.67064e-05
-1.35525e-20 0.023516 1.75113e-16 0 0 0
-6.77626e-21 -0.0235163 1.75793e-16 0 0 0
2.71051e-20 -0.0234234 0.00278582 0.00526904 -0.00473255 -0.000235252
0 0.0234234 0.00278584 0.00664354 -0.00928311 -0.00117756
0 -0.023065 0.00496366 0 0 0
0 0.0230651 0.00496372 0 0 0
2.71051e-20 -0.0233787 0.00352555 0.00423541 -0.00421669 -0.000120198
0 0.0233787 0.00352559 0.00534491 -0.00863924 -0.00102581
0 0.023716 -1.12992e-16 0 0 0
-1.35525e-20 -0.0237161 -1.12641e-16 0 0 0
4.51751e-22 -0.0232667 0.00471649 0.001155 -0.00140387 6.22223e-05
0 0.0232668 0.00471653 0.00175214 -0.00236208 6.57144e-05
0 -0.0233857 0.00417624 0.00282189 -0.00312428 -3.16655e-06
0 0.0233857 0.00417629 0.00384222 -0.00625896 -0.000362792