# U  POINT_DATA 51037
# x  y  z  U_x  U_y  U_z
0.0130568 0 4.20467e-06 -1.44544e-07 2.60559e-07 -2.30727e-08
-0.0130568 0 4.20224e-06 -2.98681e-08 6.27891e-08 4.23805e-09
0.0130538 0 6.66496e-06 0 0 0
-0.0130538 0 6.66145e-06 0 0 0
-0.0130538 0 0.000644966 0 0 0
0.0130538 0 0.000645285 0 0 0
-0.0130538 0 0.00065941 0 0 0
0.0130538 0 0.00065974 0 0 0
-0.0130538 0 0.000674665 0 0 0
0.0130538 0 0.000675 0 0 0
-0.0130603 8.47033e-22 0.000649852 -1.42799e-07 3.00193e-07 2.0262e-08
0.0130603 0 0.000650175 -6.91244e-07 1.24606e-06 -1.10339e-07
-0.0130603 0 0.000668993 -1.32665e-05 1.66383e-05 -2.08009e-07
0.0130603 0 0.000669326 -4.68295e-05 5.94572e-05 -3.70651e-08
-0.0130709 5.0822e-21 0.000658297 -1.81373e-05 2.1688e-05 2.91172e-08
0.0130709 -1.43996e-20 0.000658629 -8.72923e-05 0.000102754 1.50469e-06
-0.0130538 0 0.00133823 0 0 0
0.0130538 0 0.00133856 0 0 0
-0.0130538 -1.69407e-21 0.00135482 0 0 0
0.0130538 0 0.00135516 0 0 0
-0.0130538 -1.69407e-21 0.00137229 0 0 0
0.0130538 1.69407e-21 0.00137264 0 0 0
-0.0130609 0 0.00134178 -1.44524e-05 1.81256e-05 -2.26604e-07
0.0130609 0 0.00134211 -5.10526e-05 6.4819e-05 -4.04076e-08
-0.0130605 1.69407e-21 0.00136344 -1.48852e-05 1.80922e-05 -4.16333e-07
0.0130605 0 0.00136379 -4.95548e-05 6.17691e-05 2.63959e-06
-0.0130744 1.86347e-20 0.00134763 -4.64269e-05 5.48947e-05 -3.60098e-08
0.0130744 5.0822e-21 0.00134797 -0.000186527 0.00022104 1.44246e-06
-0.0130556 0 0.00208219 -3.7585e-06 4.54745e-06 -1.83833e-08
0.0130566 4.23516e-22 0.0020858 -1.33778e-05 1.62942e-05 8.06488e-08
-0.0130676 -4.23516e-22 0.00208096 -2.1061e-05 2.33899e-05 7.06064e-07
0.0130676 -4.23516e-22 0.00208096 -7.01792e-05 8.05006e-05 9.92669e-07
-0.0133442 0 8.05854e-08 0 0 0
0.0133442 -2.03288e-20 8.05851e-08 0 0 0
-0.0133452 0 0.000326595 -3.91494e-05 4.32436e-05 -2.56485e-06
0.0133452 4.51751e-21 0.00032676 -0.000218961 0.000282433 3.02007e-05
-0.0133372 -1.12938e-21 0.000960076 -0.000568493 0.000665799 2.3213e-06
0.0133372 -3.38813e-21 0.000960432 -0.00215359 0.00254512 -1.46427e-05
-0.0132973 -2.25875e-21 0.00155434 -0.000557471 0.000665428 9.49856e-06
0.0132973 4.51751e-21 0.00155458 -0.0019875 0.00238614 -3.21643e-05
-0.0132406 -3.38813e-20 0.00216285 0 0 0
0.0132406 3.38813e-21 0.00216285 0 0 0
-0.0132805 -6.77626e-21 0.00206436 -0.00020693 0.000229812 6.93725e-06
0.0132806 -3.38813e-21 0.00206428 -0.000689974 0.000791451 9.75953e-06
0.0133175 2.71051e-20 0.00219404 0 0 0
-0.0133175 2.71051e-20 0.00219405 0 0 0
-0.0133831 4.51751e-21 0.00186926 -0.000533767 0.000608409 1.47731e-05
0.0133831 0 0.00186938 -0.00184472 0.00216952 1.14095e-05
-0.0135632 2.03288e-20 9.24943e-08 0 0 0
0.0135632 -1.35525e-20 9.24941e-08 0 0 0
-0.0134965 4.51751e-21 0.00146628 -0.000894873 0.00104339 1.66679e-05
0.0134965 2.25875e-21 0.00146652 -0.00356726 0.00413972 -6.2706e-05
-0.0136117 -6.77626e-21 8.70578e-05 -3.85489e-06 2.65172e-06 -4.06099e-06
0.0136117 6.77626e-21 8.70948e-05 -0.000327255 0.000312654 -3.45012e-05
-0.0136152 0 8.46271e-08 0 0 0
0.0136152 -1.35525e-20 8.46272e-08 0 0 0
-0.0136416 0 8.06399e-08 0 0 0
0.0136416 1.35525e-20 8.06405e-08 0 0 0
-0.0136355 4.06576e-21 0.000679005 -0.000581791 0.000696015 -1.07204e-06
0.0136355 -3.83988e-21 0.00067928 -0.00290973 0.00356744 4.60497e-05
0.0134812 0 0.00226051 0 0 0
-0.0134812 2.71051e-20 0.00226053 0 0 0
-0.0136197 1.31761e-21 0.00119016 -0.00101989 0.00122157 -1.67568e-07
0.0136197 3.38813e-21 0.00119046 -0.0043119 0.00529791 5.31314e-05
-0.0136061 -4.51751e-21 0.00162993 -0.000983639 0.00117979 7.85008e-06
0.0136061 -4.51751e-21 0.00163012 -0.00395688 0.00487655 -1.08417e-05
0.0137235 -6.77626e-21 7.39517e-08 0 0 0
-0.0137235 1.35525e-20 7.39504e-08 0 0 0
0.0137252 0 9.16503e-05 -0.000561648 0.000721596 2.49412e-06
-0.0137252 0 9.16307e-05 -8.31345e-07 1.33466e-06 -4.6963e-07
-0.0137102 -5.64689e-22 0.00202489 -0.000781086 0.000959958 7.63412e-06
0.0137103 0 0.00202497 -0.00274254 0.0036949 5.26723e-05
-0.0136752 6.77626e-21 0.00233929 0 0 0
0.0136753 6.77626e-21 0.00233932 0 0 0
-0.0137679 -6.77626e-21 0.00237695 0 0 0
0.013768 0 0.00237697 0 0 0
0.0139849 1.35525e-20 0.000399215 -0.00235458 0.00304007 2.4415e-05
-0.0139849 -2.71051e-20 0.000399115 -0.000198996 0.000244115 1.32764e-06
-0.0139861 4.51751e-21 0.00091313 -0.00112645 0.00137969 5.7359e-06
0.0139861 0 0.000913297 -0.00533523 0.00689558 5.86452e-05
-0.0139546 9.03502e-21 0.00150392 -0.00142688 0.00175071 -5.72846e-06
0.0139546 -9.03502e-21 0.00150406 -0.00615854 0.00793253 0.000150133
-0.0140935 -1.35525e-20 0.000126399 -1.14756e-06 1.84232e-06 -6.48262e-07
0.0140935 -1.35525e-20 0.000126419 -0.000775238 0.000996015 3.44261e-06
-0.0141016 -2.71051e-20 1.51491e-08 0 0 0
0.0141016 -2.71051e-20 1.51471e-08 0 0 0
-0.013961 0 0.00245528 0 0 0
0.0139612 -3.38813e-21 0.00245534 0 0 0
-0.0141702 0 0.000612168 -0.000682384 0.000836075 1.29695e-06
0.0141702 2.71051e-20 0.000612269 -0.00420697 0.00541369 4.55585e-05
-0.0139759 0 0.00246133 0 0 0
0.0139761 -8.47033e-22 0.00246136 0 0 0
-0.0139804 0 0.00244924 -4.65113e-05 5.32101e-05 4.09113e-07
0.0139805 -2.5411e-21 0.00244934 -0.000163727 0.000222005 1.05903e-05
-0.0141583 0 0.00121281 -0.00149021 0.00183541 -1.83628e-06
0.0141583 0 0.00121293 -0.00691386 0.00884881 0.00013397
-0.0142138 0 6.98128e-09 0 0 0
0.0142138 1.35525e-20 6.9805e-09 0 0 0
-0.0141062 -2.71051e-20 0.00185466 -0.00130609 0.00161807 -1.6904e-06
0.0141063 0 0.00185473 -0.00550594 0.00719118 0.000166839
-0.0140936 2.25875e-21 0.00222221 -0.00088632 0.00103629 6.25286e-06
0.0140937 0 0.00222227 -0.00317702 0.0043026 0.000182461
0.0143442 2.71051e-20 6.46171e-09 0 0 0
-0.0143442 -1.35525e-20 6.46231e-09 0 0 0
-0.0141439 6.77626e-21 0.00239274 -0.000457393 0.000523269 4.02322e-06
0.014144 0 0.0023928 -0.00161836 0.00219441 0.00010468
0.014345 0 0.000135094 -0.00123634 0.00165062 -1.36106e-05
-0.014345 1.35525e-20 0.000135094 -2.24315e-06 2.73e-06 -4.37045e-07
-0.0141783 1.35525e-20 0.00254352 0 0 0
0.0141784 0 0.00254356 0 0 0
0.0144148 2.71051e-21 0.000393106 -0.00304748 0.00399296 -1.44495e-06
-0.0144148 -8.13152e-21 0.000393046 -0.00018804 0.000228942 -3.79357e-07
-0.0142931 -6.77626e-21 0.00252723 -0.000215106 0.000278336 -4.39908e-06
0.0142932 -6.77626e-21 0.00252727 -0.000817068 0.00120188 9.43752e-05
-0.0142857 0 0.00258704 0 0 0
0.0142858 0 0.00258706 0 0 0
-0.0145008 4.51751e-21 0.000915437 -0.00147842 0.0018252 3.46707e-06
0.0145009 -6.77626e-21 0.000915525 -0.00762628 0.00985964 8.94161e-05
-0.0143708 -1.69407e-21 0.00229753 -0.000987707 0.00124298 -4.77411e-06
0.0143709 0 0.00229758 -0.00379692 0.00526596 0.000254451
-0.0144716 4.51751e-21 0.00154756 -0.00196921 0.00245236 -1.10364e-05
0.0144716 4.51751e-21 0.00154763 -0.00923576 0.0119121 0.000297372
-0.0144657 0 0.00205594 -0.00153791 0.00194011 -9.2608e-06
0.0144658 -4.51751e-21 0.002056 -0.00646752 0.00870892 0.000354841
-0.0146705 -2.71051e-20 0.000150455 -2.49821e-06 3.04043e-06 -4.86741e-07
0.0146705 0 0.000150466 -0.00137702 0.00183845 -1.51593e-05
-0.01468 0 6.30408e-09 0 0 0
0.01468 0 6.30387e-09 0 0 0
-0.0144708 -1.35525e-20 0.00266196 0 0 0
0.014471 0 0.00266201 0 0 0
-0.0145058 -8.13152e-21 0.00250608 -0.000600465 0.00078408 -8.57949e-06
0.0145059 -1.35525e-20 0.00250612 -0.00217989 0.00320206 0.000214632
0.0148234 -1.35525e-20 5.71489e-09 0 0 0
-0.0148234 -2.71051e-20 5.71495e-09 0 0 0
-0.0148746 4.51751e-21 0.000558343 -0.000777622 0.000968392 1.50924e-06
0.0148746 9.03502e-21 0.000558392 -0.00587006 0.00775303 3.24643e-05
-0.0147687 0 0.00191044 -0.00198005 0.0024925 -1.11008e-05
0.0147687 -2.71051e-20 0.00191049 -0.00931708 0.0122723 0.000394756
-0.0146404 0 0.00273067 0 0 0
0.0146406 2.71051e-20 0.00273071 0 0 0
-0.0148827 1.16165e-20 0.0011685 -0.00202319 0.002532 -2.60971e-07
0.0148828 0 0.00116856 -0.0105362 0.0136938 0.000189161
0.0149747 1.35525e-20 4.96058e-09 0 0 0
-0.0149747 0 4.96059e-09 0 0 0
0.0149752 -1.35525e-20 0.000142276 -0.0016031 0.0022484 -1.03642e-05
-0.0149752 1.35525e-20 0.000142271 -2.43454e-06 2.88269e-06 -4.49836e-07
-0.0148162 0 0.00236391 -0.00139965 0.00174401 -1.26489e-05
0.0148163 4.51751e-21 0.00236395 -0.0060469 0.00819401 0.00040567
-0.0150223 4.51751e-21 0.00156468 -0.00244555 0.00309283 -8.99547e-06
0.0150223 -9.03502e-21 0.00156474 -0.012324 0.0159549 0.000359966
-0.0151425 -2.71051e-20 0.000304852 -5.15462e-06 6.17649e-06 -8.63571e-07
0.0151425 0 0.000304883 -0.00334217 0.00463252 -2.10931e-05
-0.014892 0 0.00283336 0 0 0
0.0148921 6.77626e-21 0.0028334 0 0 0
-0.0151422 0 0.000920375 -0.00196851 0.00246345 4.10239e-06
0.0151422 0 0.000920434 -0.0108033 0.0140821 0.000110827
-0.015042 -1.6263e-20 0.00210477 -0.00218839 0.00274577 -2.16424e-05
0.0150421 1.0842e-20 0.00210482 -0.0105012 0.0138902 0.000553406
-0.0150532 -4.51751e-21 0.00270351 -0.000777913 0.000923677 -6.37984e-06
0.0150534 0 0.00270357 -0.00312881 0.00420842 0.000282771
-0.0150254 1.35525e-20 0.00288744 0 0 0
0.0150256 3.38813e-20 0.00288752 0 0 0
-0.0153086 1.35525e-20 2.24178e-09 0 0 0
0.0153086 0 2.24177e-09 0 0 0
-0.0153122 0 0.000140816 -2.40968e-06 2.85326e-06 -4.45244e-07
0.0153122 0 0.000140822 -0.00158675 0.00222547 -1.02585e-05
0.0154577 0 1.48792e-09 0 0 0
-0.0154577 0 1.48787e-09 0 0 0
-0.0154655 -4.51751e-21 0.00060398 -0.00104124 0.00131041 1.39091e-06
0.0154655 -1.12938e-20 0.000604018 -0.00775038 0.0102997 5.17626e-05
-0.0154631 2.25875e-21 0.00123926 -0.00252065 0.00319973 -2.40352e-06
0.0154631 2.03288e-20 0.00123931 -0.0137963 0.0178539 0.000268118
-0.0152765 0 0.0029899 0 0 0
0.0152766 -2.71051e-20 0.00298996 0 0 0
-0.0154691 2.25875e-21 0.00188066 -0.0027817 0.00353128 -1.2797e-05
0.0154691 -4.51751e-21 0.00188071 -0.014422 0.0187388 0.000537838
0.0156043 -1.35525e-20 1.30288e-09 0 0 0
-0.0156043 0 1.30283e-09 0 0 0
0.0156046 1.35525e-20 0.000132291 -0.00173528 0.00249285 -5.55504e-06
-0.0156046 -1.35525e-20 0.000132288 -2.37647e-06 2.67599e-06 -4.65667e-07
-0.0153943 -1.35525e-20 0.00303866 0 0 0
0.0153944 0 0.00303871 0 0 0
-0.0154266 0 0.00293734 -0.000520624 0.00058769 3.40595e-06
0.0154267 1.35525e-20 0.00293741 -0.00203248 0.0029128 0.00017233
-0.0155042 2.25875e-21 0.00256117 -0.00176433 0.00218898 -6.50867e-06
0.0155043 -3.76459e-21 0.00256122 -0.00826074 0.0111669 0.00051393
0.0157872 2.71051e-20 0.000299894 -0.00386521 0.00548852 -1.44336e-05
-0.0157872 2.71051e-20 0.000299869 -5.33156e-06 6.07195e-06 -7.829e-07
-0.0157972 2.71051e-20 0.000914956 -0.00224544 0.00283994 3.01933e-06
0.0157972 0 0.000915008 -0.0132523 0.0173295 0.000134172
-0.015799 -2.71051e-20 0.00156064 -0.00320441 0.00411844 -6.41585e-06
0.015799 -2.71051e-20 0.00156069 -0.0175912 0.0225414 0.000423371
-0.0156185 0 0.00313206 0 0 0
0.0156185 6.77626e-21 0.00313207 0 0 0
-0.0158092 0 0.00221249 -0.00300033 0.003797 -9.89327e-06
0.0158093 0 0.00221254 -0.0157681 0.0206366 0.000728672
-0.0159653 -2.71051e-20 5.84434e-10 0 0 0
0.0159653 2.71051e-20 5.84428e-10 0 0 0
-0.0159712 0 0.000124936 -2.24442e-06 2.52729e-06 -4.3979e-07
0.0159712 0 0.000124938 -0.00163884 0.0023543 -5.24631e-06
-0.015693 6.77626e-21 0.00316295 0 0 0
0.0156931 0 0.00316301 0 0 0
-0.0157206 -6.77626e-21 0.0031026 -0.000323237 0.000419519 -1.39538e-06
0.0157208 0 0.00310257 -0.0012084 0.00185136 0.000118367
-0.0158002 0 0.00293364 -0.00118903 0.00149817 8.40046e-07
0.0158003 0 0.0029337 -0.00475309 0.0070114 0.000420104
-0.0157817 6.77626e-21 0.00319963 0 0 0
0.015782 0 0.00319974 0 0 0
0.0161034 -1.35525e-20 4.04844e-10 0 0 0
-0.0161034 -1.35525e-20 4.04848e-10 0 0 0
-0.016119 -2.25875e-21 0.000594151 -0.00115004 0.00146473 8.47076e-07
0.016119 2.25875e-21 0.000594174 -0.00903082 0.0120755 5.61238e-05
-0.01613 9.03502e-21 0.00122518 -0.00285719 0.00367817 4.7555e-07
0.01613 0 0.00122521 -0.0166756 0.021499 0.000269454
0.0162343 -1.35525e-20 3.59814e-10 0 0 0
-0.0162343 -2.71051e-20 3.59814e-10 0 0 0
0.0162345 -1.35525e-20 0.000113277 -0.00165768 0.00242978 -6.09677e-06
-0.0162345 -1.35525e-20 0.000113279 -2.36737e-06 2.36609e-06 -5.14237e-07
-0.0161354 0 0.00188647 -0.00334975 0.00430686 1.39641e-07
0.0161355 -9.03502e-21 0.00188651 -0.0186101 0.02393 0.000595539
-0.0161281 6.77626e-21 0.00255569 -0.00253683 0.00319861 8.25816e-06
0.0161282 -2.25875e-21 0.00255574 -0.0131002 0.0174233 0.000694119
-0.015998 -1.35525e-20 0.0032882 0 0 0
0.0159982 2.71051e-20 0.00328826 0 0 0
-0.0160357 0 0.00323052 -0.00034397 0.000403997 8.21049e-06
0.0160358 0 0.00323061 -0.00148755 0.00210234 0.000117143
-0.016091 -1.35525e-20 0.00332623 0 0 0
0.0160912 1.35525e-20 0.00332628 0 0 0
0.0164377 0 0.000292336 -0.00422947 0.00612082 -1.46485e-05
-0.0164377 -5.42101e-20 0.000292322 -6.00084e-06 6.04949e-06 -1.06224e-06
0.0164553 2.71051e-20 0.000897692 -0.0151187 0.0197982 0.000122839
-0.0164553 2.71051e-20 0.00089766 -0.00241847 0.00310131 2.13732e-06
-0.0162072 -1.807e-21 0.00298944 -0.00158208 0.00194 1.72218e-05
0.0162073 0 0.00298952 -0.00740703 0.010301 0.000528005
-0.016466 2.71051e-20 0.00154116 -0.00359263 0.00469478 3.02983e-06
0.016466 2.71051e-20 0.00154119 -0.0209188 0.026549 0.000402768
-0.016253 0 0.00328154 -0.000553465 0.000654352 9.76468e-06
0.016253 -1.35525e-20 0.00328162 -0.0025981 0.00365612 0.000225523
-0.0162529 -2.71051e-20 0.00339231 0 0 0
0.016253 -1.35525e-20 0.00339232 0 0 0
-0.0164659 -2.71051e-20 0.00220933 -0.00362656 0.0046514 1.37213e-05
0.016466 -5.42101e-20 0.00220938 -0.0203398 0.0262155 0.000828037
-0.0166389 0 1.04271e-10 0 0 0
0.0166389 1.35525e-20 1.04262e-10 0 0 0
-0.0166447 0 0.000100566 -2.1017e-06 2.10056e-06 -4.56528e-07
0.0166447 0 0.000100563 -0.00147162 0.00215706 -5.41249e-06
-0.0165069 -2.71051e-20 0.00278852 -0.00263225 0.00328266 2.41483e-05
0.016507 0 0.00278859 -0.0134704 0.0181281 0.00080773
0.0167551 0 6.18359e-11 0 0 0
-0.0167551 0 6.18413e-11 0 0 0
-0.0167741 6.77626e-21 0.000577078 -0.00121967 0.00157673 9.64888e-06
0.0167741 -2.25875e-21 0.000577088 -0.00989945 0.01331 5.17334e-05
-0.0164731 0 0.00325216 -0.00112672 0.00133819 2.13446e-05
0.0164733 0 0.00325224 -0.00516041 0.00734891 0.000450501
-0.0167929 3.38813e-21 0.00119995 -0.00308215 0.00404038 1.46652e-05
0.0167929 1.12938e-21 0.00119996 -0.018881 0.0242357 0.000255498
-0.0164937 -2.71051e-20 0.00349064 0 0 0
0.016494 1.35525e-20 0.00349077 0 0 0
0.0168627 -1.35525e-20 5.62475e-11 0 0 0
-0.0168627 -1.35525e-20 5.62517e-11 0 0 0
0.0168631 0 9.00315e-05 -0.00138786 0.00210817 -1.94694e-06
-0.0168631 -1.35525e-20 9.00368e-05 -5.80013e-06 7.41605e-06 -2.26802e-06
-0.0167974 -2.25875e-21 0.0018671 -0.00378733 0.00495707 9.92692e-06
0.0167974 -3.38813e-21 0.00186712 -0.0223044 0.0283696 0.000612736
-0.016565 0 0.00339846 -0.000605983 0.000716443 1.06913e-05
0.0165653 2.71051e-20 0.00339864 -0.0028445 0.00400285 0.000246911
-0.0168042 -4.51751e-21 0.00251849 -0.00339708 0.0043358 1.64183e-05
0.0168043 0 0.00251854 -0.0191412 0.024878 0.000863539
-0.0166661 0 0.00356101 0 0 0
0.0166663 2.71051e-20 0.00356109 0 0 0
-0.0167843 -2.25875e-21 0.00309016 -0.0020839 0.00256874 2.12571e-05
0.0167844 -2.25875e-21 0.00309022 -0.0108789 0.0147769 0.000728117
0.0170872 0 0.000280474 -0.00433155 0.00644346 -5.02441e-06
-0.0170872 -2.71051e-20 0.000280467 -1.33911e-05 1.66561e-05 -5.49564e-06
0.0171094 -2.71051e-20 0.000869698 -0.0162852 0.0213405 0.000108311
-0.0171094 0 0.000869686 -0.00252056 0.00328423 4.38965e-05
-0.017124 0 0.00151088 -0.00382335 0.00511692 1.07106e-05
0.017124 2.71051e-20 0.0015109 -0.0233479 0.0294326 0.000393465
-0.016855 6.77626e-21 0.00363794 0 0 0
0.016855 -1.35525e-20 0.00363795 0 0 0
-0.0171219 -5.42101e-20 0.00218641 -0.00411503 0.00537997 1.27479e-05
0.0171219 0 0.00218644 -0.0246853 0.0313728 0.000826505
-0.0173128 0 1.50015e-11 0 0 0
0.0173128 1.35525e-20 1.49999e-11 0 0 0
-0.017316 0 7.61108e-05 -4.90303e-06 6.26902e-06 -1.91722e-06
0.017316 0 7.61049e-05 -0.00117318 0.00178207 -1.64578e-06
-0.016994 4.51751e-21 0.00347025 -0.00105816 0.00126276 1.79361e-05
0.0169942 -9.03502e-21 0.00347044 -0.00526964 0.00763424 0.000520389
-0.0169523 1.35525e-20 0.00367759 0 0 0
0.0169528 1.35525e-20 0.00367779 0 0 0
-0.0171196 -2.71051e-20 0.00284364 -0.00331263 0.00416621 1.4686e-05
0.0171197 2.71051e-20 0.00284371 -0.0187883 0.0246584 0.000999938
0.0174041 1.35525e-20 1.00263e-11 0 0 0
-0.0174041 1.35525e-20 1.00267e-11 0 0 0
0.0174225 -1.12938e-21 0.000552277 -0.0103035 0.01392 6.33685e-05
-0.0174225 0 0.000552274 -0.00124292 0.00163402 2.45622e-05
-0.0174465 -3.38813e-21 0.00116234 -0.00320998 0.00429169 3.09033e-05
0.0174465 -2.25875e-21 0.00116235 -0.020273 0.025906 0.000253385
0.0174883 0 9.27523e-12 0 0 0
-0.0174883 0 9.27554e-12 0 0 0
0.0174886 1.35525e-20 6.91564e-05 -0.00109392 0.0017389 2.19159e-05
-0.0174886 0 6.91614e-05 7.77458e-07 -2.76143e-07 -2.53452e-06
-0.0174525 1.12938e-21 0.00183359 -0.00411009 0.00548949 6.44678e-06
0.0174525 2.25875e-21 0.0018336 -0.0254429 0.0320183 0.000605195
-0.0171558 -4.06576e-20 0.00376044 0 0 0
0.0171561 0 0.00376058 0 0 0
-0.0174398 -2.25875e-21 0.00252756 -0.0039299 0.00509693 5.80772e-07
0.0174399 4.51751e-21 0.0025276 -0.0239264 0.0305769 0.000932797
-0.0172703 0 0.00381189 0 0 0
0.0172706 1.35525e-20 0.003812 0 0 0
-0.0173099 -1.35525e-20 0.00368922 -0.000742283 0.000829719 2.65455e-05
0.0173101 0 0.00368943 -0.00352238 0.00530994 0.00034955
-0.0174177 0 0.0032729 -0.00236725 0.00293083 1.60739e-05
0.0174179 -3.76459e-22 0.00327297 -0.0130878 0.0178086 0.000885629
0.0177262 0 0.000264495 -0.00423827 0.00651654 5.27741e-05
-0.0177263 -2.71051e-20 0.000264494 -2.21976e-07 1.62099e-06 -5.43885e-06
0.017753 0 0.000830849 -0.0167563 0.0218811 0.000106844
-0.017753 2.71051e-20 0.000830841 -0.00252136 0.00334052 6.40646e-05
-0.0177738 -2.71051e-20 0.00146634 -0.00400571 0.00546744 7.00808e-06
0.0177739 -2.71051e-20 0.00146635 -0.0248628 0.0311561 0.000411275
-0.0174674 0 0.00388874 0 0 0
0.0174675 -6.77626e-21 0.0038888 0 0 0
-0.0177697 0 0.00215829 -0.00448899 0.00598769 -3.62678e-06
0.0177697 2.71051e-20 0.0021583 -0.0288099 0.0360406 0.000791397
-0.0175192 6.77626e-21 0.0039114 0 0 0
0.0175194 0 0.00391155 0 0 0
-0.0175515 -3.38813e-21 0.00385282 -0.000380241 0.000478219 2.77433e-06
0.0175519 0 0.00385278 -0.00167474 0.00261614 0.000199584
-0.0177417 2.71051e-20 0.00287714 -0.00386481 0.00494781 -2.13612e-05
0.0177418 -2.71051e-20 0.0028772 -0.0239186 0.0308124 0.0011063
0.017981 -6.77626e-21 1.39444e-12 0 0 0
-0.017981 -6.77626e-21 1.3943e-12 0 0 0
0.0179821 0 5.25103e-05 -0.000830612 0.00132034 1.66407e-05
-0.0179821 -6.77626e-21 5.25107e-05 5.90285e-07 -2.09662e-07 -1.92433e-06
-0.0175795 2.03288e-20 0.00394118 0 0 0
0.01758 -1.35525e-20 0.00394143 0 0 0
-0.0176602 0 0.00367713 -0.00153019 0.0018912 1.73326e-05
0.0176605 0 0.00367727 -0.00716439 0.0108948 0.000788444
0.0180463 0 7.99282e-13 0 0 0
-0.0180463 -6.77626e-21 7.99057e-13 0 0 0
0.0180587 0 0.000513287 -0.00999739 0.0135685 9.00613e-05
-0.0180587 -1.12938e-21 0.000513287 -0.00122862 0.00162026 -4.83514e-06
0.0181036 0 4.49211e-05 -0.000724085 0.00120106 5.09115e-05
-0.0181036 0 4.4918e-05 -8.51206e-06 3.63061e-06 1.14858e-05
0.0181054 0 7.64381e-13 0 0 0
-0.0181054 6.77626e-21 7.64199e-13 0 0 0
0.0181063 2.25875e-22 0.00109871 -0.0207018 0.0263354 0.000259371
-0.0181063 1.35525e-21 0.00109871 -0.00323868 0.00437625 -2.80813e-05
-0.0181013 -1.12938e-21 0.00178214 -0.00431901 0.00586307 -4.57297e-05
0.0181014 1.69407e-21 0.00178215 -0.0279817 0.0348451 0.000599697
-0.0180751 1.12938e-21 0.002514 -0.00434231 0.00574483 -6.59318e-05
0.0180751 -4.51751e-21 0.00251403 -0.0284065 0.0356813 0.000932117
-0.0177928 1.35525e-20 0.00406344 0 0 0
0.0177931 1.35525e-20 0.00406363 0 0 0
-0.0178461 1.35525e-20 0.00400264 -0.000431531 0.000509843 1.42634e-05
0.0178465 0 0.00400286 -0.00224017 0.00341009 0.00027905
-0.018018 -6.77626e-21 0.00326638 -0.00306713 0.00389348 -3.53283e-05
0.0180181 4.51751e-21 0.00326648 -0.0188083 0.0247694 0.00106384
0.0183484 -2.71051e-20 0.000235241 -0.00379341 0.00601606 0.000113003
-0.0183484 2.71051e-20 0.000235238 -3.76885e-05 2.64202e-05 3.44734e-05
-0.0178962 0 0.00412302 0 0 0
0.0178965 0 0.00412318 0 0 0
0.0183932 5.42101e-20 0.000764488 -0.0158148 0.0206266 0.000101061
-0.0183932 -5.42101e-20 0.000764489 -0.00247293 0.00326333 -0.000108106
-0.0180569 -6.77626e-22 0.00374603 -0.00191537 0.00233492 1.20787e-05
0.0180571 -1.807e-21 0.00374614 -0.0106888 0.0150624 0.000957536
-0.0184338 2.71051e-20 0.00138083 -0.00404052 0.0055552 -7.23743e-05
0.0184338 0 0.00138083 -0.0258256 0.0322199 0.000433055
-0.0184038 0 0.00212475 -0.00472716 0.00642767 -0.000112536
0.0184038 -5.42101e-20 0.00212477 -0.0323194 0.0398462 0.000763304
-0.0185327 3.38813e-21 3.11486e-13 0 0 0
0.0185329 -3.38813e-21 3.11329e-13 0 0 0
-0.0180751 -1.35525e-20 0.00422612 0 0 0
0.0180753 -1.35525e-20 0.00422622 0 0 0
-0.0183783 2.71051e-20 0.00286013 -0.0043134 0.00565943 -0.000126504
0.0183783 0 0.00286017 -0.0288081 0.0362758 0.0010584
0.0186585 2.25875e-21 0.000460868 -0.0095681 0.0129052 1.2426e-05
-0.0186585 -2.25875e-21 0.000460863 -0.00130283 0.00172073 2.56703e-06
-0.0181758 0 0.00428412 0 0 0
0.0181761 0 0.00428433 0 0 0
-0.0182334 0 0.00409678 -0.000920624 0.00110353 1.37909e-05
0.0182336 4.51751e-21 0.00409694 -0.00508265 0.00756261 0.000647979
-0.0183787 2.71051e-20 0.00352164 -0.00306895 0.00383524 -4.84594e-05
0.0183789 0 0.00352172 -0.0190572 0.0253536 0.00130025
-0.018738 0 2.24787e-13 0 0 0
0.018738 0 2.24588e-13 0 0 0
-0.0187383 -3.38813e-21 1.8583e-05 -2.24195e-06 2.87761e-06 -1.7393e-08
0.0187383 -3.38813e-21 1.85606e-05 -0.000299468 0.000445502 -7.46038e-06
-0.0187394 0 0.000144294 -0.000378627 0.000496021 5.73178e-06
0.0187394 0 0.000144153 -0.00286382 0.00388753 -7.10087e-06
-0.0187637 0 5.23851e-14 0 0 0
0.0187638 0 5.23963e-14 0 0 0
0.018782 0 1.5237e-05 -0.000258795 0.000356728 -2.08562e-05
-0.018782 0 1.52548e-05 -6.14505e-06 8.99138e-06 -3.63423e-06
0.0187834 -3.38813e-21 4.17921e-14 0 0 0
-0.0187835 -6.77626e-21 4.1772e-14 0 0 0
0.0187414 -1.12938e-22 0.00174786 -0.0297103 0.0367251 0.00056585
-0.0187414 -1.12938e-22 0.00174787 -0.00443794 0.00607011 -0.00013362
0.0188423 3.38813e-21 3.05852e-14 0 0 0
-0.0188424 -3.38813e-21 3.05567e-14 0 0 0
-0.0188306 4.51751e-21 0.000951028 -0.00288429 0.00389592 -1.16218e-05
0.0188306 2.25875e-21 0.000951028 -0.0184324 0.0235245 0.000162905
-0.0183689 -2.71051e-20 0.00439542 0 0 0
0.0183691 -2.71051e-20 0.00439559 0 0 0
-0.0187534 2.01675e-22 0.00244424 -0.00456001 0.00614373 -0.000202252
0.0187534 -8.06698e-23 0.00244427 -0.0317322 0.0392724 0.000839573
-0.0186869 0 0.00320185 -0.00384222 0.00503333 -0.000180919
0.018687 0 0.00320189 -0.026415 0.0336059 0.00118282
-0.0184805 1.35525e-20 0.00445982 0 0 0
0.0184807 0 0.00445997 0 0 0
-0.0185301 0 0.00433158 -0.000688245 0.000792129 1.66685e-05
0.0185303 1.35525e-20 0.00433174 -0.00376608 0.00580154 0.000489673
-0.0186603 4.14105e-21 0.00393311 -0.00215955 0.00271096 -5.68706e-05
0.0186605 -1.12938e-21 0.0039332 -0.0135536 0.0186493 0.0011987
0.0191245 5.64689e-22 0.000340867 -0.00737568 0.010198 -0.000168419
-0.0191245 -8.47033e-22 0.000340856 -0.00106601 0.00131766 9.46676e-05
0.0192203 -1.35525e-20 9.46707e-15 0 0 0
-0.0192204 2.71051e-20 9.45326e-15 0 0 0
-0.0191646 0 0.00146339 -0.00429617 0.00595776 -0.000185905
0.0191646 0 0.00146338 -0.0283493 0.0350826 0.000373507
-0.0190143 -2.71051e-20 0.00283781 -0.00449707 0.00609457 -0.000332182
0.0190144 -2.71051e-20 0.00283783 -0.0330561 0.0407867 0.000878606
-0.0186819 0 0.00457601 0 0 0
0.0186821 0 0.00457612 0 0 0
-0.0187038 0 0.00458864 0 0 0
0.018704 1.69407e-21 0.00458877 0 0 0
-0.01916 -2.71051e-20 0.00195783 -0.00476895 0.00654435 -0.00026348
0.01916 0 0.00195783 -0.0336154 0.0411323 0.000596891
-0.0187217 0 0.00456119 -0.00016071 0.00020615 -4.04568e-06
0.0187219 0 0.00456127 -0.000814214 0.00128666 0.000134725
-0.0187284 1.01644e-20 0.00460285 0 0 0
0.0187286 1.01644e-20 0.00460299 0 0 0
-0.0189854 -2.71051e-20 0.00354614 -0.00357409 0.00467471 -0.000228174
0.0189855 -2.71051e-20 0.00354618 -0.0255078 0.0328622 0.00147195
-0.0188773 4.51751e-21 0.00434122 -0.00139653 0.00177502 -3.46123e-05
0.0188775 4.51751e-21 0.00434132 -0.00760174 0.0117171 0.00112798
-0.0193797 2.11758e-22 0.000837433 -0.00257624 0.00346797 1.34988e-05
0.0193798 0 0.000837383 -0.0162298 0.0207346 6.12893e-05
-0.0193834 -1.05879e-21 0.00085584 -0.00262726 0.00354187 9.89166e-06
0.0193835 2.11758e-21 0.000855835 -0.0165302 0.0210888 7.07013e-05
-0.0194038 -3.59989e-21 0.000856716 -0.00263391 0.00354968 6.12743e-06
0.0194039 -1.27055e-21 0.000856714 -0.0165733 0.0211368 7.38083e-05
0.0194237 0 1.54975e-15 0 0 0
-0.0194238 -2.71051e-20 1.53986e-15 0 0 0
-0.0193729 1.35525e-20 0.00169001 -0.00456127 0.00629118 -0.000264279
0.0193729 0 0.00169001 -0.031303 0.038457 0.000509815
-0.0193777 -7.05861e-22 0.00244586 -0.00465144 0.00642694 -0.000428567
0.0193778 -1.41172e-22 0.00244587 -0.0348728 0.0426611 0.000683879
-0.0189667 1.35525e-20 0.0047403 0 0 0
0.0189668 -1.35525e-20 0.00474041 0 0 0
-0.0193197 1.12938e-21 0.00318402 -0.00410225 0.00560224 -0.000421837
0.0193198 0 0.00318404 -0.0314804 0.039235 0.00106621
-0.0190326 0 0.0046715 -0.000428599 0.000534726 1.49533e-06
0.0190327 0 0.00467159 -0.00253885 0.00401593 0.000408736
-0.0195819 0 0.00142153 -0.00433631 0.00597846 -0.000278396
0.019582 -2.71051e-20 0.00142152 -0.0291996 0.0359949 0.000454769
-0.019255 4.51751e-21 0.00392942 -0.00275578 0.00367089 -0.000261199
0.019255 0 0.00392947 -0.0202335 0.0267047 0.0014111
-0.019653 6.77626e-21 3.99215e-16 0 0 0
0.019653 2.03288e-20 4.03295e-16 0 0 0
-0.0195685 -5.42101e-20 0.00193727 -0.004812 0.00667816 -0.000381943
0.0195685 0 0.00193726 -0.0344577 0.0421102 0.000612675
-0.0190798 2.71051e-20 0.00480552 0 0 0
0.0190799 0 0.00480561 0 0 0
-0.0197213 -2.25875e-21 0.000269929 -0.000937809 0.00128966 4.43837e-05
0.0197213 0 0.000269962 -0.00521062 0.00717578 -5.37542e-05
-0.0192752 1.35525e-21 0.00441197 -0.00170674 0.00221492 -0.000109818
0.0192754 -1.807e-21 0.00441204 -0.0113742 0.0162378 0.00128958
0.0198342 0 4.71809e-16 0 0 0
-0.0198343 3.38813e-21 4.68213e-16 0 0 0
-0.0192473 0 0.00490218 0 0 0
0.0192474 -6.77626e-21 0.00490225 0 0 0
-0.0196698 2.71051e-20 0.00278692 -0.00456442 0.00643102 -0.00060674
0.0196698 -2.71051e-20 0.00278693 -0.036848 0.0448937 0.000615384
-0.0196163 0 0.00353247 -0.00381433 0.00526677 -0.000522166
0.0196163 2.71051e-20 0.0035325 -0.0307849 0.0386893 0.00127829
-0.019321 -3.38813e-20 0.00494469 0 0 0
0.0193211 -6.77626e-21 0.00494477 0 0 0
-0.0194215 -9.03502e-21 0.00475386 -0.000862083 0.00113708 -4.6583e-05
0.0194216 -1.35525e-20 0.00475393 -0.00567497 0.00851261 0.00087559
-0.0200351 0 -3.2986e-17 0 0 0
0.0200352 0 -3.30812e-17 0 0 0
-0.0200397 3.38813e-21 0.000879744 -0.00271487 0.00361795 -0.000159928
0.0200398 -2.82344e-22 0.000879732 -0.0171417 0.0215883 0.000211049
-0.0196209 0 0.00418606 -0.00267662 0.00362947 -0.000339434
0.0196209 2.71051e-20 0.0041861 -0.0207253 0.027614 0.00164192
-0.0200081 1.41172e-22 0.00168408 -0.00461572 0.0063272 -0.000462593
0.0200082 -2.82344e-22 0.00168407 -0.0325282 0.03977 0.000510014
-0.0200926 -1.35525e-20 6.73548e-05 -0.000262988 0.000315436 -6.19947e-06
0.0200928 0 6.74599e-05 -0.0013384 0.00165435 4.74334e-05
-0.0200965 0 -7.17139e-19 0 0 0
0.0200967 0 -7.66423e-19 0 0 0
-0.0201334 0 8.6319e-18 0 0 0
0.0201336 1.35525e-20 8.60253e-18 0 0 0
-0.019508 -1.35525e-20 0.00505259 0 0 0
0.0195081 -2.71051e-20 0.00505265 0 0 0
-0.0200346 1.12938e-21 0.00229471 -0.00460567 0.00647097 -0.00067638
0.0200346 -3.38813e-21 0.0022947 -0.0364819 0.0443263 0.000542135
-0.0199605 -1.58113e-21 0.00311687 -0.00417652 0.00596502 -0.000757901
0.0199605 -2.48463e-21 0.00311687 -0.035745 0.0437463 0.000760432
-0.0202249 -1.35525e-20 6.9338e-05 -0.000292662 0.00037748 -4.9985e-06
0.0202254 1.35525e-20 6.9446e-05 -0.00161989 0.0020997 4.12818e-05
-0.0202304 0 -1.76858e-17 0 0 0
0.0202308 0 -1.76992e-17 0 0 0
-0.0199313 -1.12938e-21 0.0038555 -0.00330999 0.00471184 -0.00062148
0.0199314 1.12938e-21 0.00385553 -0.0285449 0.03612 0.00127645
-0.0196734 -1.35525e-20 0.00514806 0 0 0
0.0196735 2.03288e-20 0.00514812 0 0 0
-0.0198941 3.61401e-21 0.00456699 -0.00193143 0.00268923 -0.000305164
0.0198942 1.807e-21 0.00456703 -0.0155492 0.0209729 0.00134573
-0.0197657 6.77626e-21 0.00520128 0 0 0
0.0197658 -1.35525e-20 0.00520135 0 0 0
-0.0198217 0 0.00501122 -0.00079564 0.00101056 -6.123e-05
0.0198218 0 0.00501128 -0.00566522 0.00816743 0.00071939
-0.0202896 -2.71051e-20 0.00277321 -0.0043843 0.00639664 -0.000972488
0.0202896 0 0.00277322 -0.0394497 0.0476088 0.00046472
-0.0202612 0 0.00349053 -0.00380546 0.00559927 -0.00094913
0.0202612 0 0.00349054 -0.0355937 0.0435511 0.000774276
-0.0199064 0 0.00528243 0 0 0
0.0199065 0 0.0052825 0 0 0
-0.020245 0 0.0041794 -0.00299458 0.00443961 -0.000702123
0.0202451 -5.42101e-20 0.00417943 -0.0277262 0.03533 0.00138038
-0.0206572 -1.0842e-19 0.00171989 -0.00464992 0.00629683 -0.00077221
0.0206573 0 0.00171988 -0.0341281 0.0414593 0.000446541
-0.0201293 -1.50584e-21 0.00498603 -0.00132385 0.0018429 -0.000213171
0.0201293 -1.50584e-21 0.00498607 -0.0103365 0.0146404 0.00127487
-0.0200531 0 0.00536707 0 0 0
0.0200531 -6.77626e-21 0.00536711 0 0 0
0.0206314 2.82344e-22 0.00242248 -0.0390143 0.0470069 0.000394371
-0.0206314 -7.05861e-23 0.0024225 -0.00435713 0.00630997 -0.00106088
-0.0207755 -5.42101e-20 0.000514971 -0.00226534 0.00280612 -3.99437e-05
0.0207756 0 0.000514975 -0.0122992 0.0162756 0.000329833
-0.0205987 -5.64689e-22 0.00311579 -0.00399634 0.00599669 -0.00115834
0.0205987 0 0.00311579 -0.0391039 0.0472235 0.000482578
-0.0203104 -2.71051e-20 0.00476269 -0.00198353 0.00294099 -0.00045714
0.0203105 0 0.00476272 -0.0172479 0.0233344 0.0016082
-0.0201708 1.35525e-20 0.00543499 0 0 0
0.0201709 2.71051e-20 0.00543504 0 0 0
-0.0202176 -9.03502e-21 0.00527687 -0.000582155 0.00082695 -9.57321e-05
0.0202177 -4.51751e-21 0.00527691 -0.00413774 0.00652857 0.000908686
-0.0205738 -4.51751e-21 0.0038174 -0.00334414 0.00517131 -0.00107134
0.0205738 -1.12938e-21 0.00381741 -0.0341867 0.042103 0.000863809