# k  POINT_DATA 18637
# x  y  z  k
-1.35525e-20 0.0292381 8.09214e-08 8.73382e-09
1.35525e-20 -0.0292381 8.09214e-08 1.44327e-06
0 0.0292381 0.000233485 8.0613e-09
0 -0.0292381 0.000233515 1.44347e-06
3.38813e-21 0.0292381 0.000430835 7.95907e-09
3.38813e-21 -0.0292381 0.000430882 1.59987e-06
-6.77626e-21 0.029238 0.000663804 7.89496e-09
0 -0.029238 0.000663883 1.94121e-06
0 0.029238 0.00090804 6.97521e-09
0 -0.029238 0.000908135 2.24621e-06
3.38813e-21 0.029238 0.00111509 6.86869e-09
0 -0.029238 0.00111514 2.32609e-06
6.77626e-21 0.0292379 0.00135916 6.97395e-09
-1.35525e-20 -0.029238 0.00135924 2.17772e-06
3.38813e-21 0.0292379 0.00161398 6.7931e-09
3.38813e-21 -0.029238 0.00161406 1.91884e-06
6.77626e-21 0.0292379 0.00183191 7.88561e-09
3.38813e-21 -0.0292379 0.00183193 2.05924e-06
6.77626e-21 0.0292379 0.002087 9.82163e-09
-6.77626e-21 -0.0292379 0.002087 2.59805e-06
6.77626e-21 0.0293159 0.000332872 7.90443e-09
1.35525e-20 -0.0293159 0.000332922 1.39032e-06
-1.01644e-20 0.0293201 0.00100469 6.50249e-09
0 -0.0293201 0.0010048 2.30462e-06
0 -0.0293199 0.00170033 1.72802e-06
0 0.0293199 0.00170027 6.4014e-09
0 0.0294721 0.000122228 8.7712e-09
1.35525e-20 -0.0294721 0.000122259 1.28333e-06
-1.35525e-20 0.0294728 7.47971e-08 8.79512e-09
0 -0.0294728 7.47973e-08 1.28038e-06
0 0.0294797 0.000527865 7.6792e-09
1.35525e-20 -0.0294797 0.000527979 1.53721e-06
0 0.0294753 0.0007964 7.0816e-09
0 -0.0294753 0.000796545 1.92693e-06
0 0.0294755 0.00118677 5.97816e-09
-2.03288e-20 -0.0294755 0.00118694 2.02635e-06
-6.77626e-21 0.0294683 0.00147423 5.96355e-09
1.35525e-20 -0.0294683 0.00147436 1.77078e-06
6.77626e-21 0.0294625 0.00186313 6.79319e-09
-1.35525e-20 -0.0294625 0.00186321 1.97939e-06
2.71051e-20 -0.029578 6.6417e-08 1.69711e-06
0 0.029578 6.64162e-08 3.04332e-08
0 -0.0295009 0.00213468 2.5814e-06
-6.77626e-21 0.0295009 0.00213468 8.2421e-09
1.35525e-20 0.029587 0.000650923 1.8556e-08
-2.71051e-20 -0.029587 0.000651142 1.70848e-06
1.35525e-20 0.0295378 0.00203788 7.72104e-09
0 -0.0295378 0.00203791 2.40052e-06
0 0.0295841 0.00130575 4.86547e-09
-1.35525e-20 -0.0295841 0.001306 1.50581e-06
0 0.0295849 0.00192062 5.96922e-09
6.77626e-21 -0.0295849 0.00192072 1.84491e-06
0 0.029649 0.00216152 9.53082e-09
1.35525e-20 -0.029649 0.00216153 2.64587e-06
0 0.0297926 0.000963737 7.19035e-09
-1.35525e-21 -0.0297926 0.000964021 1.75785e-06
0 0.0298094 7.62576e-08 1.79324e-08
0 -0.0298094 7.62593e-08 1.22535e-06
-2.25875e-22 -0.0298204 0.000317605 1.25569e-06
6.77626e-22 0.0298204 0.000317475 1.79775e-08
4.96926e-21 0.0297852 0.00156831 4.41603e-09
-9.03502e-22 -0.0297852 0.00156853 1.31742e-06
5.64689e-22 0.0297946 0.00197119 6.38721e-09
-5.64689e-22 -0.0297946 0.00197126 2.00354e-06
0 -0.0298851 8.57398e-08 1.49759e-06
6.77626e-21 0.0298851 8.57415e-08 2.40822e-08
6.77626e-21 0.0298185 0.00219226 8.51772e-09
-2.71051e-20 -0.0298186 0.00219226 2.44986e-06
1.35525e-20 -0.0299229 0.00221118 2.94151e-06
-1.35525e-20 0.0299229 0.00221118 1.13203e-08
0 -0.0300583 1.01025e-07 2.50659e-06
0 0.0300583 1.01025e-07 5.14895e-08
-9.03502e-21 0.030042 0.00125425 5.19617e-09
-4.51751e-21 -0.0300421 0.00125455 1.48017e-06
2.90411e-21 0.030023 0.00171056 5.21711e-09
-1.64566e-20 -0.0300231 0.00171076 1.53067e-06
9.03502e-21 0.0300766 0.000656709 2.23127e-08
-9.03502e-21 -0.0300766 0.000656982 1.86932e-06
0 0.0301411 0.00011795 4.35634e-08
0 -0.0301411 0.000118016 2.3678e-06
0 0.0301431 9.36971e-08 4.37673e-08
-6.77626e-21 -0.0301431 9.3695e-08 2.37287e-06
1.35525e-20 -0.0300722 0.00223824 3.08328e-06
-1.35525e-20 0.0300722 0.00223824 1.19409e-08
1.35525e-20 -0.0302709 0.000327948 2.80646e-06
0 0.0302709 0.000327843 2.07521e-08
-1.35525e-20 0.0302588 0.000959241 6.44118e-09
0 -0.0302588 0.000959456 1.84059e-06
0 0.0302233 0.00199378 1.04605e-08
0 -0.0302233 0.00199385 2.78711e-06
2.71051e-20 0.0302514 0.00155263 5.27868e-09
0 -0.0302514 0.00155281 1.46848e-06
0 0.0303943 0.00229664 1.43376e-08
1.01644e-20 -0.0303944 0.00229665 3.409e-06
0 -0.0305071 4.03816e-05 3.45871e-06
3.38813e-21 0.0305071 4.03474e-05 2.36136e-08
0 -0.0305084 2.78803e-08 3.46245e-06
0 0.0305085 2.78785e-08 2.36465e-08
0 -0.0305355 2.44804e-08 3.64298e-06
3.38813e-21 0.0305355 2.44805e-08 2.51713e-08
6.77626e-21 0.030464 0.00230926 1.51685e-08
-6.77626e-21 -0.030464 0.00230927 3.53991e-06
3.38813e-21 0.0305559 2.56048e-08 2.47641e-08
-3.38813e-21 -0.0305559 2.56052e-08 3.61394e-06
3.38813e-21 0.0305566 2.16906e-05 2.47897e-08
-3.38813e-21 -0.0305566 2.17043e-05 3.61635e-06
1.41172e-22 -0.0305496 0.000656518 2.79147e-06
2.11758e-22 0.0305496 0.000656265 1.6099e-08
1.8823e-22 0.0305132 0.00170673 7.58217e-09
0 -0.0305132 0.00170684 2.03477e-06
4.51751e-22 0.0305476 0.0012451 5.86136e-09
2.25875e-22 -0.0305476 0.00124527 1.65824e-06
0 -0.030501 0.00231597 3.57395e-06
0 0.030501 0.00231597 1.53434e-08
-3.38813e-21 0.0306237 3.57384e-08 2.6149e-08
0 -0.0306238 3.57449e-08 3.80518e-06
-3.38813e-21 -0.0306099 0.00219282 3.49887e-06
3.38813e-21 0.03061 0.00219278 1.4729e-08
0 -0.0307226 0.00235616 4.08744e-06
-3.38813e-21 0.0307226 0.00235617 1.83944e-08
-5.42101e-20 -0.0308383 0.000320955 4.60152e-06
2.71051e-20 0.0308384 0.000320914 2.9146e-08
5.64689e-21 0.0308116 0.00198362 1.27969e-08
-2.25875e-21 -0.0308116 0.00198366 3.13585e-06
1.35525e-20 -0.0309907 0.00101963 1.5172e-06
1.35525e-20 0.0309907 0.00101953 5.90923e-09
4.51751e-21 0.0309922 0.00150601 4.19398e-09
1.807e-20 -0.0309923 0.00150608 1.11574e-06
-1.35525e-20 0.0310395 9.17131e-08 3.34028e-08
2.71051e-20 -0.0310395 9.1716e-08 5.06499e-06
0 0.0310416 0.000119385 3.37305e-08
2.71051e-20 -0.0310416 0.000119381 5.10542e-06
0 -0.030965 0.0024001 4.56195e-06
6.77626e-21 0.030965 0.0024001 2.15626e-08
0 -0.030982 0.00237275 4.5787e-06
-6.77626e-21 0.030982 0.00237274 2.15205e-08
0 0.0310105 0.00240831 2.21114e-08
0 -0.0310105 0.00240831 4.6546e-06
0 0.0310179 0.00233593 2.04065e-08
-2.03288e-20 -0.0310179 0.00233593 4.38088e-06
4.51751e-21 -0.0311223 0.000639295 3.13536e-06
9.03502e-21 0.0311223 0.000639241 1.94167e-08
0 0.0310526 0.00237695 2.27423e-08
0 -0.0310526 0.00237695 4.7858e-06
0 -0.0311459 9.7154e-08 5.20268e-06
-1.35525e-20 0.0311459 9.7152e-08 3.15525e-08
0 0.031071 0.00241925 2.36304e-08
0 -0.031071 0.00241926 4.90256e-06
2.71051e-20 0.0312091 0.00177617 8.46803e-09
2.71051e-20 -0.0312091 0.0017762 2.13576e-06
2.71051e-20 0.0312491 0.00122874 4.70801e-09
0 -0.0312491 0.00122879 1.24322e-06
0 -0.0312858 8.40769e-08 5.7167e-06
-1.35525e-20 0.0312858 8.40688e-08 3.34181e-08
0 -0.0312917 0.000133801 5.76432e-06
0 0.0312917 0.000133814 3.36358e-08
2.25875e-21 0.0313889 0.00201505 1.67854e-08
-4.51751e-21 -0.0313889 0.00201507 4.15938e-06
0 0.0313959 0.00247812 2.69193e-08
0 -0.0313959 0.00247812 5.62665e-06
4.51751e-21 -0.0314932 0.000408813 5.59617e-06
-9.03502e-21 0.0314932 0.000408772 3.46827e-08
6.77626e-21 -0.0315059 0.00091593 1.49369e-06
2.25875e-21 0.0315059 0.000915908 9.22649e-09
0 0.0314281 0.00241767 2.60514e-08
0 -0.0314281 0.00241768 5.56954e-06
-2.25875e-21 0.0315016 0.00151821 3.79811e-09
2.25875e-21 -0.0315016 0.00151824 9.53995e-07
-2.71051e-20 -0.0314985 0.00234892 4.87084e-06
0 0.0314986 0.00234891 2.18976e-08
0 -0.0315086 0.00249848 5.45784e-06
0 0.0315086 0.00249848 2.57011e-08
1.35525e-20 0.0316957 0.000127101 5.0911e-08
-1.35525e-20 -0.0316957 0.000127026 6.74141e-06
-1.35525e-20 0.0316993 1.28444e-08 5.1098e-08
0 -0.0316993 1.28328e-08 6.71852e-06
2.71051e-20 -0.0317724 0.000610912 3.81966e-06
-2.71051e-20 0.0317724 0.000610901 2.98109e-08
-2.71051e-20 0.0317679 0.00121735 3.98667e-09
-2.71051e-20 -0.0317679 0.00121736 8.7499e-07
0 0.0317537 0.00187034 8.31568e-09
0 -0.0317537 0.00187034 2.12638e-06
-2.71051e-20 -0.0317094 0.00253469 5.4722e-06
-2.71051e-20 0.0317094 0.00253469 2.46346e-08
-1.35525e-20 -0.0318341 3.55441e-10 6.8889e-06
0 0.0318342 3.5764e-10 5.63522e-08
5.64689e-22 -0.0317532 0.00228382 5.41065e-06
0 0.0317532 0.0022838 2.25035e-08
0 -0.0319513 4.55602e-10 7.49881e-06
0 0.0319515 4.57813e-10 5.59709e-08
0 -0.0319524 0.000127644 7.56722e-06
-1.35525e-20 0.0319526 0.000127724 5.59342e-08
-1.35525e-20 0.031883 0.00256626 2.21504e-08
0 -0.031883 0.00256626 4.91214e-06
0 -0.0319995 0.000914652 1.53795e-06
0 0.0319996 0.000914645 1.08039e-08
-8.13152e-21 -0.0320112 0.000400526 7.22234e-06
1.0842e-20 0.0320112 0.000400506 4.52822e-08
0 -0.0320267 0.00227715 3.87355e-06
-2.25875e-21 0.0320267 0.00227715 1.50654e-08
0 0.0320296 0.00251389 1.84081e-08
2.71051e-20 -0.0320296 0.00251388 4.46562e-06
-4.51751e-21 -0.0320975 0.00153751 8.60861e-07
2.25875e-21 0.0320975 0.0015375 3.48443e-09
6.77626e-21 -0.0320426 0.00259528 4.37065e-06
6.77626e-21 0.0320426 0.00259528 1.81719e-08
4.51751e-21 0.0321203 0.00203456 6.92461e-09
-4.51751e-21 -0.0321203 0.00203456 2.13068e-06
-1.35525e-20 -0.032135 0.0023896 4.20635e-06
0 0.032135 0.0023896 1.68286e-08
0 0.0322923 0.000126396 5.11526e-08
0 -0.0322923 0.000126368 8.91692e-06
-1.35525e-20 0.0323016 2.23509e-09 5.10428e-08
0 -0.0323016 2.23359e-09 8.89046e-06
0 -0.0322106 0.00262564 4.22742e-06
-1.35525e-20 0.0322106 0.00262563 1.83806e-08
1.35525e-20 -0.0322719 0.00254337 4.27422e-06
-1.35525e-20 0.0322719 0.00254337 1.87548e-08
1.35525e-20 -0.032418 2.33105e-09 9.00566e-06
1.35525e-20 0.032418 2.33258e-09 5.20302e-08
6.77626e-21 -0.0324263 0.000612636 5.31283e-06
0 0.0324263 0.000612628 2.98769e-08
-4.51751e-21 0.0324222 0.00112458 6.28357e-09
-4.51751e-21 -0.0324222 0.0011246 1.15221e-06
0 0.0324121 0.00187572 7.18656e-09
0 -0.0324121 0.00187572 1.74181e-06
0 -0.0323802 0.00265647 4.74004e-06
1.35525e-20 0.0323802 0.00265646 2.5311e-08
0 0.0324114 0.0022971 1.48903e-08
-5.64689e-22 -0.0324114 0.0022971 3.41851e-06
0 -0.032547 2.20758e-09 9.41699e-06
0 0.032547 2.20888e-09 5.20818e-08
0 -0.0325489 0.000125731 9.41679e-06
1.35525e-20 0.0325489 0.000125761 5.2081e-08
-1.35525e-20 0.0326034 0.00269726 2.36656e-08
6.77626e-21 -0.0326035 0.00269726 4.54035e-06
0 -0.032737 0.000308379 9.91589e-06
-2.71051e-20 0.032737 0.000308371 5.28704e-08
2.25875e-21 -0.0327282 0.00154847 9.1342e-07
0 0.0327282 0.00154846 4.25503e-09
0 0.0326738 0.00254252 2.39598e-08
-4.51751e-21 -0.0326738 0.00254252 4.66663e-06
9.03502e-21 0.0327075 0.00206802 8.11381e-09
-4.51751e-21 -0.0327075 0.00206803 1.80741e-06
2.71051e-20 -0.0327081 0.00271619 4.7063e-06
0 0.0327081 0.00271619 2.51236e-08
4.51751e-21 0.0328421 0.000917798 1.17539e-08
0 -0.0328421 0.00091781 2.25656e-06
-1.35525e-20 -0.0328866 1.93643e-09 1.02459e-05
0 0.0328867 1.93676e-09 5.21172e-08
1.35525e-20 -0.032889 0.000149431 1.02458e-05
1.35525e-20 0.032889 0.00014945 5.21163e-08
1.93608e-21 0.0329824 0.000542139 3.83427e-08
-1.93608e-20 -0.0329825 0.000542161 7.45157e-06
-2.71051e-20 -0.0330372 1.79015e-09 1.03821e-05
0 0.0330372 1.79024e-09 5.38412e-08
0 0.0329464 0.00275986 3.84154e-08
0 -0.0329464 0.00275986 5.9249e-06
-2.25875e-22 -0.0329866 0.00235418 3.89147e-06
1.01644e-21 0.0329866 0.00235417 1.9852e-08
-2.71051e-20 0.0330505 0.0012313 6.06932e-09
2.71051e-20 -0.0330505 0.00123132 1.11709e-06
0 0.03302 0.00190093 9.18711e-09
0 -0.03302 0.00190094 1.92104e-06
0 -0.0332006 2.02157e-09 1.08431e-05
0 0.0332007 2.02156e-09 5.10478e-08
-6.77626e-21 -0.0333521 0.000302632 1.02961e-05
-4.51751e-21 0.0333521 0.00030262 4.71781e-08
6.77626e-21 0.0333579 0.000916518 1.23726e-08
9.03502e-21 -0.0333579 0.000916545 2.54648e-06
-3.38813e-21 0.0332515 0.00281589 3.52533e-08
0 -0.0332516 0.00281589 6.0925e-06
0 -0.0333432 0.00156301 9.22181e-07
0 0.0333432 0.00156299 4.62155e-09
0 0.0332953 0.00276465 3.35663e-08
0 -0.0332954 0.0027646 6.04486e-06
-3.72694e-20 0.0333124 0.00282716 3.56174e-08
0 -0.0333125 0.00282717 6.12248e-06
1.12938e-20 0.03334 0.00259894 3.1391e-08
-3.38813e-21 -0.03334 0.00259895 5.81134e-06
2.25875e-21 0.0333776 0.00214933 1.00662e-08
-9.03502e-21 -0.0333776 0.00214934 2.01301e-06
0 -0.0334909 2.97183e-09 1.15194e-05
-1.35525e-20 0.0334909 2.97138e-09 5.18546e-08
0 -0.0336619 3.20036e-09 1.16383e-05
2.71051e-20 0.033662 3.19979e-09 5.55581e-08
0 0.0336674 0.000602348 3.26221e-08
2.71051e-20 -0.0336674 0.000602386 6.77835e-06
0 0.0336288 0.00191783 8.53968e-09
0 -0.0336288 0.00191785 1.82559e-06
2.71051e-20 0.0336642 0.00123333 6.5776e-09
0 -0.0336642 0.00123337 1.24002e-06
-2.71051e-20 0.0335882 0.00287788 4.43692e-08
2.71051e-20 -0.0335883 0.00287789 6.42047e-06
2.71051e-20 0.0336882 0.00242285 2.3697e-08
2.71051e-20 -0.0336882 0.00242286 4.15625e-06
0 -0.0338384 2.82135e-09 1.21215e-05
0 0.0338384 2.82081e-09 5.39621e-08
-1.35525e-20 0.0338118 0.00291884 4.33072e-08
0 -0.0338119 0.00291885 6.42282e-06
-6.77626e-21 -0.0339781 0.000302716 1.1419e-05
2.25875e-21 0.0339781 0.000302698 5.09207e-08
1.12938e-20 -0.0339808 0.000914846 2.88315e-06
-4.51751e-21 0.0339808 0.000914783 1.33226e-08
-1.12938e-20 0.0339744 0.00155885 4.5876e-09
6.77626e-21 -0.0339744 0.0015589 8.58999e-07
-2.03288e-21 0.0339479 0.0026773 3.74738e-08
-1.12938e-21 -0.033948 0.00267731 6.1036e-06
-2.25875e-21 0.0339878 0.00215892 8.77171e-09
-4.51751e-21 -0.0339878 0.00215894 1.63818e-06
-1.35525e-20 0.0341105 1.81896e-09 5.65096e-08
0 -0.0341105 1.81909e-09 1.26543e-05
0 0.034033 0.00295946 4.60652e-08
-6.77626e-21 -0.0340333 0.00295951 6.37646e-06
0 -0.0342884 1.43974e-09 1.26628e-05
2.71051e-20 0.0342884 1.43965e-09 6.00033e-08
2.71051e-20 -0.0342943 0.000599028 7.40576e-06
0 0.0342944 0.000598959 3.54049e-08
4.06576e-20 0.0342165 0.00299309 5.00435e-08
0 -0.0342167 0.00299313 6.38242e-06
2.71051e-20 0.0342949 0.00244902 2.30249e-08
-2.71051e-20 -0.0342949 0.00244904 3.61443e-06
1.74247e-20 -0.034362 0.00129523 1.08714e-06
-1.16165e-20 0.034362 0.00129516 6.09314e-09
0 -0.0343655 0.00179195 8.28669e-07
-9.68038e-21 0.0343655 0.00179189 4.68414e-09
0 0.0343332 0.00301467 5.71663e-08
0 -0.0343333 0.00301469 7.091e-06
-1.35525e-20 -0.0344682 1.2841e-09 1.3061e-05
2.71051e-20 0.0344682 1.284e-09 6.08208e-08
9.03502e-21 -0.0345084 0.000909543 2.96147e-06
4.51751e-21 0.0345085 0.000909463 1.44072e-08
-9.03502e-21 0.0345181 0.00215903 9.39491e-09
-9.03502e-21 -0.0345181 0.00215907 1.52848e-06
-2.25875e-21 -0.0346072 0.000300839 1.21595e-05
-4.51751e-21 0.0346072 0.000300792 5.90718e-08
0 0.0346152 0.0015431 4.09943e-09
2.71051e-20 -0.0346152 0.00154318 6.23072e-07
-4.51751e-22 0.0345577 0.00272973 5.84254e-08
7.90564e-22 -0.0345578 0.00272972 7.64844e-06
-6.77626e-21 0.0345982 0.00306315 6.08542e-08
0 -0.0345983 0.00306318 7.27662e-06
-1.35525e-20 0.0347357 9.21209e-10 6.88261e-08
-1.35525e-20 -0.0347357 9.21261e-10 1.34575e-05
6.77626e-21 0.0346817 0.0030786 5.81374e-08
6.77626e-21 -0.0346818 0.00307861 6.93548e-06
0 -0.0349166 7.64663e-10 1.34635e-05
0 0.0349166 7.64607e-10 1.02498e-07
-9.03502e-21 -0.0349264 0.000691229 5.74164e-06
1.807e-20 0.0349264 0.000691147 3.64927e-08
6.77626e-21 0.0349292 0.00121456 9.64222e-09
1.12938e-20 -0.0349292 0.00121466 1.46592e-06
4.51751e-21 0.0349324 0.00185908 5.29835e-09
-2.25875e-21 -0.0349324 0.00185915 8.19255e-07
-3.04932e-20 0.0348918 0.00311689 5.32877e-08
-1.69407e-20 -0.0348919 0.00311691 7.07254e-06
-6.77626e-21 0.0349974 0.00246603 1.93625e-08
-4.51751e-21 -0.0349975 0.00246603 3.00704e-06
-1.35525e-20 -0.0350985 7.00968e-10 1.38553e-05
-2.71051e-20 0.0350985 7.00918e-10 1.01897e-07
0 0.0350013 0.00286026 4.59205e-08
-9.03502e-21 -0.0350014 0.00286027 6.29248e-06
0 -0.0352407 0.000295921 1.27842e-05
4.51751e-21 0.0352407 0.000295875 9.88698e-08
0 0.0352487 0.000893704 1.78878e-08
0 -0.0352487 0.000893811 2.44206e-06
3.38813e-20 0.0351346 0.00316138 4.38761e-08
2.71051e-20 -0.0351347 0.0031614 5.66516e-06
-2.71051e-20 0.0352503 0.00152796 5.37893e-09
2.71051e-20 -0.0352503 0.00152806 6.47257e-07
0 0.0351466 0.00316358 4.36901e-08
1.69407e-21 -0.0351467 0.00316359 5.63904e-06
0 0.0351792 0.00281931 3.33718e-08
-6.77626e-21 -0.0351793 0.00281934 4.68786e-06
1.69407e-21 0.0351514 0.0031503 4.35516e-08
0 -0.0351514 0.00315042 5.63429e-06
0 0.0352563 0.002173 4.57388e-09
0 -0.0352563 0.00217304 8.74874e-07
-3.38813e-21 -0.0352266 0.00317815 5.49922e-06
-8.47033e-22 0.0352273 0.00317828 4.41593e-08
-1.35525e-20 0.0353735 5.21769e-10 1.13576e-07
0 -0.0353735 5.21782e-10 1.41438e-05
6.77626e-21 0.0353094 0.00290198 3.31038e-08
0 -0.0353094 0.00290197 4.63276e-06
-2.71051e-20 -0.0355533 4.57347e-10 1.38762e-05
-2.71051e-20 0.0355533 4.57338e-10 1.64992e-07
6.77626e-21 0.0355671 0.001196 1.36425e-08
-2.25875e-21 -0.0355671 0.00119611 1.6024e-06
-2.25875e-21 0.0355696 0.00184888 5.67585e-09
-2.25875e-21 -0.0355696 0.00184895 7.53329e-07
-2.25875e-21 -0.0356125 0.00062238 7.61015e-06
-4.51751e-21 0.0356125 0.0006223 6.87443e-08
1.12938e-20 0.0355744 0.00250526 1.62435e-08
-2.25875e-21 -0.0355744 0.00250527 2.4024e-06
3.38813e-21 -0.0355282 0.00323309 4.79778e-06
-6.77626e-21 0.0355283 0.0032331 4.4095e-08
0 -0.0355416 0.00321424 4.82447e-06
0 0.0355417 0.00321429 4.43426e-08
4.51751e-21 0.0355809 0.00287392 3.47161e-08
4.51751e-21 -0.0355809 0.00287394 4.20228e-06
-3.38813e-21 0.0355739 0.00316255 4.25146e-08
0 -0.0355739 0.00316239 4.65693e-06
0 -0.035567 0.00324017 4.90437e-06
6.77626e-21 0.035567 0.00324016 4.73624e-08
0 -0.0357313 4.0682e-10 1.40883e-05
2.71051e-20 0.0357313 4.06801e-10 1.30051e-07
0 0.0356067 0.00321938 4.60586e-08
0 -0.0356068 0.00321934 4.84157e-06
0 0.03562 0.00324983 4.65243e-08
3.38813e-21 -0.0356201 0.00324986 4.81158e-06
0 -0.0358767 0.000193584 1.41299e-05
-9.03502e-21 0.0358767 0.000193565 1.33521e-07
2.71051e-20 0.035885 0.00087563 2.30062e-08
0 -0.035885 0.000875722 2.56882e-06
2.71051e-20 0.0358905 0.00150745 7.40552e-09
-2.71051e-20 -0.0358906 0.00150754 7.06673e-07
2.71051e-20 0.035888 0.00216762 5.23875e-09
2.71051e-20 -0.035888 0.00216765 7.75789e-07
0 0.0358662 0.00295245 4.35243e-08
6.77626e-21 -0.0358662 0.00295244 4.4885e-06
1.35525e-20 0.0360202 2.4784e-10 1.38628e-07
1.35525e-20 -0.0360202 2.47859e-10 1.41726e-05
6.77626e-21 -0.036024 0.00332348 5.09198e-06
0 0.0360241 0.0033235 5.82888e-08
0 -0.0361958 1.9684e-10 1.37824e-05
-2.71051e-20 0.0361958 1.96811e-10 1.79434e-07
2.25875e-21 -0.0362011 0.000563602 8.47236e-06
0 0.0362011 0.00056354 8.71029e-08
0 -0.03606 0.00326909 5.20211e-06
-2.71051e-20 0.03606 0.00326916 5.91634e-08
9.03502e-21 0.036206 0.00117906 1.65817e-08
6.77626e-21 -0.036206 0.00117914 1.68723e-06
0 0.0362044 0.00184432 7.0875e-09
0 -0.0362045 0.00184436 7.74217e-07
6.77626e-21 0.0361886 0.0025326 2.14632e-08
4.51751e-21 -0.0361886 0.0025326 2.52462e-06
0 0.0361316 0.00334311 7.0444e-08
1.35525e-20 -0.0361316 0.00334312 5.54512e-06
-4.51751e-21 0.0361686 0.00293576 4.65187e-08
4.51751e-21 -0.0361686 0.00293578 4.43346e-06
-1.35525e-20 0.0361566 0.00314793 5.35241e-08
0 -0.0361566 0.00314776 4.79398e-06
2.71051e-20 -0.0363723 1.67552e-10 1.38832e-05
-2.71051e-20 0.0363723 1.67523e-10 1.51626e-07
0 0.0362561 0.00328629 6.47728e-08
0 -0.0362563 0.00328624 5.44163e-06
-6.77626e-21 0.0363064 0.00337495 6.66256e-08
0 -0.0363066 0.003375 5.40719e-06
9.03502e-21 -0.0365138 0.000190574 1.39307e-05
-9.03502e-21 0.0365138 0.000190566 1.65738e-07
0 0.0365218 0.000862039 2.63043e-08
0 -0.0365218 0.000862105 2.65484e-06
0 0.0365244 0.00149871 8.83733e-09
-2.71051e-20 -0.0365244 0.00149876 7.56084e-07
2.71051e-20 0.0365144 0.00218215 6.68607e-09
2.71051e-20 -0.0365144 0.00218218 8.41977e-07
4.06576e-20 0.0364787 0.00289846 4.44004e-08
-1.35525e-20 -0.0364787 0.00289841 4.09488e-06
-1.35525e-20 0.0366527 8.42396e-11 1.87331e-07
1.35525e-20 -0.0366527 8.42454e-11 1.40084e-05
-8.13152e-21 0.036569 0.00323497 6.92899e-08
-8.13152e-21 -0.036569 0.00323494 5.74875e-06
-1.35525e-20 -0.0365533 0.00341997 5.49584e-06
2.71051e-20 0.0365534 0.00341998 6.92296e-08
6.77626e-21 0.0367898 0.00059899 1.12048e-07
4.51751e-21 -0.0367898 0.000599027 7.87723e-06
-2.71051e-20 -0.0368341 5.55828e-11 1.40067e-05
-2.71051e-20 0.0368341 5.55766e-11 2.5157e-07
-4.51751e-21 0.0368407 0.00116982 2.29909e-08
9.03502e-21 -0.0368407 0.00116987 1.77404e-06
-2.25875e-21 0.0368347 0.0018451 8.35213e-09
4.51751e-21 -0.0368347 0.00184514 7.82645e-07
-2.25875e-21 0.0368044 0.00255426 1.96552e-08
6.77626e-21 -0.0368045 0.00255425 2.29501e-06
-2.71051e-20 0.0367776 0.00346083 8.32283e-08
0 -0.0367778 0.00346085 5.93038e-06
5.87276e-21 -0.0368391 0.00303501 4.20073e-06
-4.06576e-21 0.0368391 0.00303502 4.68027e-08
-1.35525e-20 -0.0370199 4.78266e-11 1.42928e-05
-2.71051e-20 0.0370199 4.78194e-11 3.51381e-07
4.51751e-21 -0.0371489 0.000281532 1.32061e-05
-2.25875e-21 0.0371489 0.000281513 3.31346e-07
0 0.0371548 0.000855733 4.49284e-08
0 -0.0371548 0.000855772 2.78976e-06
2.71051e-20 0.0371549 0.00149544 1.17269e-08
0 -0.0371549 0.00149548 7.94386e-07
0 0.037144 0.00218136 6.09853e-09
0 -0.0371441 0.00218137 7.24224e-07
-3.38813e-20 0.0370561 0.00351158 8.18511e-08
2.37169e-20 -0.0370564 0.00351163 5.58135e-06
1.35525e-20 -0.03727 2.98601e-11 1.46298e-05
0 0.0372701 2.98577e-11 3.72764e-07
-2.71051e-20 0.0371711 0.00278346 1.15361e-08
0 -0.0371712 0.00278344 1.45238e-06
2.03288e-20 -0.0371161 0.00352251 5.51437e-06
-1.01644e-20 0.0371162 0.00352254 8.25764e-08
-4.51751e-21 0.0371348 0.00333234 7.60991e-08
0 -0.0371348 0.00333228 5.49502e-06
0 -0.0374605 2.2222e-11 1.48153e-05
-2.71051e-20 0.0374606 2.22185e-11 3.30799e-07
-4.51751e-21 -0.0374674 0.000637921 7.02829e-06
-9.03502e-21 0.0374674 0.000637907 1.25149e-07
2.25875e-21 0.0374702 0.00116479 2.90858e-08
4.51751e-21 -0.0374702 0.00116482 1.87354e-06
0 0.0374664 0.00184005 9.74357e-09
-3.38813e-21 -0.0374664 0.00184006 7.53983e-07
3.38813e-21 0.0374681 0.0024973 9.6101e-09
1.12938e-21 -0.0374682 0.00249729 1.00339e-06
-6.77626e-21 0.0374674 0.00307432 5.07399e-08
5.64689e-21 -0.0374674 0.00307432 3.57695e-06
0 0.0374247 0.00357873 9.06088e-08
1.35525e-20 -0.0374247 0.00357874 5.33047e-06
1.35525e-20 -0.0376529 1.86798e-11 1.52239e-05
-1.35525e-20 0.0376529 1.86765e-11 3.21222e-07
-9.03502e-21 -0.0377742 0.000280176 1.41064e-05
4.51751e-21 0.0377742 0.000280173 2.90071e-07
2.71051e-20 -0.0377819 0.000851964 2.95228e-06
-2.71051e-20 0.0377819 0.000851941 4.5956e-08
0 0.0377837 0.0014916 1.39375e-08
2.71051e-20 -0.0377837 0.00149162 8.23938e-07
0 -0.03766 0.00362143 6.11025e-06
0 0.0376601 0.00362145 1.14676e-07
0 0.0377819 0.00216984 7.34823e-09
0 -0.0377819 0.00216984 6.68939e-07
0 0.0377772 0.00279747 1.32119e-08
0 -0.0377773 0.00279747 1.07997e-06
-1.35525e-20 -0.0378849 1.07515e-11 1.56026e-05
4.06576e-20 0.0378849 1.07501e-11 3.20624e-07
-6.77626e-21 0.0377229 0.00353539 1.16328e-07
0 -0.0377229 0.00353515 6.26593e-06
1.12938e-21 -0.0377798 0.00335648 5.74961e-06
5.64689e-21 0.0377798 0.00335651 1.01226e-07
6.77626e-21 0.0377787 0.00364282 1.23367e-07
0 -0.0377788 0.00364285 6.25004e-06
-2.71051e-20 -0.0380777 7.23339e-12 1.57972e-05
0 0.0380777 7.23213e-12 3.83592e-07
-4.51751e-21 -0.0380891 0.000630768 7.52641e-06
0 0.0380891 0.000630766 1.33097e-07
-4.51751e-21 -0.0380959 0.00115845 1.97852e-06
0 0.0380959 0.00115844 3.19481e-08
7.90564e-21 0.0380968 0.00183414 1.16994e-08
9.03502e-21 -0.0380968 0.00183414 7.82212e-07
0 -0.0379953 0.00368205 6.14718e-06
2.71051e-20 0.0379953 0.00368205 1.31128e-07
0 0.0380943 0.00250914 1.20716e-08
2.25875e-21 -0.0380943 0.00250913 9.42784e-07
0 0.0380786 0.00304222 4.99156e-08
0 -0.0380786 0.00304218 3.07246e-06
1.35525e-20 -0.0382651 6.08614e-12 1.61499e-05
-2.71051e-20 0.0382652 6.08489e-12 3.86198e-07
0 -0.0381487 0.00370985 6.92217e-06
6.77626e-21 0.0381488 0.00370987 1.53573e-07
6.77626e-21 -0.0383423 0.000233977 1.53916e-05
0 0.0383424 0.000233978 3.67452e-07
-2.71051e-20 -0.0384028 0.00084336 3.03826e-06
2.71051e-20 0.0384028 0.000843355 5.16434e-08
0 0.03841 0.00148269 1.65136e-08
5.42101e-20 -0.03841 0.0014827 9.5381e-07
2.71051e-20 0.0384072 0.00217157 9.18506e-09
0 -0.0384072 0.00217157 6.81859e-07
-3.16226e-21 0.0383454 0.00341258 1.38429e-07
1.807e-21 -0.0383454 0.00341256 6.72092e-06
0 -0.0385068 3.26132e-12 1.65333e-05
-1.35525e-20 0.0385068 3.26128e-12 4.11331e-07
2.71051e-20 0.0384087 0.00283772 1.84586e-08
0 -0.0384087 0.0028377 1.30567e-06
1.35525e-20 0.0383426 0.00374466 1.58671e-07
2.03288e-20 -0.0383427 0.00374468 7.11146e-06
1.35525e-20 -0.0384724 0.00376815 6.67057e-06
1.35525e-20 0.0384725 0.00376815 1.46784e-07
0 -0.038689 2.10775e-12 1.68456e-05
0 0.038689 2.10772e-12 4.40637e-07
-4.51751e-21 -0.0387011 0.000532416 1.05008e-05
1.12938e-20 0.0387011 0.000532409 2.27688e-07
-2.25875e-21 -0.0387193 0.00114095 2.19836e-06
5.64689e-21 0.0387193 0.00114095 3.64833e-08
0 -0.0387248 0.0018202 8.08911e-07
-3.38813e-21 0.0387248 0.00182019 1.36595e-08
-5.64689e-21 0.0387232 0.00251582 1.26322e-08
-1.12938e-21 -0.0387232 0.00251581 9.3136e-07
-2.71051e-20 0.0386563 0.00380883 1.35485e-07
-1.35525e-20 -0.0386564 0.00380883 6.78892e-06
1.35525e-20 -0.0388555 1.85419e-12 1.72739e-05
0 0.0388556 1.85403e-12 3.79239e-07
-1.35525e-20 0.0386904 0.00364444 1.29527e-07
0 -0.0386905 0.0036444 6.64655e-06
1.12938e-21 0.0387735 0.00324347 6.65913e-08
-1.69407e-21 -0.0387735 0.00324347 3.81139e-06
-8.13152e-21 -0.0389089 0.000183069 1.73457e-05
-1.0842e-20 0.038909 0.000183082 3.83522e-07
2.71051e-20 -0.0390203 0.000818137 3.72279e-06
2.71051e-20 0.0390203 0.000818137 5.86401e-08
1.35525e-20 0.0388759 0.00384263 1.15094e-07
2.71051e-20 -0.0388759 0.00384264 5.6781e-06
0 -0.0390392 0.00145468 9.31441e-07
0 0.0390393 0.00145468 1.88915e-08
0 0.0390375 0.00215229 1.02616e-08
0 -0.0390375 0.00215229 6.68726e-07
3.38813e-21 -0.0389282 0.00385221 5.54738e-06
0 0.0389282 0.00385223 1.12901e-07
-3.38813e-21 -0.038953 0.00379144 5.50523e-06
3.38813e-21 0.0389531 0.00379134 1.111e-07
-2.71051e-20 0.0390404 0.00284543 1.24692e-08
0 -0.0390404 0.00284542 1.0381e-06
0 -0.0391597 9.05541e-13 1.67036e-05
0 0.0391598 9.0537e-13 4.41877e-07
1.35525e-20 -0.0391706 0.00011479 1.66621e-05
0 0.0391707 0.000114814 4.4274e-07
0 0.0391098 0.0036138 9.75273e-08
-4.51751e-21 -0.0391098 0.00361378 5.02478e-06
0 -0.0393055 6.51231e-13 1.59105e-05
-1.35525e-20 0.0393056 6.50934e-13 5.052e-07
1.12938e-21 -0.0393117 0.000500471 9.87654e-06
2.25875e-21 0.0393118 0.000500466 2.9133e-07
-1.12938e-21 -0.0393491 0.00108814 2.28164e-06
2.25875e-21 0.0393492 0.00108814 4.6641e-08
1.12938e-21 -0.0393637 0.00177668 9.17365e-07
2.25875e-21 0.0393637 0.00177668 1.73068e-08
1.35525e-20 -0.0394217 8.75992e-05 1.51095e-05
0 0.0394218 8.76205e-05 5.57958e-07
-1.35525e-20 -0.0394265 6.04603e-13 1.51364e-05
-1.35525e-20 0.0394267 6.044e-13 5.54806e-07
3.38813e-21 -0.0393554 0.00250019 8.67724e-07
6.77626e-21 0.0393554 0.0025002 1.25003e-08
1.69407e-21 -0.0392485 0.0039119 5.05098e-06
-8.47033e-22 0.039249 0.00391199 1.14208e-07
-3.16226e-21 0.0393554 0.00323491 5.06434e-08
-4.51751e-22 -0.0393554 0.0032349 2.88506e-06
0 -0.03933 0.00392844 4.88381e-06
0 0.03933 0.00392844 1.13441e-07
0 -0.0393346 0.0039231 4.88856e-06
0 0.0393346 0.00392312 1.13566e-07
-1.69407e-21 -0.0393412 0.00393112 4.91738e-06
0 0.0393412 0.00393111 1.14701e-07
0 -0.0393435 0.00390963 4.83929e-06
0 0.0393435 0.00390973 1.12152e-07
1.69407e-21 0.039353 0.00392505 1.14134e-07
0 -0.0393531 0.00392504 4.88542e-06
1.69407e-21 0.0393594 0.00393583 1.14348e-07
0 -0.0393595 0.00393586 4.87394e-06
-2.71051e-20 -0.0396051 0.000230853 1.42004e-05
-2.71051e-20 0.0396052 0.000230855 6.03812e-07
-2.71051e-20 -0.0396385 0.000745418 2.90516e-06
0 0.0396385 0.000745416 8.08682e-08
0 -0.0396943 0.00136798 1.35856e-06
2.71051e-20 0.0396943 0.00136799 2.70936e-08
2.71051e-20 0.0396773 0.00211516 1.36553e-08
0 -0.0396773 0.00211516 7.34665e-07
1.16165e-20 -0.0395841 0.00366052 4.6114e-06
-7.7443e-21 0.0395841 0.00366052 1.10868e-07
2.71051e-20 0.0396652 0.00283591 1.33725e-08
5.42101e-20 -0.0396652 0.0028359 1.00793e-06
-6.02335e-21 -0.0398974 0.000433621 1.19457e-05
-1.50584e-21 0.0398975 0.000433615 3.41249e-07
-1.35525e-20 -0.0397727 0.00404312 5.00004e-06
-1.35525e-20 0.0397728 0.00404312 1.35563e-07
-1.35525e-20 -0.0398264 0.00397879 5.13099e-06
0 0.0398264 0.0039788 1.39273e-07
1.05879e-22 -0.0400317 5.26959e-07 1.71319e-05
1.05879e-22 0.0400329 3.79511e-07 4.49062e-07
4.51751e-21 -0.0400248 0.000878079 7.45116e-06
2.44698e-21 0.0400249 0.000878071 1.26782e-07
-1.8823e-22 -0.0400178 0.0017144 1.26058e-06
2.35287e-22 0.0400178 0.0017144 2.48875e-08
-2.25875e-21 0.0399831 0.00248337 1.52621e-08
-2.25875e-21 -0.0399831 0.00248337 9.4637e-07
-6.77626e-21 0.0399582 0.00322784 5.78619e-08
0 -0.0399582 0.00322782 2.87558e-06
3.38813e-21 0.0399279 0.00368209 1.16199e-07
3.38813e-21 -0.0399279 0.00368208 4.52842e-06
1.35525e-20 0.0399097 0.0040785 1.45984e-07
0 -0.0399097 0.0040785 5.35955e-06
0 0.0400592 0.00398574 1.5094e-07
0 -0.0400592 0.00398573 5.32517e-06
0 -0.0403283 0.00130607 1.61986e-06
0 0.0403283 0.00130608 3.43202e-08
0 -0.0403037 0.00209241 8.53381e-07
0 0.0403037 0.00209241 1.73372e-08
0 0.0402835 0.00284207 1.61409e-08
0 -0.0402835 0.00284206 1.15659e-06
1.50584e-21 -0.0403926 0.000332763 2.23741e-05
-1.50584e-21 0.0403926 0.000332742 3.60822e-07
1.35525e-20 0.0402359 0.00359474 1.11517e-07
-1.35525e-20 -0.0402359 0.00359473 4.28643e-06
8.47033e-22 -0.0402066 0.00415491 5.21222e-06
0 0.0402066 0.00415492 1.55416e-07
0 -0.0402147 0.0041461 5.21153e-06
-6.77626e-21 0.0402147 0.00414611 1.55689e-07
1.69407e-21 0.040223 0.00415913 1.57064e-07
0 -0.040223 0.00415913 5.27649e-06
1.35525e-20 0.0403025 0.00393731 1.6065e-07
0 -0.0403025 0.00393731 5.67873e-06
1.35525e-20 0.0405607 2.46968e-14 3.90586e-07
0 -0.0405607 2.44752e-14 2.30535e-05
0 0.0406279 0.00170818 2.84416e-08
1.35525e-21 -0.0406279 0.00170819 1.35015e-06
0 -0.0406701 0.000834219 1.27113e-05
-4.51751e-21 0.0406701 0.00083421 1.55225e-07
0 -0.0406057 0.00247168 9.83764e-07
3.38813e-21 0.0406057 0.00247169 1.65107e-08
-2.25875e-21 0.0405666 0.00323479 5.04197e-08
2.25875e-21 -0.0405666 0.00323478 2.68657e-06
0 -0.0407119 1.90384e-14 2.37791e-05
-1.35525e-20 0.040712 1.91278e-14 3.8666e-07
-1.35525e-20 0.0404944 0.00422897 1.81381e-07
1.35525e-20 -0.0404944 0.00422897 6.79343e-06
1.35525e-21 -0.0405858 0.00374196 4.86475e-06
2.25875e-21 0.0405858 0.00374196 1.17891e-07
0 -0.0406597 0.00427138 7.50737e-06