# k  POINT_DATA 26828
# x  y  z  k
0.0106418 -1.35525e-20 6.54156e-08 2.9968e-08
-0.0106418 1.35525e-20 6.54156e-08 9.56853e-07
-0.0106418 1.69407e-21 0.000314268 1.07359e-06
0.0106418 -5.0822e-21 0.000314344 3.28519e-08
-0.0106418 1.69407e-21 0.000346265 1.09248e-06
0.0106418 6.77626e-21 0.000346349 3.2688e-08
-0.0106418 1.35525e-20 0.000664313 1.33713e-06
0.0106418 2.71051e-20 0.000664474 2.84681e-08
0.0106696 -1.69407e-21 0.000329749 3.28166e-08
-0.0106696 0 0.000329666 1.07829e-06
-0.0106418 0 0.000994725 1.94942e-06
0.0106418 -1.86347e-20 0.000994893 3.06089e-08
-0.0106418 0 0.00102871 1.96397e-06
0.0106418 0 0.00102888 3.05004e-08
-0.0106651 0 0.00100861 1.97938e-06
0.0106651 -6.77626e-21 0.00100878 3.06299e-08
-0.0106418 0 0.00135928 1.62517e-06
0.0106418 0 0.00135945 2.79204e-08
-0.0106418 0 0.00170832 1.78491e-06
0.0106418 -8.47033e-21 0.00170841 3.36442e-08
-0.0106418 0 0.00174301 1.78564e-06
0.0106418 0 0.00174309 3.39345e-08
-0.0106634 1.69407e-21 0.0017166 1.79107e-06
0.0106634 -1.35525e-20 0.00171669 3.39347e-08
0.0106417 0 0.002087 3.4885e-08
-0.0106417 0 0.002087 1.68379e-06
0.0108523 -4.06576e-20 6.90498e-08 3.10338e-08
-0.0108523 -2.71051e-20 6.90496e-08 1.0402e-06
-0.0108538 -4.51751e-21 0.000983453 1.81283e-06
0.0108538 -4.51751e-21 0.000983665 2.93688e-08
-0.0109302 1.12938e-21 0.000328472 1.23266e-06
0.0109302 -1.01644e-20 0.000328579 4.33409e-08
-0.010876 6.77626e-21 0.00165245 1.66362e-06
0.010876 -4.51751e-21 0.0016526 3.22212e-08
-0.0110233 0 5.24962e-08 1.48513e-06
0.0110233 -6.77626e-21 5.24948e-08 6.47248e-08
-0.0108444 6.77626e-21 0.00218791 2.03953e-06
0.0108444 -1.35525e-20 0.00218792 4.4978e-08
-0.010932 -6.77626e-21 0.00223158 2.1421e-06
0.0109321 0 0.0022316 4.85472e-08
-0.0109511 -1.35525e-20 0.00214941 2.09421e-06
0.0109511 -6.77626e-21 0.00214943 4.66317e-08
-0.0111742 -1.35525e-20 4.6956e-08 2.11839e-06
0.0111742 0 4.69546e-08 1.28792e-07
-0.0111378 2.25875e-21 0.00125156 1.10851e-06
0.0111378 9.03502e-21 0.00125179 2.36261e-08
-0.0111894 2.25875e-21 0.000675217 1.74257e-06
0.0111894 -1.12938e-21 0.000675418 8.0967e-08
0.0112788 0 0.000114353 1.70252e-07
-0.0112788 0 0.000114331 2.62366e-06
0.0112885 -1.35525e-20 3.37062e-08 1.73581e-07
-0.0112886 1.35525e-20 3.37058e-08 2.65468e-06
-0.0111945 -6.77626e-21 0.00167213 9.95072e-07
0.0111945 0 0.00167231 2.21899e-08
-0.011163 -1.12938e-21 0.00198697 1.88629e-06
0.011163 6.77626e-21 0.00198706 4.23582e-08
-0.011131 0 0.00233069 2.24553e-06
0.0111311 -2.71051e-20 0.00233071 5.38804e-08
0.0114369 0 0.000317029 2.22571e-07
-0.0114369 2.71051e-20 0.000316923 3.38447e-06
-0.011421 0 0.000929721 5.22979e-07
0.011421 0 0.000929939 2.44881e-08
-0.0114038 0 0.0015068 3.23037e-07
0.0114039 -2.71051e-20 0.00150698 9.34262e-09
-0.0113457 -6.77626e-21 0.00243757 2.58885e-06
0.0113458 -6.77626e-21 0.00243761 6.95297e-08
0.0116363 -1.35525e-20 1.34764e-08 2.53464e-07
-0.0116364 0 1.34773e-08 4.03003e-06
0.0116375 -1.35525e-20 9.54413e-05 2.52821e-07
-0.0116375 1.35525e-20 9.54289e-05 4.0409e-06
-0.0114304 6.77626e-21 0.00247976 2.60988e-06
0.0114304 6.77626e-21 0.00247975 7.10595e-08
-0.0115075 -7.90564e-21 0.00225285 2.35847e-06
0.0115075 1.12938e-21 0.00225289 6.29207e-08
0.01173 0 3.26074e-09 2.48365e-07
-0.0117301 0 3.25931e-09 4.3207e-06
-0.0117195 -2.25875e-21 0.000610218 2.52314e-06
0.0117195 2.25875e-21 0.000610384 1.4803e-07
-0.0117028 6.77626e-21 0.00122422 4.76151e-07
0.0117029 -4.51751e-21 0.00122442 2.11168e-08
0.0118194 0 8.96942e-05 2.69042e-07
-0.0118195 1.35525e-20 8.96941e-05 4.60884e-06
0.0118199 -1.35525e-20 3.03241e-09 2.69413e-07
-0.01182 1.35525e-20 3.03105e-09 4.6142e-06
-0.0116772 -2.25875e-21 0.0018372 9.47096e-07
0.0116772 2.25875e-21 0.00183732 2.42849e-08
-0.0116033 0 0.0025659 2.4009e-06
0.0116034 0 0.00256591 6.61522e-08
0.0120204 0 0.000307092 3.0258e-07
-0.0120205 0 0.000307025 5.31977e-06
-0.0117486 -1.35525e-20 0.00263818 2.49929e-06
0.0117487 1.35525e-20 0.00263823 7.34804e-08
-0.0120156 -2.71051e-20 0.000916995 7.82597e-07
0.0120156 0 0.000917127 4.12669e-08
-0.0118319 -3.01167e-21 0.00229967 1.89043e-06
0.011832 -7.52918e-21 0.00229972 5.22824e-08
-0.0117787 0 0.00256194 2.48598e-06
0.0117789 0 0.00256195 7.24227e-08
-0.0119887 -2.71051e-20 0.00155402 2.84127e-07
0.0119887 0 0.00155414 1.01201e-08
-0.012032 -5.42101e-20 0.00210266 6.24422e-07
0.0120321 0 0.00210273 1.56694e-08
0.0122392 1.35525e-20 1.95038e-09 3.2046e-07
-0.0122392 1.35525e-20 1.9503e-09 5.7796e-06
0.0122409 0 8.16586e-05 3.20392e-07
-0.012241 -1.35525e-20 8.16739e-05 5.78087e-06
-0.0119871 2.71051e-20 0.00253932 2.42286e-06
0.0119872 0 0.00253936 7.27488e-08
0.012321 0 1.7426e-09 3.18566e-07
-0.0123211 -1.35525e-20 1.74255e-09 5.94883e-06
-0.0120125 0 0.00276933 2.82725e-06
0.0120125 0 0.00276934 1.01119e-07
-0.0123328 -6.77626e-21 0.000603507 3.454e-06
0.0123328 4.51751e-21 0.000603593 1.85608e-07
-0.0120726 -2.71051e-20 0.00270723 2.85076e-06
0.0120726 0 0.00270723 1.03169e-07
-0.0123288 4.51751e-21 0.00123238 5.85452e-07
0.0123288 0 0.00123249 2.95467e-08
0.0124027 -1.35525e-20 1.58622e-09 3.22633e-07
-0.0124028 0 1.58612e-09 6.12372e-06
0.012405 1.35525e-20 7.77801e-05 3.22559e-07
-0.0124051 0 7.78041e-05 6.12103e-06
-0.0123347 -1.12938e-21 0.00185416 4.32112e-07
0.0123347 -5.64689e-21 0.00185424 1.62212e-08
-0.0121506 -1.35525e-20 0.00283805 3.05798e-06
0.0121507 -1.35525e-20 0.00283809 1.22186e-07
-0.0123065 0 0.0024016 1.88971e-06
0.0123065 1.12938e-21 0.00240165 7.33407e-08
-0.0122685 0 0.00289771 3.63139e-06
0.0122687 -2.71051e-20 0.00289778 1.62995e-07
-0.0123168 1.35525e-20 0.00277206 3.50237e-06
0.012317 0 0.00277207 1.53445e-07
0.0126427 -2.71051e-20 0.000300463 3.41778e-07
-0.0126427 0 0.00030044 6.60176e-06
-0.0126591 0 0.000913397 9.84148e-07
0.0126591 2.71051e-20 0.000913462 5.09696e-08
-0.0126619 2.71051e-20 0.00155273 2.82348e-07
0.0126619 2.71051e-20 0.00155279 1.545e-08
-0.0125265 0 0.00271714 3.82147e-06
0.0125266 0 0.00271717 1.7639e-07
0.012467 1.35525e-20 0.00299777 1.87565e-07
-0.012467 0 0.0029978 3.78884e-06
-0.0126644 2.71051e-20 0.00218642 5.22899e-07
0.0126645 5.42101e-20 0.00218646 2.39884e-08
-0.0128706 6.77626e-21 4.59712e-10 6.86895e-06
0.0128706 0 4.5966e-10 3.58557e-07
-0.0128741 -6.77626e-21 6.76228e-05 6.86904e-06
0.0128742 0 6.7603e-05 3.5861e-07
-0.0125737 1.35525e-20 0.00289896 3.70319e-06
0.0125738 1.35525e-20 0.00289883 1.84982e-07
0.0129417 0 3.22157e-10 3.63775e-07
-0.0129417 -1.35525e-20 3.22157e-10 6.94217e-06
-0.0126 0 0.00306523 3.46595e-06
0.0126002 2.71051e-20 0.00306527 1.82264e-07
-0.0129729 -1.12938e-21 0.00059327 4.02939e-06
0.0129729 -2.25875e-21 0.000593302 2.10811e-07
0.0130096 6.77626e-21 3.00396e-10 3.65501e-07
-0.0130097 6.77626e-21 3.00386e-10 7.02132e-06
0.0130125 1.35525e-20 6.19132e-05 3.65472e-07
-0.0130126 6.77626e-21 6.19358e-05 7.01935e-06
-0.0129929 -4.51751e-21 0.00122118 6.76473e-07
0.0129929 -3.38813e-21 0.00122122 3.70363e-08
-0.0127134 1.35525e-20 0.00312239 3.30276e-06
0.0127137 1.35525e-20 0.00312249 1.95805e-07
-0.01275 0 0.00301608 3.31319e-06
0.0127503 0 0.00301608 1.92549e-07
-0.0129974 2.25875e-21 0.0018788 3.71906e-07
0.0129974 -4.51751e-21 0.00187883 2.00331e-08
-0.0129624 2.71051e-21 0.00258482 1.81784e-06
0.0129624 9.03502e-22 0.00258484 9.60453e-08
-0.0129341 0 0.00296493 3.14366e-06
0.0129342 0 0.00296496 1.93207e-07
0.0132745 2.71051e-20 0.0002907 3.83045e-07
-0.0132746 -2.71051e-20 0.000290689 7.28664e-06
-0.0133098 0 0.000892095 1.10495e-06
0.0133098 0 0.000892117 5.95237e-08
-0.012963 -1.35525e-20 0.00324868 2.91246e-06
0.012963 6.77626e-21 0.00324866 1.94878e-07
-0.013014 0 0.00319464 2.87608e-06
0.013014 0 0.00319458 1.92695e-07
-0.0133312 0 0.00153426 3.22219e-07
0.0133312 0 0.00153429 2.15154e-08
-0.0130336 -1.35525e-20 0.0032843 2.73926e-06
0.0130336 -1.35525e-20 0.00328432 1.85242e-07
-0.0133255 0 0.00221292 3.58396e-07
0.0133255 2.71051e-20 0.00221294 1.92797e-08
-0.0130971 -1.35525e-20 0.00331613 2.65964e-06
0.0130973 0 0.00331619 1.90661e-07
-0.0131128 -1.35525e-20 0.00327471 2.66796e-06
0.013113 -1.35525e-20 0.00327473 1.89888e-07
-0.0135215 6.77626e-21 4.3748e-11 7.28493e-06
0.0135215 0 4.37385e-11 4.32962e-07
-0.013525 6.77626e-21 4.46932e-05 7.28423e-06
0.013525 0 4.46658e-05 4.33124e-07
-0.0132202 -7.52918e-22 0.00300115 2.10571e-06
0.0132202 1.50584e-21 0.00300118 1.40136e-07
0.0135708 0 2.74197e-11 4.44554e-07
-0.0135708 0 2.74177e-11 7.28161e-06
0.0136155 0 2.60842e-11 4.46467e-07
-0.0136156 0 2.60813e-11 7.28251e-06
0.0136174 0 3.86608e-05 4.46433e-07
-0.0136174 -6.77626e-21 3.8686e-05 7.28187e-06
0.0136131 0 0.000567022 2.5766e-07
-0.0136131 2.25875e-21 0.000567013 4.26855e-06
-0.0133844 0 0.00278358 7.94926e-07
0.0133844 2.71051e-20 0.0027836 4.34076e-08
-0.0136536 -1.12938e-21 0.00118311 7.6455e-07
0.0136536 1.69407e-21 0.00118312 4.82743e-08
-0.013358 -5.42101e-20 0.00322889 2.33107e-06
0.0133581 0 0.00322892 1.83364e-07
-0.0136672 2.25875e-21 0.00185452 3.2311e-07
0.0136672 0 0.00185453 2.45288e-08
-0.0134205 0 0.00347805 2.60159e-06
0.0134205 0 0.00347806 2.61951e-07
-0.0134524 1.35525e-20 0.00343732 2.60868e-06
0.0134524 0 0.0034373 2.6411e-07
0.0139 5.42101e-20 0.000270261 4.98391e-07
-0.0139 -2.71051e-20 0.000270258 7.27094e-06
-0.0136757 -1.69407e-21 0.00251333 4.86165e-07
0.0136758 5.64689e-22 0.00251333 3.51954e-08
-0.0134923 0 0.00351398 2.66609e-06
0.0134924 0 0.00351402 2.86632e-07
0.0139532 0 0.000842552 7.70537e-08
-0.0139533 2.71051e-20 0.000842543 1.25317e-06
-0.0136464 3.38813e-21 0.00307167 1.70851e-06
0.0136464 -1.69407e-21 0.00307169 1.70654e-07
-0.0135604 6.77626e-21 0.00354803 2.88524e-06
0.0135605 0 0.00354808 3.41564e-07
-0.013594 -2.71051e-20 0.00346729 2.84164e-06
0.0135942 0 0.00346729 3.29629e-07
-0.0139955 5.42101e-20 0.00147861 3.61815e-07
0.0139955 0 0.00147861 3.39777e-08
-0.0139995 0 0.00216677 2.51899e-07
0.0139995 0 0.00216677 2.34294e-08
0.0141777 0 1.47672e-12 5.85141e-07
-0.0141778 0 1.47736e-12 7.0216e-06
0.0141788 0 1.24877e-05 5.85238e-07
-0.0141788 0 1.25188e-05 7.02119e-06
0.0141923 -1.69407e-21 1.02421e-12 5.91825e-07
-0.0141924 -1.69407e-21 1.02371e-12 7.0101e-06
0.0142041 1.69407e-21 9.46673e-06 5.98418e-07
-0.0142042 1.69407e-21 9.49024e-06 6.9939e-06
0.0142051 1.69407e-21 1.00933e-12 5.98439e-07
-0.0142052 1.69407e-21 1.0088e-12 6.9939e-06
0.0142399 6.21157e-22 0.000511 3.57988e-07
-0.01424 -2.25875e-22 0.000510993 4.57121e-06
-0.0138496 -2.71051e-20 0.00338143 3.05154e-06
0.0138496 -2.71051e-20 0.00338145 3.92437e-07
-0.0139916 -2.71051e-20 0.00283636 5.03756e-07
0.0139916 0 0.00283638 5.34363e-08
0.0138218 0 0.0036788 4.1342e-07
-0.0138218 0 0.0036788 2.95081e-06
0.0143091 2.82344e-22 0.00109617 8.29428e-08
-0.0143102 0 0.00109467 1.19389e-06
0.0143533 0 7.65942e-13 5.95883e-07
-0.0138932 1.35525e-20 0.003605 2.91031e-06
0.0138932 2.71051e-20 0.00360498 4.09294e-07
-0.0143537 1.69407e-21 7.6493e-13 8.00648e-06
-0.0139058 1.35525e-20 0.00372075 2.78433e-06
0.0139058 0 0.00372076 4.01717e-07
-0.0143406 1.69407e-21 0.0017773 3.55345e-07
0.0143406 -8.47033e-22 0.0017773 4.31228e-08
0.014476 0 0.000224596 6.79991e-07
-0.014476 0 0.000224595 6.74564e-06
-0.0139821 0 0.00376078 2.69787e-06
0.0139821 0 0.0037608 4.19006e-07
-0.0140113 1.35525e-20 0.00368378 2.70343e-06
0.0140114 0 0.00368378 4.14922e-07
-0.0143224 0 0.0024986 3.62372e-07
0.0143224 5.64689e-22 0.0024986 4.04442e-08
0.0145821 -5.42101e-20 0.000746673 1.28441e-07
-0.0145821 0 0.000746674 2.32615e-06
-0.014272 9.03502e-22 0.00323782 1.51693e-06
0.014272 1.12938e-21 0.00323783 2.09072e-07
-0.0142274 0 0.00361851 2.5223e-06
0.0142274 2.71051e-20 0.00361852 4.1379e-07
0.0146963 3.76459e-22 0.000425142 4.52748e-07
-0.0146963 -7.52918e-22 0.000425143 7.98052e-06
0.0146847 -2.71051e-20 0.00134649 7.64659e-08
-0.0146847 -5.42101e-20 0.00134648 5.61864e-07
0.0147679 6.77626e-21 2.54299e-05 6.08028e-07
-0.014768 6.77626e-21 2.54068e-05 1.03469e-05
0.0147705 0 9.11081e-14 6.08018e-07
-0.0147705 -6.77626e-21 9.09544e-14 1.03401e-05
0.0148059 -6.77626e-21 6.68338e-15 6.04133e-07
-0.0148059 0 6.6647e-15 1.07702e-05
0.014659 5.42101e-20 0.00210817 4.04047e-08
-0.014659 -2.71051e-20 0.00210817 2.59034e-07
0.0142867 0 0.00391566 4.03608e-07
-0.0142867 0 0.00391568 2.33681e-06
0.0143137 6.77626e-21 0.00388599 4.01014e-07
-0.0143137 6.77626e-21 0.00388604 2.32386e-06
-0.0148347 6.77626e-21 4.55241e-05 1.13709e-05
0.0148347 -6.77626e-21 4.55572e-05 5.95032e-07
-0.0148462 6.77626e-21 5.73722e-15 1.13872e-05
0.0148462 0 5.75032e-15 5.94614e-07
0.0143218 6.77626e-21 0.00393378 3.90647e-07
-0.0143218 -6.77626e-21 0.00393377 2.27466e-06
-0.014352 6.77626e-21 0.00395515 2.23437e-06
0.014352 0 0.00395518 3.89605e-07
-0.0143641 0 0.00393216 2.23874e-06
0.0143642 0 0.00393215 3.89613e-07
-0.0146351 2.71051e-20 0.00283847 4.28077e-07
0.0146351 -2.71051e-20 0.00283847 4.45679e-08
0.0144996 0 0.0036695 2.94095e-07
-0.0144996 0 0.0036695 1.78263e-06
0.0145103 0 0.00366655 2.89052e-07
-0.0145087 -8.47033e-22 0.0036755 1.75513e-06
0.0150122 -2.71051e-20 0.00033015 5.34029e-07
-0.0150123 0 0.000330154 1.46173e-05
-0.0145871 -8.47033e-22 0.00370013 1.77819e-06
0.0145874 8.47033e-22 0.00370026 2.91068e-07
-0.0146767 -2.71051e-20 0.00345539 7.3941e-07
0.0146767 0 0.00345539 8.91913e-08
-0.0150078 4.51751e-22 0.00170826 6.69786e-07
0.0150078 1.12938e-22 0.00170826 1.006e-07
0.0150925 -1.807e-21 0.000854675 4.57928e-07
-0.0150925 -1.807e-21 0.000854681 7.90607e-06
0.0146273 2.71051e-20 0.00391102 3.69758e-07
-0.0146273 -2.71051e-20 0.00391104 2.01484e-06
-0.0149891 -4.51751e-22 0.00242101 4.29598e-07
0.0149891 -7.90564e-22 0.00242101 5.91974e-08
-0.0149587 -2.82344e-22 0.00315968 6.98903e-07
0.0149587 -1.69407e-21 0.00315968 7.81319e-08
0.0147021 6.77626e-21 0.00420296 4.57233e-07
-0.0147022 0 0.00420304 2.54981e-06
0.0152975 6.77626e-21 8.17497e-05 8.22668e-07
-0.0152975 0 8.17234e-05 1.66374e-05
0.0147325 0 0.00417583 4.59502e-07
-0.0147325 0 0.00417593 2.56705e-06
0.015314 0 2.17543e-15 8.19934e-07
-0.015314 6.77626e-21 2.16401e-15 1.66207e-05
0.0147476 0 0.00423512 4.73564e-07
-0.0147477 -1.35525e-20 0.00423519 2.67119e-06
0.0147781 -6.77626e-21 0.0042567 4.63725e-07
-0.0147782 0 0.00425676 2.65595e-06
0.0147931 0 0.00422599 4.64674e-07
-0.0147932 6.77626e-21 0.00422607 2.65864e-06
-0.0153882 0 1.37339e-16 1.68886e-05
0.0153882 0 1.36947e-16 9.00397e-07
-0.0154218 0 0.000114883 1.73932e-05
0.0154219 0 0.000114923 9.87857e-07
0.0149639 1.50584e-21 0.00384032 3.03711e-07
-0.0149639 9.41148e-22 0.00384035 1.90717e-06
-0.0154554 -6.77626e-21 2.28913e-16 1.7399e-05
0.0154555 0 2.27201e-16 9.90742e-07
0.0148469 -6.77626e-21 0.00430538 4.76188e-07
-0.014847 0 0.00430541 2.82294e-06
0.0154606 0 0.00140662 2.18618e-07
-0.0154606 0 0.00140663 1.27702e-06
-0.0152778 2.71051e-20 0.00281389 5.27951e-07
0.0152778 -2.71051e-20 0.00281389 5.47265e-08
0.0154333 0 0.00193357 1.21077e-07
-0.0154334 -2.71051e-20 0.00193357 5.9337e-07
0.0156222 0 0.000480035 1.37523e-06
-0.0156222 2.71051e-20 0.000480033 2.01337e-05
0.0152556 -2.71051e-20 0.00350081 7.99915e-08
-0.0152556 2.71051e-20 0.00350083 9.1699e-07
0.0150547 -6.77626e-21 0.00445243 5.45494e-07
-0.0150548 1.35525e-20 0.00445248 3.34727e-06
-0.0157277 -6.77626e-21 1.66304e-16 2.00732e-05
0.0157278 6.77626e-21 1.64963e-16 1.31872e-06
0.0151605 -2.82344e-22 0.00422314 5.44958e-07
-0.0151606 5.64689e-22 0.00422318 3.28151e-06
0.0156637 2.71051e-20 0.00166709 2.23249e-07
-0.0156638 -1.35525e-20 0.00166709 1.17202e-06
0.0156161 1.46819e-21 0.00242548 1.13825e-07
-0.0156161 1.58113e-21 0.00242548 7.8708e-07
0.0157781 -5.64689e-22 0.000921688 9.64414e-07
-0.0157781 -2.63521e-21 0.000921689 1.21971e-05
0.0155829 0 0.00315322 8.16362e-08
-0.0155829 1.12938e-21 0.00315322 1.00457e-06
0.0152442 6.77626e-21 0.00458652 5.65472e-07
-0.0152443 -1.35525e-20 0.00458661 4.03923e-06
0.0159534 0 3.82779e-05 1.61039e-06
-0.0159534 6.77626e-21 3.82942e-05 2.23264e-05
0.015843 2.71051e-20 0.00192286 1.99733e-07
-0.015843 -2.71051e-20 0.00192287 9.7893e-07
0.0159594 6.77626e-21 2.87967e-17 1.61087e-06
-0.0159594 0 2.85098e-17 2.23332e-05
0.0159064 0 0.00142306 3.57562e-07
-0.0159064 0 0.00142306 1.8577e-06
0.0155142 0 0.0038846 2.39553e-07
-0.0155143 -1.12938e-21 0.00388461 2.06025e-06
0.0153266 0 0.00464484 5.7335e-07
-0.0153267 0 0.00464492 4.28922e-06
0.01535 1.35525e-20 0.00461636 5.7704e-07
-0.0153501 0 0.00461645 4.31183e-06
0.0153665 0 0.00467311 6.1036e-07
-0.0153666 0 0.00467318 4.65994e-06
0.0160927 2.71051e-20 0.000505095 1.83342e-06
-0.0160927 -2.71051e-20 0.000505084 2.44427e-05
0.0154309 0 0.00471865 6.83186e-07
-0.015431 0 0.00471871 5.51921e-06
-0.0161373 1.35525e-20 9.1179e-18 2.41315e-05
0.0161375 0 9.37167e-18 1.74095e-06
0.0154621 1.35525e-20 0.00464665 6.67613e-07
-0.0154622 1.35525e-20 0.00464672 5.29779e-06
0.0155559 7.05861e-23 0.004333 4.44335e-07
-0.0155559 -1.41172e-22 0.00433301 3.62312e-06
0.015933 2.71051e-20 0.00276856 1.17101e-07
-0.015933 -5.42101e-20 0.00276856 1.05286e-06
0.015876 2.71051e-20 0.003495 7.72999e-08
-0.0158761 -2.71051e-20 0.003495 1.5106e-06
0.0163022 1.41172e-22 0.00169287 3.47648e-07
-0.0163022 -2.82344e-22 0.00169287 1.81829e-06
0.0158806 2.71051e-20 0.00413138 1.22586e-07
-0.0158806 0 0.00413139 2.16974e-06
0.0157465 0 0.00463069 7.09765e-07
-0.0157465 -2.71051e-20 0.00463071 6.1576e-06
-0.0156845 0 0.00489813 7.02682e-06
0.0156845 -1.35525e-20 0.00489813 7.46041e-07
-0.0164402 0 0.000192225 2.74906e-05
0.0164404 2.71051e-20 0.000191942 2.01965e-06
-0.0164598 0 2.18491e-18 2.74368e-05
0.01646 1.35525e-20 2.26278e-18 2.01667e-06
0.0163055 3.38813e-21 0.0022924 2.28963e-07
-0.0163055 -3.38813e-21 0.0022924 1.54322e-06
-0.0157621 0 0.00483924 6.99591e-06
0.0157621 0 0.00483928 7.37088e-07
0.0164587 6.77626e-21 0.00103728 1.27394e-06
-0.0164587 -6.77626e-21 0.00103727 1.59735e-05
0.0162201 1.12938e-22 0.00310508 1.38666e-07
-0.0162201 4.51751e-22 0.00310507 1.8165e-06
-0.0157673 -1.35525e-20 0.00495672 7.10796e-06
0.0157673 0 0.0049567 7.24263e-07
-0.0165551 -1.35525e-20 1.82789e-18 2.84475e-05
0.0165551 1.35525e-20 1.92031e-18 2.04834e-06
0.0158425 0 0.00500992 7.56342e-07
-0.0158425 0 0.00500996 7.5709e-06
0.0158774 -1.35525e-20 0.00492682 7.47429e-07
-0.0158774 0 0.00492681 7.45532e-06
0.0161859 -1.69407e-21 0.00381857 1.08567e-07
-0.0161859 -5.64689e-22 0.00381858 2.57512e-06
0.0166927 1.35525e-20 0.00010156 2.17553e-06
-0.016693 0 0.000101746 3.07249e-05
0.0166939 -1.35525e-20 -1.9608e-18 2.17546e-06
-0.0166942 -1.35525e-20 -2.00258e-18 3.07224e-05
0.0161388 0 0.00451634 3.8863e-07
-0.0161388 -2.25875e-21 0.00451636 5.06895e-06
-0.0165511 0 0.00276281 1.89497e-06
0.0165511 -5.42101e-20 0.00276281 2.12175e-07
0.0160804 0 0.00488846 7.42055e-07
-0.0160804 0 0.00488847 7.99042e-06
-0.0165195 -2.71051e-20 0.00345967 2.8394e-06
0.0165195 2.71051e-20 0.00345967 1.27378e-07
-0.0160928 6.77626e-21 0.00518707 9.18455e-06
0.0160929 6.77626e-21 0.00518708 7.51494e-07
-0.0161329 -6.77626e-21 0.00514907 9.23308e-06
0.0161329 6.77626e-21 0.0051491 7.45656e-07
0.0161377 6.77626e-21 0.0052188 7.25215e-07
-0.0161377 6.77626e-21 0.00521882 9.42781e-06
0.0164853 2.71051e-20 0.00415086 1.07846e-07
-0.0164853 0 0.00415087 3.80083e-06
0.0161812 6.77626e-21 0.00524954 7.2612e-07
-0.0161812 0 0.00524959 9.6552e-06
0.0162 0 0.00521528 7.25599e-07
-0.0162 6.77626e-21 0.0052153 9.62225e-06
0.0169483 0 0.00175217 4.77344e-07
-0.0169483 0 0.00175218 2.58576e-06
0.0168947 -1.41172e-22 0.00247213 3.25543e-07
-0.0168959 2.82344e-22 0.00247499 2.58402e-06
0.0170685 -1.0842e-19 0.00054239 2.50039e-06
-0.0170686 1.0842e-19 0.000542388 3.59403e-05
0.0163681 4.23516e-22 0.00495113 5.50281e-07
-0.0163681 7.05861e-22 0.00495117 8.19837e-06
0.0168537 2.82344e-22 0.00309993 2.35794e-07
-0.0168537 -5.64689e-22 0.00309993 3.06103e-06
0.0165271 -2.71051e-20 0.00473652 1.77731e-07
-0.0165271 2.71051e-20 0.00473653 4.6934e-06
0.0168198 1.69407e-21 0.00379491 1.58909e-07
-0.0168198 -5.64689e-22 0.00379491 4.38805e-06
0.0164532 0 0.00518912 7.1565e-07
-0.0164532 0 0.00518915 1.1018e-05
0.0164986 1.35525e-20 0.00547422 8.83527e-07
-0.0164987 -1.35525e-20 0.00547423 1.31752e-05
0.0168074 5.64689e-22 0.00445444 1.51633e-07
-0.0168075 -1.69407e-21 0.00445445 5.72871e-06
0.0165401 0 0.00543898 8.90706e-07
-0.0165402 0 0.00543895 1.33072e-05
0.0171982 -2.71051e-20 0.00274291 3.53242e-07
-0.0171982 0 0.00274291 3.14451e-06
0.0165561 0 0.00551492 9.28101e-07
-0.0165563 0 0.00551497 1.40868e-05
0.0171475 -2.71051e-20 0.00343444 2.49581e-07
-0.0171475 -2.71051e-20 0.00343445 4.34136e-06
0.0165953 0 0.0055426 9.07591e-07
-0.0165954 0 0.00554269 1.4234e-05
0.0166161 0 0.00550297 9.1015e-07
-0.0166163 0 0.00550301 1.42286e-05
-0.0168033 3.13716e-22 0.0051158 1.08445e-05
0.0168033 -3.13716e-22 0.00511579 5.9128e-07
0.0166836 -6.77626e-21 0.00560513 9.50442e-07
-0.0166839 6.77626e-21 0.00560526 1.53018e-05
0.0171381 0 0.00410855 1.52167e-07
-0.0171381 -5.42101e-20 0.00410855 6.53286e-06
0.0176356 0 5.15824e-05 2.82729e-06
-0.0176356 6.77626e-21 5.15782e-05 3.98948e-05
0.0176365 0 -8.77031e-19 2.82747e-06
-0.0176365 0 -8.88931e-19 3.98966e-05
0.0176257 1.12938e-21 0.00114318 1.79698e-06
-0.0176257 -1.12938e-21 0.00114318 2.22446e-05
0.017701 0 -1.21685e-20 2.87026e-06
-0.017701 -6.77626e-21 -1.22039e-20 4.02823e-05
-0.0177564 0 5.70417e-05 4.07117e-05
0.0177564 0 5.70455e-05 2.91037e-06
-0.0174948 -7.05861e-22 0.00304301 4.23757e-06
0.0174948 3.5293e-22 0.00304301 4.00648e-07
0.0171005 -2.71051e-20 0.0047873 1.66984e-07
-0.0171005 0 0.00478732 8.09616e-06
-0.01776 6.77626e-21 -1.01849e-20 4.07149e-05
0.01776 6.77626e-21 -1.01509e-20 2.9107e-06
-0.0176226 0 0.00231708 3.96577e-06
0.0176226 -2.82344e-22 0.00231708 5.62652e-07
0.0168649 6.77626e-21 0.00573339 1.08933e-06
-0.0168651 -2.03288e-20 0.00573345 1.68283e-05
0.0169917 0 0.00554745 1.11978e-06
-0.0169917 0 0.00554751 1.64948e-05
0.0175403 0 0.00368249 3.01431e-07
-0.0175404 0 0.0036825 6.63934e-06
0.0174309 -1.69407e-21 0.00445118 1.97594e-07
-0.0174309 0 0.00445119 8.97578e-06
0.0170276 1.35525e-20 0.00584853 1.14042e-06
-0.0170277 1.35525e-20 0.00584855 1.88319e-05
0.0173593 -5.64689e-21 0.00515918 4.72941e-07
-0.0173594 1.12938e-21 0.00515919 1.27578e-05
0.0171314 0 0.00592202 1.17329e-06
-0.0171315 0 0.00592208 2.02776e-05
0.0171627 1.35525e-20 0.00588617 1.18277e-06
-0.0171628 0 0.00588621 2.0273e-05
0.017182 0 0.0059579 1.27641e-06
-0.0171821 1.35525e-20 0.00595797 2.06909e-05
0.017769 0 0.00410416 3.03257e-07
-0.017769 -2.71051e-20 0.00410417 9.3908e-06
0.0182634 5.42101e-20 0.000578938 3.22544e-06
-0.0182635 0 0.000578947 4.45581e-05
0.0173971 2.82344e-22 0.00561051 9.16917e-07
-0.0173983 0 0.00561204 1.76133e-05
0.0172647 0 0.00601703 1.48329e-06
-0.0172648 1.35525e-20 0.00601711 2.31228e-05
0.0173075 0 0.00592612 1.43717e-06
-0.0173076 0 0.00592617 2.2474e-05
0.0182204 -1.0842e-19 0.00175681 8.95841e-07
-0.0182204 -1.0842e-19 0.0017568 4.57453e-06
0.0177285 -2.71051e-20 0.00478171 1.7129e-07
-0.0177285 -2.71051e-20 0.00478172 1.18427e-05
0.0181282 0 0.00306192 6.34553e-07
-0.0181282 0 0.00306192 6.05764e-06
0.0181211 2.82344e-22 0.00374048 4.86486e-07
-0.0181211 4.23516e-22 0.00374049 9.75616e-06
0.0177324 -2.71051e-20 0.00540773 2.364e-07
-0.0177324 -2.71051e-20 0.00540774 1.42589e-05
0.0174848 0 0.00617228 1.61888e-06
-0.0174849 0 0.00617231 2.51024e-05
0.0175758 0 0.00590988 1.5325e-06
-0.0175758 -2.71051e-20 0.00590991 2.41068e-05
0.0180729 -5.64689e-22 0.00442474 3.37329e-07
-0.0180729 5.64689e-22 0.00442474 1.2497e-05
0.0175825 0 0.00610033 1.59473e-06
-0.0175826 0 0.00610035 2.47788e-05
0.0175873 1.35525e-20 0.00624642 1.58498e-06
-0.0175873 -1.35525e-20 0.00624645 2.46053e-05
0.018047 -2.25875e-21 0.00508938 2.45262e-07
-0.018047 -1.12938e-21 0.00508939 1.60311e-05
0.017673 0 0.00632952 1.69035e-06
-0.017673 0 0.00632955 2.51359e-05
0.0177234 1.35525e-20 0.00621991 1.65144e-06
-0.0177235 -1.35525e-20 0.00621994 2.4804e-05
-0.0188362 0 3.90757e-05 4.6253e-05
0.0188362 -6.77626e-21 3.90717e-05 3.39932e-06
-0.0188376 0 -1.40468e-21 4.62493e-05
0.0188376 0 -1.40183e-21 3.39904e-06
0.0184191 0 0.00406131 5.22979e-07
-0.0184191 2.71051e-20 0.00406131 1.19475e-05
0.0188782 -6.77626e-21 -3.17074e-23 3.41383e-06
-0.0188782 -6.77626e-21 -3.33105e-23 4.64175e-05
0.0188457 5.64689e-22 0.00115779 2.2752e-06
-0.0188458 1.69407e-21 0.00115779 2.66329e-05
0.017989 -9.03502e-22 0.0057961 8.1421e-07
-0.017989 -4.96926e-21 0.00579612 2.16186e-05
0.0189173 -6.77626e-21 3.90264e-05 3.42861e-06
-0.0189173 0 3.90289e-05 4.66291e-05
0.0189184 0 -3.96181e-23 3.42867e-06
-0.0189184 0 -4.1135e-23 4.66299e-05
0.0188016 2.82344e-22 0.00239367 1.05558e-06
-0.0188016 -8.47033e-22 0.00239367 7.65104e-06
0.0179168 0 0.00619825 1.64711e-06
-0.0179168 2.71051e-20 0.00619827 2.47744e-05
0.0178342 -1.35525e-20 0.00647801 1.68796e-06
-0.0178343 1.35525e-20 0.00647804 2.508e-05
0.0183812 0 0.00473969 3.51864e-07
-0.0183812 0 0.0047397 1.6713e-05
0.0179161 0 0.00640623 1.65074e-06
-0.0179162 -1.35525e-20 0.00640625 2.47552e-05
0.0179071 0 0.00654731 1.50543e-06
-0.0179072 0 0.00654734 2.37541e-05
0.0187899 0 0.00359346 8.16171e-07
-0.0187899 0 0.00359346 1.16174e-05
0.0183614 2.71051e-20 0.0054084 2.28197e-07
-0.0183614 -2.71051e-20 0.00540841 2.13937e-05
0.0179797 0 0.00661793 1.61396e-06
-0.0179798 -2.71051e-20 0.00661795 2.47048e-05
0.0180436 0 0.00652843 1.59199e-06
-0.0180436 0 0.00652846 2.44538e-05
0.0187173 4.23516e-22 0.00436434 5.90265e-07
-0.0187173 8.47033e-22 0.00436435 1.50386e-05
0.018177 -1.50584e-21 0.00625306 1.16844e-06
-0.0181771 1.50584e-21 0.00625307 2.39317e-05
0.0181271 -2.71051e-20 0.00676141 1.60223e-06
-0.0181271 1.35525e-20 0.00676144 2.49598e-05
0.0183874 -2.71051e-20 0.00602483 2.89679e-07
-0.0183874 0 0.00602484 2.34804e-05
0.0182482 0 0.0065139 1.5277e-06
-0.0182482 2.71051e-20 0.00651392 2.37714e-05
0.0187359 5.64689e-22 0.00501818 4.40204e-07
-0.0187359 9.88205e-22 0.00501818 2.04104e-05
0.0182333 -1.35525e-20 0.00669842 1.57527e-06
-0.0182333 0 0.00669844 2.47469e-05
0.0182171 0 0.00684895 1.55004e-06
-0.0182171 1.35525e-20 0.00684896 2.50502e-05
0.0194643 0 0.000581958 3.6054e-06
-0.0194644 0 0.000581954 4.83636e-05
0.0194401 0 0.00177497 1.32689e-06
-0.0194401 -5.42101e-20 0.00177497 8.20704e-06
0.0186825 2.25875e-21 0.00571617 3.03658e-07
-0.0186825 2.25875e-21 0.00571618 2.4753e-05
0.018308 0 0.00693721 1.66077e-06
-0.018308 0 0.00693723 2.65593e-05
0.018365 1.35525e-20 0.0068251 1.6206e-06
-0.018365 0 0.00682512 2.60018e-05
-0.0191534 0 0.00414674 1.55205e-05
0.0191534 -2.71051e-20 0.00414674 9.0673e-07
-0.0194225 5.42101e-20 0.00303969 1.17254e-05
0.0194225 0 0.00303969 1.34604e-06
0.01915 5.42101e-20 0.0045832 7.6266e-07
-0.01915 -2.71051e-20 0.0045832 1.94321e-05
0.0186305 2.71051e-21 0.00640892 8.23676e-07
-0.0186305 1.807e-21 0.00640893 2.67024e-05
-0.0193894 -3.02814e-20 0.00369516 1.57713e-05
0.0193894 0 0.00369516 1.1729e-06
0.0185455 2.71051e-20 0.00680227 1.60417e-06
-0.0185455 0 0.00680229 2.62457e-05
0.019012 -2.71051e-20 0.00537772 4.40712e-07
-0.019012 -2.71051e-20 0.00537773 2.46311e-05
0.0184497 -2.71051e-20 0.00707478 1.6585e-06
-0.0184497 1.35525e-20 0.0070748 2.65913e-05
0.018538 1.35525e-20 0.00700334 1.62026e-06
-0.018538 0 0.00700336 2.60761e-05
0.0193613 -1.35525e-20 0.00436274 1.01746e-06
-0.0193613 0 0.00436274 1.9519e-05
0.0185249 0 0.00714775 1.47449e-06
-0.0185249 -1.35525e-20 0.00714777 2.44441e-05
0.0189858 5.42101e-20 0.0060364 2.61963e-07
-0.0189858 -2.71051e-20 0.00603641 2.9624e-05
-0.018601 -1.35525e-20 0.00722166 2.5504e-05
0.018601 -2.71051e-20 0.00722164 1.60369e-06
0.0186688 0 0.00713001 1.5772e-06
-0.0186688 -2.71051e-20 0.00713003 2.52255e-05
-0.0193578 2.82344e-22 0.00503068 2.43919e-05
0.0193578 1.97641e-21 0.00503068 7.80205e-07
0.0195829 0 0.00413333 1.27897e-06
-0.0195829 0 0.00413333 2.07047e-05
0.0188026 0 0.00685904 1.15432e-06
-0.0188026 1.50584e-21 0.00685905 2.71315e-05
-0.0200409 -3.38813e-21 2.9751e-05 4.67798e-05
0.0200409 0 2.97461e-05 3.79101e-06
-0.0200414 3.38813e-21 5.66122e-24 4.67804e-05
0.0200414 0 5.71142e-24 3.79093e-06
0.020072 0 -1.77282e-25 3.80081e-06
-0.020072 0 -1.62879e-25 4.67e-05
0.0200566 -2.82344e-21 0.00116432 2.69173e-06
-0.0200566 2.82344e-21 0.00116432 3.00301e-05
0.0195648 2.71051e-20 0.00457553 1.15446e-06
-0.0195648 0 0.00457553 2.29171e-05
0.020102 0 2.93822e-05 3.80922e-06
-0.020102 -3.38813e-21 2.93877e-05 4.66481e-05
0.0201024 3.38813e-21 -1.89409e-25 3.80925e-06
-0.0201024 0 -1.75454e-25 4.66479e-05
-0.0187405 0 0.00735704 2.57036e-05
0.0187405 1.35525e-20 0.00735703 1.59711e-06
0.0193209 1.69407e-21 0.0056892 5.12498e-07
-0.0193209 5.64689e-22 0.00568921 2.83526e-05
0.0190162 0 0.00663679 2.94557e-07
-0.0190162 -5.42101e-20 0.00663679 3.1801e-05
-0.0188683 -2.71051e-20 0.0071162 2.42e-05
0.0188683 0 0.00711619 1.52379e-06
0.0200437 -1.69407e-21 0.0023892 1.74071e-06
-0.0200437 0 0.0023892 1.6343e-05
-0.0188522 0 0.00729487 2.54565e-05
0.0188522 2.71051e-20 0.00729486 1.56659e-06
-0.0188339 -1.35525e-20 0.00744773 2.59231e-05
0.018834 0 0.00744773 1.53447e-06
0.0193083 -1.69407e-21 0.00633277 3.36994e-07
-0.0193083 5.64689e-22 0.00633278 3.21778e-05
0.0196626 -2.71051e-20 0.00533599 8.50591e-07
-0.0196626 2.71051e-20 0.00533599 2.74247e-05
-0.0189282 0 0.00753925 2.81061e-05
0.0189282 -1.35525e-20 0.00753925 1.63993e-06
-0.018987 -1.35525e-20 0.00742573 2.73445e-05
0.018987 0 0.00742572 1.60003e-06
-0.0200608 0 0.00364085 2.37869e-05
0.0200608 1.12938e-21 0.00364085 1.77834e-06
0.020005 5.29396e-23 0.00434221 1.53508e-06
-0.0200043 0 0.00434223 2.66271e-05
0.0192547 -2.25875e-21 0.0070165 8.23393e-07
-0.0192547 2.71051e-21 0.00701651 3.08178e-05
0.0196313 2.71051e-20 0.00599689 5.03418e-07
-0.0196313 -2.71051e-20 0.0059969 3.17142e-05
-0.0191651 -2.71051e-20 0.00740552 2.76789e-05
0.0191651 2.71051e-20 0.00740552 1.57836e-06
-0.0190667 0 0.00767367 2.91567e-05
0.0190667 -1.35525e-20 0.00767366 1.62661e-06
-0.0191579 -1.35525e-20 0.00760271 2.87197e-05
0.0191579 1.35525e-20 0.0076027 1.58582e-06
0.0191443 2.71051e-20 0.00774906 1.43304e-06
-0.0191443 0 0.00774906 2.74753e-05