# kMean  POINT_DATA 26828
# x  y  z  kMean
0.0106418 -1.35525e-20 6.54156e-08 3.04832e-08
-0.0106418 1.35525e-20 6.54156e-08 8.98218e-07
-0.0106418 1.69407e-21 0.000314268 1.0056e-06
0.0106418 -5.0822e-21 0.000314344 3.24385e-08
-0.0106418 1.69407e-21 0.000346265 1.02258e-06
0.0106418 6.77626e-21 0.000346349 3.23674e-08
-0.0106418 1.35525e-20 0.000664313 1.24063e-06
0.0106418 2.71051e-20 0.000664474 3.0071e-08
0.0106696 -1.69407e-21 0.000329749 3.24391e-08
-0.0106696 0 0.000329666 1.00989e-06
-0.0106418 0 0.000994725 1.79309e-06
0.0106418 -1.86347e-20 0.000994893 3.33504e-08
-0.0106418 0 0.00102871 1.806e-06
0.0106418 0 0.00102888 3.33351e-08
-0.0106651 0 0.00100861 1.82009e-06
0.0106651 -6.77626e-21 0.00100878 3.34723e-08
-0.0106418 0 0.00135928 1.49633e-06
0.0106418 0 0.00135945 3.06043e-08
-0.0106418 0 0.00170832 1.63793e-06
0.0106418 -8.47033e-21 0.00170841 3.65038e-08
-0.0106418 0 0.00174301 1.6387e-06
0.0106418 0 0.00174309 3.67948e-08
-0.0106634 1.69407e-21 0.0017166 1.64335e-06
0.0106634 -1.35525e-20 0.00171669 3.68032e-08
0.0106417 0 0.002087 3.76004e-08
-0.0106417 0 0.002087 1.55218e-06
0.0108523 -4.06576e-20 6.90498e-08 3.13665e-08
-0.0108523 -2.71051e-20 6.90496e-08 9.74707e-07
-0.0108538 -4.51751e-21 0.000983453 1.66903e-06
0.0108538 -4.51751e-21 0.000983665 3.21433e-08
-0.0109302 1.12938e-21 0.000328472 1.1529e-06
0.0109302 -1.01644e-20 0.000328579 4.25094e-08
-0.010876 6.77626e-21 0.00165245 1.52848e-06
0.010876 -4.51751e-21 0.0016526 3.48943e-08
-0.0110233 0 5.24962e-08 1.39078e-06
0.0110233 -6.77626e-21 5.24948e-08 6.18681e-08
-0.0108444 6.77626e-21 0.00218791 1.87915e-06
0.0108444 -1.35525e-20 0.00218792 4.76012e-08
-0.010932 -6.77626e-21 0.00223158 1.97383e-06
0.0109321 0 0.0022316 5.10818e-08
-0.0109511 -1.35525e-20 0.00214941 1.92943e-06
0.0109511 -6.77626e-21 0.00214943 4.92448e-08
-0.0111742 -1.35525e-20 4.6956e-08 1.98354e-06
0.0111742 0 4.69546e-08 1.14623e-07
-0.0111378 2.25875e-21 0.00125156 1.01814e-06
0.0111378 9.03502e-21 0.00125179 2.41468e-08
-0.0111894 2.25875e-21 0.000675217 1.619e-06
0.0111894 -1.12938e-21 0.000675418 7.06296e-08
0.0112788 0 0.000114353 1.3892e-07
-0.0112788 0 0.000114331 2.45372e-06
0.0112885 -1.35525e-20 3.37062e-08 1.40873e-07
-0.0112886 1.35525e-20 3.37058e-08 2.4826e-06
-0.0111945 -6.77626e-21 0.00167213 9.15426e-07
0.0111945 0 0.00167231 2.33248e-08
-0.011163 -1.12938e-21 0.00198697 1.7382e-06
0.011163 6.77626e-21 0.00198706 4.47041e-08
-0.011131 0 0.00233069 2.07119e-06
0.0111311 -2.71051e-20 0.00233071 5.62062e-08
0.0114369 0 0.000317029 1.89992e-07
-0.0114369 2.71051e-20 0.000316923 3.16523e-06
-0.011421 0 0.000929721 4.77127e-07
0.011421 0 0.000929939 2.09521e-08
-0.0114038 0 0.0015068 2.93871e-07
0.0114039 -2.71051e-20 0.00150698 8.93914e-09
-0.0113457 -6.77626e-21 0.00243757 2.38761e-06
0.0113458 -6.77626e-21 0.00243761 7.02096e-08
0.0116363 -1.35525e-20 1.34764e-08 2.07618e-07
-0.0116364 0 1.34773e-08 3.76537e-06
0.0116375 -1.35525e-20 9.54413e-05 2.07772e-07
-0.0116375 1.35525e-20 9.54289e-05 3.77555e-06
-0.0114304 6.77626e-21 0.00247976 2.40714e-06
0.0114304 6.77626e-21 0.00247975 7.13751e-08
-0.0115075 -7.90564e-21 0.00225285 2.17515e-06
0.0115075 1.12938e-21 0.00225289 6.35887e-08
0.01173 0 3.26074e-09 2.12522e-07
-0.0117301 0 3.25931e-09 4.03641e-06
-0.0117195 -2.25875e-21 0.000610218 2.3487e-06
0.0117195 2.25875e-21 0.000610384 1.21206e-07
-0.0117028 6.77626e-21 0.00122422 4.32089e-07
0.0117029 -4.51751e-21 0.00122442 1.7745e-08
0.0118194 0 8.96942e-05 2.15543e-07
-0.0118195 1.35525e-20 8.96941e-05 4.30258e-06
0.0118199 -1.35525e-20 3.03241e-09 2.15615e-07
-0.01182 1.35525e-20 3.03105e-09 4.30753e-06
-0.0116772 -2.25875e-21 0.0018372 8.69813e-07
0.0116772 2.25875e-21 0.00183732 2.43118e-08
-0.0116033 0 0.0025659 2.2167e-06
0.0116034 0 0.00256591 6.59407e-08
0.0120204 0 0.000307092 2.35208e-07
-0.0120205 0 0.000307025 4.9636e-06
-0.0117486 -1.35525e-20 0.00263818 2.30836e-06
0.0117487 1.35525e-20 0.00263823 7.18356e-08
-0.0120156 -2.71051e-20 0.000916995 7.10286e-07
0.0120156 0 0.000917127 3.2953e-08
-0.0118319 -3.01167e-21 0.00229967 1.74266e-06
0.011832 -7.52918e-21 0.00229972 5.17004e-08
-0.0117787 0 0.00256194 2.29592e-06
0.0117789 0 0.00256195 7.09996e-08
-0.0119887 -2.71051e-20 0.00155402 2.54373e-07
0.0119887 0 0.00155414 8.49159e-09
-0.012032 -5.42101e-20 0.00210266 5.68969e-07
0.0120321 0 0.00210273 1.4793e-08
0.0122392 1.35525e-20 1.95038e-09 2.41473e-07
-0.0122392 1.35525e-20 1.9503e-09 5.38254e-06
0.0122409 0 8.16586e-05 2.41543e-07
-0.012241 -1.35525e-20 8.16739e-05 5.3837e-06
-0.0119871 2.71051e-20 0.00253932 2.23757e-06
0.0119872 0 0.00253936 7.03161e-08
0.012321 0 1.7426e-09 2.46691e-07
-0.0123211 -1.35525e-20 1.74255e-09 5.5373e-06
-0.0120125 0 0.00276933 2.61676e-06
0.0120125 0 0.00276934 9.41149e-08
-0.0123328 -6.77626e-21 0.000603507 3.2042e-06
0.0123328 4.51751e-21 0.000603593 1.42197e-07
-0.0120726 -2.71051e-20 0.00270723 2.63895e-06
0.0120726 0 0.00270723 9.57836e-08
-0.0123288 4.51751e-21 0.00123238 5.2927e-07
0.0123288 0 0.00123249 2.31953e-08
0.0124027 -1.35525e-20 1.58622e-09 2.49347e-07
-0.0124028 0 1.58612e-09 5.69499e-06
0.012405 1.35525e-20 7.77801e-05 2.49316e-07
-0.0124051 0 7.78041e-05 5.69255e-06
-0.0123347 -1.12938e-21 0.00185416 3.92025e-07
0.0123347 -5.64689e-21 0.00185424 1.38822e-08
-0.0121506 -1.35525e-20 0.00283805 2.8353e-06
0.0121507 -1.35525e-20 0.00283809 1.11108e-07
-0.0123065 0 0.0024016 1.74751e-06
0.0123065 1.12938e-21 0.00240165 6.65793e-08
-0.0122685 0 0.00289771 3.36882e-06
0.0122687 -2.71051e-20 0.00289778 1.44778e-07
-0.0123168 1.35525e-20 0.00277206 3.24847e-06
0.012317 0 0.00277207 1.36944e-07
0.0126427 -2.71051e-20 0.000300463 2.55751e-07
-0.0126427 0 0.00030044 6.13062e-06
-0.0126591 0 0.000913397 8.92407e-07
0.0126591 2.71051e-20 0.000913462 3.88506e-08
-0.0126619 2.71051e-20 0.00155273 2.52059e-07
0.0126619 2.71051e-20 0.00155279 1.21111e-08
-0.0125265 0 0.00271714 3.54856e-06
0.0125266 0 0.00271717 1.56218e-07
0.012467 1.35525e-20 0.00299777 1.63981e-07
-0.012467 0 0.0029978 3.52306e-06
-0.0126644 2.71051e-20 0.00218642 4.79276e-07
0.0126645 5.42101e-20 0.00218646 2.02908e-08
-0.0128706 6.77626e-21 4.59712e-10 6.36834e-06
0.0128706 0 4.5966e-10 2.82655e-07
-0.0128741 -6.77626e-21 6.76228e-05 6.36843e-06
0.0128742 0 6.7603e-05 2.82738e-07
-0.0125737 1.35525e-20 0.00289896 3.4453e-06
0.0125738 1.35525e-20 0.00289883 1.61585e-07
0.0129417 0 3.22157e-10 2.89504e-07
-0.0129417 -1.35525e-20 3.22157e-10 6.43437e-06
-0.0126 0 0.00306523 3.23095e-06
0.0126002 2.71051e-20 0.00306527 1.58021e-07
-0.0129729 -1.12938e-21 0.00059327 3.72387e-06
0.0129729 -2.25875e-21 0.000593302 1.68529e-07
0.0130096 6.77626e-21 3.00396e-10 2.94671e-07
-0.0130097 6.77626e-21 3.00386e-10 6.5039e-06
0.0130125 1.35525e-20 6.19132e-05 2.94609e-07
-0.0130126 6.77626e-21 6.19358e-05 6.50215e-06
-0.0129929 -4.51751e-21 0.00122118 6.12498e-07
0.0129929 -3.38813e-21 0.00122122 2.98004e-08
-0.0127134 1.35525e-20 0.00312239 3.08914e-06
0.0127137 1.35525e-20 0.00312249 1.67015e-07
-0.01275 0 0.00301608 3.09746e-06
0.0127503 0 0.00301608 1.64714e-07
-0.0129974 2.25875e-21 0.0018788 3.37792e-07
0.0129974 -4.51751e-21 0.00187883 1.60621e-08
-0.0129624 2.71051e-21 0.00258482 1.69092e-06
0.0129624 9.03502e-22 0.00258484 8.22731e-08
-0.0129341 0 0.00296493 2.94563e-06
0.0129342 0 0.00296496 1.64004e-07
0.0132745 2.71051e-20 0.0002907 3.22658e-07
-0.0132746 -2.71051e-20 0.000290689 6.73995e-06
-0.0133098 0 0.000892095 1.00191e-06
0.0133098 0 0.000892117 5.06172e-08
-0.012963 -1.35525e-20 0.00324868 2.73538e-06
0.012963 6.77626e-21 0.00324866 1.63179e-07
-0.013014 0 0.00319464 2.70168e-06
0.013014 0 0.00319458 1.61284e-07
-0.0133312 0 0.00153426 2.92327e-07
0.0133312 0 0.00153429 1.71265e-08
-0.0130336 -1.35525e-20 0.0032843 2.57504e-06
0.0130336 -1.35525e-20 0.00328432 1.54654e-07
-0.0133255 0 0.00221292 3.25774e-07
0.0133255 2.71051e-20 0.00221294 1.47834e-08
-0.0130971 -1.35525e-20 0.00331613 2.505e-06
0.0130973 0 0.00331619 1.58046e-07
-0.0131128 -1.35525e-20 0.00327471 2.51226e-06
0.013113 -1.35525e-20 0.00327473 1.57545e-07
-0.0135215 6.77626e-21 4.3748e-11 6.72006e-06
0.0135215 0 4.37385e-11 3.91966e-07
-0.013525 6.77626e-21 4.46932e-05 6.71938e-06
0.013525 0 4.46658e-05 3.92186e-07
-0.0132202 -7.52918e-22 0.00300115 1.9757e-06
0.0132202 1.50584e-21 0.00300118 1.16462e-07
0.0135708 0 2.74197e-11 4.06276e-07
-0.0135708 0 2.74177e-11 6.71444e-06
0.0136155 0 2.60842e-11 4.19343e-07
-0.0136156 0 2.60813e-11 6.71125e-06
0.0136174 0 3.86608e-05 4.19167e-07
-0.0136174 -6.77626e-21 3.8686e-05 6.71073e-06
0.0136131 0 0.000567022 2.37078e-07
-0.0136131 2.25875e-21 0.000567013 3.92699e-06
-0.0133844 0 0.00278358 7.34263e-07
0.0133844 2.71051e-20 0.0027836 3.48153e-08
-0.0136536 -1.12938e-21 0.00118311 6.94936e-07
0.0136536 1.69407e-21 0.00118312 4.22556e-08
-0.013358 -5.42101e-20 0.00322889 2.20303e-06
0.0133581 0 0.00322892 1.49803e-07
-0.0136672 2.25875e-21 0.00185452 2.94808e-07
0.0136672 0 0.00185453 1.87923e-08
-0.0134205 0 0.00347805 2.4709e-06
0.0134205 0 0.00347806 2.08339e-07
-0.0134524 1.35525e-20 0.00343732 2.47779e-06
0.0134524 0 0.0034373 2.09915e-07
0.0139 5.42101e-20 0.000270261 4.89118e-07
-0.0139 -2.71051e-20 0.000270258 6.68241e-06
-0.0136757 -1.69407e-21 0.00251333 4.48119e-07
0.0136758 5.64689e-22 0.00251333 2.66946e-08
-0.0134923 0 0.00351398 2.53497e-06
0.0134924 0 0.00351402 2.2626e-07
0.0139532 0 0.000842552 7.34518e-08
-0.0139533 2.71051e-20 0.000842543 1.13736e-06
-0.0136464 3.38813e-21 0.00307167 1.61647e-06
0.0136464 -1.69407e-21 0.00307169 1.34456e-07
-0.0135604 6.77626e-21 0.00354803 2.74659e-06
0.0135605 0 0.00354808 2.66892e-07
-0.013594 -2.71051e-20 0.00346729 2.70423e-06
0.0135942 0 0.00346729 2.58092e-07
-0.0139955 5.42101e-20 0.00147861 3.3341e-07
0.0139955 0 0.00147861 2.69102e-08
-0.0139995 0 0.00216677 2.29484e-07
0.0139995 0 0.00216677 1.64713e-08
0.0141777 0 1.47672e-12 6.0325e-07
-0.0141778 0 1.47736e-12 6.43367e-06
0.0141788 0 1.24877e-05 6.03336e-07
-0.0141788 0 1.25188e-05 6.43329e-06
0.0141923 -1.69407e-21 1.02421e-12 6.08718e-07
-0.0141924 -1.69407e-21 1.02371e-12 6.42261e-06
0.0142041 1.69407e-21 9.46673e-06 6.13401e-07
-0.0142042 1.69407e-21 9.49024e-06 6.40674e-06
0.0142051 1.69407e-21 1.00933e-12 6.13415e-07
-0.0142052 1.69407e-21 1.0088e-12 6.40673e-06
0.0142399 6.21157e-22 0.000511 3.62876e-07
-0.01424 -2.25875e-22 0.000510993 4.18337e-06
-0.0138496 -2.71051e-20 0.00338143 2.91305e-06
0.0138496 -2.71051e-20 0.00338145 3.04899e-07
-0.0139916 -2.71051e-20 0.00283636 4.69755e-07
0.0139916 0 0.00283638 3.95655e-08
0.0138218 0 0.0036788 3.18263e-07
-0.0138218 0 0.0036788 2.81797e-06
0.0143091 2.82344e-22 0.00109617 7.19456e-08
-0.0143102 0 0.00109467 1.09465e-06
0.0143533 0 7.65942e-13 6.04615e-07
-0.0138932 1.35525e-20 0.003605 2.77961e-06
0.0138932 2.71051e-20 0.00360498 3.15014e-07
-0.0143537 1.69407e-21 7.6493e-13 7.34894e-06
-0.0139058 1.35525e-20 0.00372075 2.66044e-06
0.0139058 0 0.00372076 3.08442e-07
-0.0143406 1.69407e-21 0.0017773 3.30571e-07
0.0143406 -8.47033e-22 0.0017773 3.10987e-08
0.014476 0 0.000224596 7.27182e-07
-0.014476 0 0.000224595 6.15892e-06
-0.0139821 0 0.00376078 2.57922e-06
0.0139821 0 0.0037608 3.19673e-07
-0.0140113 1.35525e-20 0.00368378 2.58436e-06
0.0140114 0 0.00368378 3.169e-07
-0.0143224 0 0.0024986 3.35174e-07
0.0143224 5.64689e-22 0.0024986 2.79583e-08
0.0145821 -5.42101e-20 0.000746673 1.18069e-07
-0.0145821 0 0.000746674 2.11935e-06
-0.014272 9.03502e-22 0.00323782 1.44271e-06
0.014272 1.12938e-21 0.00323783 1.5866e-07
-0.0142274 0 0.00361851 2.41276e-06
0.0142274 2.71051e-20 0.00361852 3.14174e-07
0.0146963 3.76459e-22 0.000425142 4.42969e-07
-0.0146963 -7.52918e-22 0.000425143 7.34105e-06
0.0146847 -2.71051e-20 0.00134649 5.61849e-08
-0.0146847 -5.42101e-20 0.00134648 5.33991e-07
0.0147679 6.77626e-21 2.54299e-05 6.09094e-07
-0.014768 6.77626e-21 2.54068e-05 9.52292e-06
0.0147705 0 9.11081e-14 6.09317e-07
-0.0147705 -6.77626e-21 9.09544e-14 9.51664e-06
0.0148059 -6.77626e-21 6.68338e-15 5.90739e-07
-0.0148059 0 6.6647e-15 9.91929e-06
0.014659 5.42101e-20 0.00210817 2.62408e-08
-0.014659 -2.71051e-20 0.00210817 2.38548e-07
0.0142867 0 0.00391566 3.03736e-07
-0.0142867 0 0.00391568 2.23657e-06
0.0143137 6.77626e-21 0.00388599 3.01739e-07
-0.0143137 6.77626e-21 0.00388604 2.22421e-06
-0.0148347 6.77626e-21 4.55241e-05 1.04795e-05
0.0148347 -6.77626e-21 4.55572e-05 5.73458e-07
-0.0148462 6.77626e-21 5.73722e-15 1.04948e-05
0.0148462 0 5.75032e-15 5.72862e-07
0.0143218 6.77626e-21 0.00393378 2.93779e-07
-0.0143218 -6.77626e-21 0.00393377 2.17754e-06
-0.014352 6.77626e-21 0.00395515 2.13947e-06
0.014352 0 0.00395518 2.92672e-07
-0.0143641 0 0.00393216 2.14355e-06
0.0143642 0 0.00393215 2.92715e-07
-0.0146351 2.71051e-20 0.00283847 3.9658e-07
0.0146351 -2.71051e-20 0.00283847 2.9528e-08
0.0144996 0 0.0036695 2.20302e-07
-0.0144996 0 0.0036695 1.70186e-06
0.0145103 0 0.00366655 2.16433e-07
-0.0145087 -8.47033e-22 0.0036755 1.67547e-06
0.0150122 -2.71051e-20 0.00033015 4.66434e-07
-0.0150123 0 0.000330154 1.35119e-05
-0.0145871 -8.47033e-22 0.00370013 1.69465e-06
0.0145874 8.47033e-22 0.00370026 2.1688e-07
-0.0146767 -2.71051e-20 0.00345539 6.94057e-07
0.0146767 0 0.00345539 6.44307e-08
-0.0150078 4.51751e-22 0.00170826 6.39737e-07
0.0150078 1.12938e-22 0.00170826 7.1212e-08
0.0150925 -1.807e-21 0.000854675 3.77072e-07
-0.0150925 -1.807e-21 0.000854681 7.41262e-06
0.0146273 2.71051e-20 0.00391102 2.74571e-07
-0.0146273 -2.71051e-20 0.00391104 1.9301e-06
-0.0149891 -4.51751e-22 0.00242101 4.02211e-07
0.0149891 -7.90564e-22 0.00242101 3.85937e-08
-0.0149587 -2.82344e-22 0.00315968 6.53653e-07
0.0149587 -1.69407e-21 0.00315968 5.35829e-08
0.0147021 6.77626e-21 0.00420296 3.36256e-07
-0.0147022 0 0.00420304 2.42407e-06
0.0152975 6.77626e-21 8.17497e-05 6.89806e-07
-0.0152975 0 8.17234e-05 1.55589e-05
0.0147325 0 0.00417583 3.37777e-07
-0.0147325 0 0.00417593 2.43984e-06
0.015314 0 2.17543e-15 6.87726e-07
-0.015314 6.77626e-21 2.16401e-15 1.55419e-05
0.0147476 0 0.00423512 3.47405e-07
-0.0147477 -1.35525e-20 0.00423519 2.53595e-06
0.0147781 -6.77626e-21 0.0042567 3.40062e-07
-0.0147782 0 0.00425676 2.51919e-06
0.0147931 0 0.00422599 3.40742e-07
-0.0147932 6.77626e-21 0.00422607 2.5218e-06
-0.0153882 0 1.37339e-16 1.58395e-05
0.0153882 0 1.36947e-16 7.48518e-07
-0.0154218 0 0.000114883 1.63563e-05
0.0154219 0 0.000114923 8.11268e-07
0.0149639 1.50584e-21 0.00384032 2.21054e-07
-0.0149639 9.41148e-22 0.00384035 1.80396e-06
-0.0154554 -6.77626e-21 2.28913e-16 1.63636e-05
0.0154555 0 2.27201e-16 8.13266e-07
0.0148469 -6.77626e-21 0.00430538 3.47953e-07
-0.014847 0 0.00430541 2.67142e-06
0.0154606 0 0.00140662 1.57472e-07
-0.0154606 0 0.00140663 1.24688e-06
-0.0152778 2.71051e-20 0.00281389 4.92384e-07
0.0152778 -2.71051e-20 0.00281389 3.37196e-08
0.0154333 0 0.00193357 8.072e-08
-0.0154334 -2.71051e-20 0.00193357 5.71915e-07
0.0156222 0 0.000480035 1.11157e-06
-0.0156222 2.71051e-20 0.000480033 1.91278e-05
0.0152556 -2.71051e-20 0.00350081 5.38565e-08
-0.0152556 2.71051e-20 0.00350083 8.55515e-07
0.0150547 -6.77626e-21 0.00445243 3.95835e-07
-0.0150548 1.35525e-20 0.00445248 3.15534e-06
-0.0157277 -6.77626e-21 1.66304e-16 1.9042e-05
0.0157278 6.77626e-21 1.64963e-16 1.08009e-06
0.0151605 -2.82344e-22 0.00422314 3.95463e-07
-0.0151606 5.64689e-22 0.00422318 3.09521e-06
0.0156637 2.71051e-20 0.00166709 1.5565e-07
-0.0156638 -1.35525e-20 0.00166709 1.14513e-06
0.0156161 1.46819e-21 0.00242548 7.17706e-08
-0.0156161 1.58113e-21 0.00242548 7.53312e-07
0.0157781 -5.64689e-22 0.000921688 7.72305e-07
-0.0157781 -2.63521e-21 0.000921689 1.16596e-05
0.0155829 0 0.00315322 5.07415e-08
-0.0155829 1.12938e-21 0.00315322 9.52146e-07
0.0152442 6.77626e-21 0.00458652 4.07686e-07
-0.0152443 -1.35525e-20 0.00458661 3.77997e-06
0.0159534 0 3.82779e-05 1.31303e-06
-0.0159534 6.77626e-21 3.82942e-05 2.1307e-05
0.015843 2.71051e-20 0.00192286 1.30941e-07
-0.015843 -2.71051e-20 0.00192287 9.46846e-07
0.0159594 6.77626e-21 2.87967e-17 1.31344e-06
-0.0159594 0 2.85098e-17 2.13135e-05
0.0159064 0 0.00142306 2.56537e-07
-0.0159064 0 0.00142306 1.83526e-06
0.0155142 0 0.0038846 1.69372e-07
-0.0155143 -1.12938e-21 0.00388461 1.93796e-06
0.0153266 0 0.00464484 4.11918e-07
-0.0153267 0 0.00464492 4.00579e-06
0.01535 1.35525e-20 0.00461636 4.14598e-07
-0.0153501 0 0.00461645 4.02682e-06
0.0153665 0 0.00467311 4.38535e-07
-0.0153666 0 0.00467318 4.35105e-06
0.0160927 2.71051e-20 0.000505095 1.50409e-06
-0.0160927 -2.71051e-20 0.000505084 2.34066e-05
0.0154309 0 0.00471865 4.89298e-07
-0.015431 0 0.00471871 5.14672e-06
-0.0161373 1.35525e-20 9.1179e-18 2.3049e-05
0.0161375 0 9.37167e-18 1.4309e-06
0.0154621 1.35525e-20 0.00464665 4.78531e-07
-0.0154622 1.35525e-20 0.00464672 4.9415e-06
0.0155559 7.05861e-23 0.004333 3.18041e-07
-0.0155559 -1.41172e-22 0.00433301 3.38521e-06
0.015933 2.71051e-20 0.00276856 6.98031e-08
-0.015933 -5.42101e-20 0.00276856 1.01249e-06
0.015876 2.71051e-20 0.003495 4.71421e-08
-0.0158761 -2.71051e-20 0.003495 1.43907e-06
0.0163022 1.41172e-22 0.00169287 2.38894e-07
-0.0163022 -2.82344e-22 0.00169287 1.78005e-06
0.0158806 2.71051e-20 0.00413138 8.31135e-08
-0.0158806 0 0.00413139 2.02539e-06
0.0157465 0 0.00463069 5.07487e-07
-0.0157465 -2.71051e-20 0.00463071 5.72226e-06
-0.0156845 0 0.00489813 6.52987e-06
0.0156845 -1.35525e-20 0.00489813 5.31652e-07
-0.0164402 0 0.000192225 2.63201e-05
0.0164404 2.71051e-20 0.000191942 1.67722e-06
-0.0164598 0 2.18491e-18 2.6269e-05
0.01646 1.35525e-20 2.26278e-18 1.67447e-06
0.0163055 3.38813e-21 0.0022924 1.4675e-07
-0.0163055 -3.38813e-21 0.0022924 1.50118e-06
-0.0157621 0 0.00483924 6.49899e-06
0.0157621 0 0.00483928 5.25288e-07
0.0164587 6.77626e-21 0.00103728 1.03657e-06
-0.0164587 -6.77626e-21 0.00103727 1.53143e-05
0.0162201 1.12938e-22 0.00310508 8.40082e-08
-0.0162201 4.51751e-22 0.00310507 1.76406e-06
-0.0157673 -1.35525e-20 0.00495672 6.60504e-06
0.0157673 0 0.0049567 5.15873e-07
-0.0165551 -1.35525e-20 1.82789e-18 2.72115e-05
0.0165551 1.35525e-20 1.92031e-18 1.70902e-06
0.0158425 0 0.00500992 5.3769e-07
-0.0158425 0 0.00500996 7.04395e-06
0.0158774 -1.35525e-20 0.00492682 5.31569e-07
-0.0158774 0 0.00492681 6.9334e-06
0.0161859 -1.69407e-21 0.00381857 6.84799e-08
-0.0161859 -5.64689e-22 0.00381858 2.47515e-06
0.0166927 1.35525e-20 0.00010156 1.82512e-06
-0.016693 0 0.000101746 2.94035e-05
0.0166939 -1.35525e-20 -1.9608e-18 1.82504e-06
-0.0166942 -1.35525e-20 -2.00258e-18 2.94012e-05
0.0161388 0 0.00451634 2.73107e-07
-0.0161388 -2.25875e-21 0.00451636 4.74751e-06
-0.0165511 0 0.00276281 1.85567e-06
0.0165511 -5.42101e-20 0.00276281 1.28511e-07
0.0160804 0 0.00488846 5.26614e-07
-0.0160804 0 0.00488847 7.41788e-06
-0.0165195 -2.71051e-20 0.00345967 2.77805e-06
0.0165195 2.71051e-20 0.00345967 7.62698e-08
-0.0160928 6.77626e-21 0.00518707 8.50545e-06
0.0160929 6.77626e-21 0.00518708 5.31253e-07
-0.0161329 -6.77626e-21 0.00514907 8.54579e-06
0.0161329 6.77626e-21 0.0051491 5.27013e-07
0.0161377 6.77626e-21 0.0052188 5.12387e-07
-0.0161377 6.77626e-21 0.00521882 8.71485e-06
0.0164853 2.71051e-20 0.00415086 6.75858e-08
-0.0164853 0 0.00415087 3.68087e-06
0.0161812 6.77626e-21 0.00524954 5.12993e-07
-0.0161812 0 0.00524959 8.91929e-06
0.0162 0 0.00521528 5.1259e-07
-0.0162 6.77626e-21 0.0052153 8.88866e-06
0.0169483 0 0.00175217 3.22793e-07
-0.0169483 0 0.00175218 2.52589e-06
0.0168947 -1.41172e-22 0.00247213 2.04258e-07
-0.0168959 2.82344e-22 0.00247499 2.5481e-06
0.0170685 -1.0842e-19 0.00054239 2.12559e-06
-0.0170686 1.0842e-19 0.000542388 3.43845e-05
0.0163681 4.23516e-22 0.00495113 3.86202e-07
-0.0163681 7.05861e-22 0.00495117 7.61692e-06
0.0168537 2.82344e-22 0.00309993 1.41997e-07
-0.0168537 -5.64689e-22 0.00309993 3.03173e-06
0.0165271 -2.71051e-20 0.00473652 1.19824e-07
-0.0165271 2.71051e-20 0.00473653 4.41504e-06
0.0168198 1.69407e-21 0.00379491 9.6603e-08
-0.0168198 -5.64689e-22 0.00379491 4.36142e-06
0.0164532 0 0.00518912 5.0255e-07
-0.0164532 0 0.00518915 1.01441e-05
0.0164986 1.35525e-20 0.00547422 6.18883e-07
-0.0164987 -1.35525e-20 0.00547423 1.22364e-05
0.0168074 5.64689e-22 0.00445444 9.84135e-08
-0.0168075 -1.69407e-21 0.00445445 5.60683e-06
0.0165401 0 0.00543898 6.23642e-07
-0.0165402 0 0.00543895 1.23614e-05
0.0171982 -2.71051e-20 0.00274291 2.13137e-07
-0.0171982 0 0.00274291 3.12554e-06
0.0165561 0 0.00551492 6.49252e-07
-0.0165563 0 0.00551497 1.31094e-05
0.0171475 -2.71051e-20 0.00343444 1.49609e-07
-0.0171475 -2.71051e-20 0.00343445 4.34245e-06
0.0165953 0 0.0055426 6.34371e-07
-0.0165954 0 0.00554269 1.32356e-05
0.0166161 0 0.00550297 6.36106e-07
-0.0166163 0 0.00550301 1.32308e-05
-0.0168033 3.13716e-22 0.0051158 1.02241e-05
0.0168033 -3.13716e-22 0.00511579 4.10038e-07
0.0166836 -6.77626e-21 0.00560513 6.6219e-07
-0.0166839 6.77626e-21 0.00560526 1.42576e-05
0.0171381 0 0.00410855 9.37516e-08
-0.0171381 -5.42101e-20 0.00410855 6.60347e-06
0.0176356 0 5.15824e-05 2.41228e-06
-0.0176356 6.77626e-21 5.15782e-05 3.81576e-05
0.0176365 0 -8.77031e-19 2.41243e-06
-0.0176365 0 -8.88931e-19 3.81592e-05
0.0176257 1.12938e-21 0.00114318 1.4688e-06
-0.0176257 -1.12938e-21 0.00114318 2.13087e-05
0.017701 0 -1.21685e-20 2.44931e-06
-0.017701 -6.77626e-21 -1.22039e-20 3.8529e-05
-0.0177564 0 5.70417e-05 3.8958e-05
0.0177564 0 5.70455e-05 2.48567e-06
-0.0174948 -7.05861e-22 0.00304301 4.19798e-06
0.0174948 3.5293e-22 0.00304301 2.44837e-07
0.0171005 -2.71051e-20 0.0047873 1.10626e-07
-0.0171005 0 0.00478732 7.96751e-06
-0.01776 6.77626e-21 -1.01849e-20 3.89614e-05
0.01776 6.77626e-21 -1.01509e-20 2.48598e-06
-0.0176226 0 0.00231708 3.8912e-06
0.0176226 -2.82344e-22 0.00231708 3.588e-07
0.0168649 6.77626e-21 0.00573339 7.55217e-07
-0.0168651 -2.03288e-20 0.00573345 1.57572e-05
0.0169917 0 0.00554745 7.75668e-07
-0.0169917 0 0.00554751 1.54737e-05
0.0175403 0 0.00368249 1.86208e-07
-0.0175404 0 0.0036825 6.71467e-06
0.0174309 -1.69407e-21 0.00445118 1.27192e-07
-0.0174309 0 0.00445119 9.12163e-06
0.0170276 1.35525e-20 0.00584853 7.94842e-07
-0.0170277 1.35525e-20 0.00584855 1.76778e-05
0.0173593 -5.64689e-21 0.00515918 3.2563e-07
-0.0173594 1.12938e-21 0.00515919 1.25461e-05
0.0171314 0 0.00592202 8.17474e-07
-0.0171315 0 0.00592208 1.9053e-05
0.0171627 1.35525e-20 0.00588617 8.24299e-07
-0.0171628 0 0.00588621 1.90529e-05
0.017182 0 0.0059579 8.91377e-07
-0.0171821 1.35525e-20 0.00595797 1.95122e-05
0.017769 0 0.00410416 1.93491e-07
-0.017769 -2.71051e-20 0.00410417 9.6517e-06
0.0182634 5.42101e-20 0.000578938 2.76195e-06
-0.0182635 0 0.000578947 4.2625e-05
0.0173971 2.82344e-22 0.00561051 6.39008e-07
-0.0173983 0 0.00561204 1.68449e-05
0.0172647 0 0.00601703 1.03691e-06
-0.0172648 1.35525e-20 0.00601711 2.19246e-05
0.0173075 0 0.00592612 1.00455e-06
-0.0173076 0 0.00592617 2.12808e-05
0.0182204 -1.0842e-19 0.00175681 5.86559e-07
-0.0182204 -1.0842e-19 0.0017568 4.44403e-06
0.0177285 -2.71051e-20 0.00478171 1.13016e-07
-0.0177285 -2.71051e-20 0.00478172 1.22175e-05
0.0181282 0 0.00306192 3.89589e-07
-0.0181282 0 0.00306192 5.93805e-06
0.0181211 2.82344e-22 0.00374048 3.16602e-07
-0.0181211 4.23516e-22 0.00374049 9.81535e-06
0.0177324 -2.71051e-20 0.00540773 1.63453e-07
-0.0177324 -2.71051e-20 0.00540774 1.43727e-05
0.0174848 0 0.00617228 1.13672e-06
-0.0174849 0 0.00617231 2.3943e-05
0.0175758 0 0.00590988 1.07692e-06
-0.0175758 -2.71051e-20 0.00590991 2.28536e-05
0.0180729 -5.64689e-22 0.00442474 2.27391e-07
-0.0180729 5.64689e-22 0.00442474 1.26898e-05
0.0175825 0 0.00610033 1.12079e-06
-0.0175826 0 0.00610035 2.36338e-05
0.0175873 1.35525e-20 0.00624642 1.11462e-06
-0.0175873 -1.35525e-20 0.00624645 2.35051e-05
0.018047 -2.25875e-21 0.00508938 1.69273e-07
-0.018047 -1.12938e-21 0.00508939 1.63577e-05
0.017673 0 0.00632952 1.19076e-06
-0.017673 0 0.00632955 2.42137e-05
0.0177234 1.35525e-20 0.00621991 1.16367e-06
-0.0177235 -1.35525e-20 0.00621994 2.38477e-05
-0.0188362 0 3.90757e-05 4.40924e-05
0.0188362 -6.77626e-21 3.90717e-05 2.90602e-06
-0.0188376 0 -1.40468e-21 4.40893e-05
0.0188376 0 -1.40183e-21 2.90579e-06
0.0184191 0 0.00406131 3.5502e-07
-0.0184191 2.71051e-20 0.00406131 1.19712e-05
0.0188782 -6.77626e-21 -3.17074e-23 2.91752e-06
-0.0188782 -6.77626e-21 -3.33105e-23 4.42274e-05
0.0188457 5.64689e-22 0.00115779 1.83178e-06
-0.0188458 1.69407e-21 0.00115779 2.53611e-05
0.017989 -9.03502e-22 0.0057961 5.72496e-07
-0.017989 -4.96926e-21 0.00579612 2.14709e-05
0.0189173 -6.77626e-21 3.90264e-05 2.9308e-06
-0.0189173 0 3.90289e-05 4.44191e-05
0.0189184 0 -3.96181e-23 2.93086e-06
-0.0189184 0 -4.1135e-23 4.44199e-05
0.0188016 2.82344e-22 0.00239367 6.7645e-07
-0.0188016 -8.47033e-22 0.00239367 7.26793e-06
0.0179168 0 0.00619825 1.1622e-06
-0.0179168 2.71051e-20 0.00619827 2.3907e-05
0.0178342 -1.35525e-20 0.00647801 1.19342e-06
-0.0178343 1.35525e-20 0.00647804 2.4189e-05
0.0183812 0 0.00473969 2.47884e-07
-0.0183812 0 0.0047397 1.68301e-05
0.0179161 0 0.00640623 1.16844e-06
-0.0179162 -1.35525e-20 0.00640625 2.38386e-05
0.0179071 0 0.00654731 1.0688e-06
-0.0179072 0 0.00654734 2.27372e-05
0.0187899 0 0.00359346 5.46984e-07
-0.0187899 0 0.00359346 1.13515e-05
0.0183614 2.71051e-20 0.0054084 1.57566e-07
-0.0183614 -2.71051e-20 0.00540841 2.20897e-05
0.0179797 0 0.00661793 1.14948e-06
-0.0179798 -2.71051e-20 0.00661795 2.36595e-05
0.0180436 0 0.00652843 1.13348e-06
-0.0180436 0 0.00652846 2.3416e-05
0.0187173 4.23516e-22 0.00436434 4.19834e-07
-0.0187173 8.47033e-22 0.00436435 1.49646e-05
0.018177 -1.50584e-21 0.00625306 8.29407e-07
-0.0181771 1.50584e-21 0.00625307 2.35119e-05
0.0181271 -2.71051e-20 0.00676141 1.14577e-06
-0.0181271 1.35525e-20 0.00676144 2.39811e-05
0.0183874 -2.71051e-20 0.00602483 2.03302e-07
-0.0183874 0 0.00602484 2.43089e-05
0.0182482 0 0.0065139 1.09272e-06
-0.0182482 2.71051e-20 0.00651392 2.26635e-05
0.0187359 5.64689e-22 0.00501818 3.25698e-07
-0.0187359 9.88205e-22 0.00501818 2.06751e-05
0.0182333 -1.35525e-20 0.00669842 1.12731e-06
-0.0182333 0 0.00669844 2.37928e-05
0.0182171 0 0.00684895 1.10907e-06
-0.0182171 1.35525e-20 0.00684896 2.41939e-05
0.0194643 0 0.000581958 3.07713e-06
-0.0194644 0 0.000581954 4.59197e-05
0.0194401 0 0.00177497 8.56919e-07
-0.0194401 -5.42101e-20 0.00177497 7.66774e-06
0.0186825 2.25875e-21 0.00571617 2.20026e-07
-0.0186825 2.25875e-21 0.00571618 2.55955e-05
0.018308 0 0.00693721 1.18882e-06
-0.018308 0 0.00693723 2.59898e-05
0.018365 1.35525e-20 0.0068251 1.1607e-06
-0.018365 0 0.00682512 2.53712e-05
-0.0191534 0 0.00414674 1.51464e-05
0.0191534 -2.71051e-20 0.00414674 6.62468e-07
-0.0194225 5.42101e-20 0.00303969 1.09956e-05
0.0194225 0 0.00303969 8.59602e-07
0.01915 5.42101e-20 0.0045832 5.79458e-07
-0.01915 -2.71051e-20 0.0045832 1.91846e-05
0.0186305 2.71051e-21 0.00640892 5.89953e-07
-0.0186305 1.807e-21 0.00640893 2.71336e-05
-0.0193894 -3.02814e-20 0.00369516 1.52061e-05
0.0193894 0 0.00369516 8.24054e-07
0.0185455 2.71051e-20 0.00680227 1.1509e-06
-0.0185455 0 0.00680229 2.57345e-05
0.019012 -2.71051e-20 0.00537772 3.36144e-07
-0.019012 -2.71051e-20 0.00537773 2.50511e-05
0.0184497 -2.71051e-20 0.00707478 1.19203e-06
-0.0184497 1.35525e-20 0.0070748 2.60936e-05
0.018538 1.35525e-20 0.00700334 1.16643e-06
-0.018538 0 0.00700336 2.55386e-05
0.0193613 -1.35525e-20 0.00436274 7.69723e-07
-0.0193613 0 0.00436274 1.91115e-05
0.0185249 0 0.00714775 1.06648e-06
-0.0185249 -1.35525e-20 0.00714777 2.37436e-05
0.0189858 5.42101e-20 0.0060364 1.88064e-07
-0.0189858 -2.71051e-20 0.00603641 3.10537e-05
-0.018601 -1.35525e-20 0.00722166 2.48605e-05
0.018601 -2.71051e-20 0.00722164 1.16411e-06
0.0186688 0 0.00713001 1.14441e-06
-0.0186688 -2.71051e-20 0.00713003 2.45743e-05
-0.0193578 2.82344e-22 0.00503068 2.44836e-05
0.0193578 1.97641e-21 0.00503068 6.15527e-07
0.0195829 0 0.00413333 9.62651e-07
-0.0195829 0 0.00413333 2.00788e-05
0.0188026 0 0.00685904 8.34815e-07
-0.0188026 1.50584e-21 0.00685905 2.7291e-05
-0.0200409 -3.38813e-21 2.9751e-05 4.43203e-05
0.0200409 0 2.97461e-05 3.21326e-06
-0.0200414 3.38813e-21 5.66122e-24 4.43209e-05
0.0200414 0 5.71142e-24 3.2132e-06
0.020072 0 -1.77282e-25 3.22003e-06
-0.020072 0 -1.62879e-25 4.42369e-05
0.0200566 -2.82344e-21 0.00116432 2.12595e-06
-0.0200566 2.82344e-21 0.00116432 2.82242e-05
0.0195648 2.71051e-20 0.00457553 9.02043e-07
-0.0195648 0 0.00457553 2.24809e-05
0.020102 0 2.93822e-05 3.2269e-06
-0.020102 -3.38813e-21 2.93877e-05 4.41851e-05
0.0201024 3.38813e-21 -1.89409e-25 3.22692e-06
-0.0201024 0 -1.75454e-25 4.41849e-05
-0.0187405 0 0.00735704 2.50845e-05
0.0187405 1.35525e-20 0.00735703 1.16455e-06
0.0193209 1.69407e-21 0.0056892 4.04352e-07
-0.0193209 5.64689e-22 0.00568921 2.92636e-05
0.0190162 0 0.00663679 2.11727e-07
-0.0190162 -5.42101e-20 0.00663679 3.37063e-05
-0.0188683 -2.71051e-20 0.0071162 2.34715e-05
0.0188683 0 0.00711619 1.11131e-06
0.0200437 -1.69407e-21 0.0023892 1.14225e-06
-0.0200437 0 0.0023892 1.50462e-05
-0.0188522 0 0.00729487 2.48358e-05
0.0188522 2.71051e-20 0.00729486 1.14331e-06
-0.0188339 -1.35525e-20 0.00744773 2.53023e-05
0.018834 0 0.00744773 1.12024e-06
0.0193083 -1.69407e-21 0.00633277 2.54455e-07
-0.0193083 5.64689e-22 0.00633278 3.39067e-05
0.0196626 -2.71051e-20 0.00533599 6.93611e-07
-0.0196626 2.71051e-20 0.00533599 2.77488e-05
-0.0189282 0 0.00753925 2.77383e-05
0.0189282 -1.35525e-20 0.00753925 1.19815e-06
-0.018987 -1.35525e-20 0.00742573 2.69216e-05
0.018987 0 0.00742572 1.16957e-06
-0.0200608 0 0.00364085 2.25575e-05
0.0200608 1.12938e-21 0.00364085 1.28621e-06
0.020005 5.29396e-23 0.00434221 1.20495e-06
-0.0200043 0 0.00434223 2.57532e-05
0.0192547 -2.25875e-21 0.0070165 6.02647e-07
-0.0192547 2.71051e-21 0.00701651 3.17791e-05
0.0196313 2.71051e-20 0.00599689 4.05039e-07
-0.0196313 -2.71051e-20 0.0059969 3.31806e-05
-0.0191651 -2.71051e-20 0.00740552 2.73119e-05
0.0191651 2.71051e-20 0.00740552 1.15596e-06
-0.0190667 0 0.00767367 2.87979e-05
0.0190667 -1.35525e-20 0.00767366 1.19355e-06
-0.0191579 -1.35525e-20 0.00760271 2.83116e-05
0.0191579 1.35525e-20 0.0076027 1.16563e-06
0.0191443 2.71051e-20 0.00774906 1.0587e-06
-0.0191443 0 0.00774906 2.6851e-05