# kMean  POINT_DATA 18637
# x  y  z  kMean
-1.35525e-20 0.0292381 8.09214e-08 1.098e-08
1.35525e-20 -0.0292381 8.09214e-08 1.3586e-06
0 0.0292381 0.000233485 1.11893e-08
0 -0.0292381 0.000233515 1.35967e-06
3.38813e-21 0.0292381 0.000430835 1.09854e-08
3.38813e-21 -0.0292381 0.000430882 1.50464e-06
-6.77626e-21 0.029238 0.000663804 9.97155e-09
0 -0.029238 0.000663883 1.82011e-06
0 0.029238 0.00090804 8.95418e-09
0 -0.029238 0.000908135 2.10425e-06
3.38813e-21 0.029238 0.00111509 8.70778e-09
0 -0.029238 0.00111514 2.17802e-06
6.77626e-21 0.0292379 0.00135916 8.78969e-09
-1.35525e-20 -0.029238 0.00135924 2.03831e-06
3.38813e-21 0.0292379 0.00161398 8.49292e-09
3.38813e-21 -0.029238 0.00161406 1.79914e-06
6.77626e-21 0.0292379 0.00183191 9.80402e-09
3.38813e-21 -0.0292379 0.00183193 1.93166e-06
6.77626e-21 0.0292379 0.002087 1.22374e-08
-6.77626e-21 -0.0292379 0.002087 2.43304e-06
6.77626e-21 0.0293159 0.000332872 1.11503e-08
1.35525e-20 -0.0293159 0.000332922 1.31041e-06
-1.01644e-20 0.0293201 0.00100469 8.26347e-09
0 -0.0293201 0.0010048 2.15861e-06
0 -0.0293199 0.00170033 1.62216e-06
0 0.0293199 0.00170027 7.96634e-09
0 0.0294721 0.000122228 1.07043e-08
1.35525e-20 -0.0294721 0.000122259 1.20968e-06
-1.35525e-20 0.0294728 7.47971e-08 1.0692e-08
0 -0.0294728 7.47973e-08 1.2069e-06
0 0.0294797 0.000527865 9.75202e-09
1.35525e-20 -0.0294797 0.000527979 1.445e-06
0 0.0294753 0.0007964 8.58724e-09
0 -0.0294753 0.000796545 1.80666e-06
0 0.0294755 0.00118677 7.55394e-09
-2.03288e-20 -0.0294755 0.00118694 1.8981e-06
-6.77626e-21 0.0294683 0.00147423 7.45819e-09
1.35525e-20 -0.0294683 0.00147436 1.66042e-06
6.77626e-21 0.0294625 0.00186313 8.50723e-09
-1.35525e-20 -0.0294625 0.00186321 1.85383e-06
2.71051e-20 -0.029578 6.6417e-08 1.59778e-06
0 0.029578 6.64162e-08 3.2094e-08
0 -0.0295009 0.00213468 2.41172e-06
-6.77626e-21 0.0295009 0.00213468 1.03178e-08
1.35525e-20 0.029587 0.000650923 1.87575e-08
-2.71051e-20 -0.029587 0.000651142 1.60114e-06
1.35525e-20 0.0295378 0.00203788 9.68735e-09
0 -0.0295378 0.00203791 2.24358e-06
0 0.0295841 0.00130575 5.81375e-09
-1.35525e-20 -0.0295841 0.001306 1.40801e-06
0 0.0295849 0.00192062 7.43421e-09
6.77626e-21 -0.0295849 0.00192072 1.72346e-06
0 0.029649 0.00216152 1.18915e-08
1.35525e-20 -0.029649 0.00216153 2.47626e-06
0 0.0297926 0.000963737 8.0146e-09
-1.35525e-21 -0.0297926 0.000964021 1.64408e-06
0 0.0298094 7.62576e-08 1.72957e-08
0 -0.0298094 7.62593e-08 1.15457e-06
-2.25875e-22 -0.0298204 0.000317605 1.18255e-06
6.77626e-22 0.0298204 0.000317475 1.64305e-08
4.96926e-21 0.0297852 0.00156831 5.42175e-09
-9.03502e-22 -0.0297852 0.00156853 1.23221e-06
5.64689e-22 0.0297946 0.00197119 8.20439e-09
-5.64689e-22 -0.0297946 0.00197126 1.87405e-06
0 -0.0298851 8.57398e-08 1.41076e-06
6.77626e-21 0.0298851 8.57415e-08 2.185e-08
6.77626e-21 0.0298185 0.00219226 1.08036e-08
-2.71051e-20 -0.0298186 0.00219226 2.29261e-06
1.35525e-20 -0.0299229 0.00221118 2.75603e-06
-1.35525e-20 0.0299229 0.00221118 1.41391e-08
0 -0.0300583 1.01025e-07 2.35965e-06
0 0.0300583 1.01025e-07 4.71986e-08
-9.03502e-21 0.030042 0.00125425 6.14801e-09
-4.51751e-21 -0.0300421 0.00125455 1.38382e-06
2.90411e-21 0.030023 0.00171056 6.53889e-09
-1.64566e-20 -0.0300231 0.00171076 1.4312e-06
9.03502e-21 0.0300766 0.000656709 2.07218e-08
-9.03502e-21 -0.0300766 0.000656982 1.75303e-06
0 0.0301411 0.00011795 4.06596e-08
0 -0.0301411 0.000118016 2.22982e-06
0 0.0301431 9.36971e-08 4.08355e-08
-6.77626e-21 -0.0301431 9.3695e-08 2.23458e-06
1.35525e-20 -0.0300722 0.00223824 2.89213e-06
-1.35525e-20 0.0300722 0.00223824 1.50942e-08
1.35525e-20 -0.0302709 0.000327948 2.64375e-06
0 0.0302709 0.000327843 2.53382e-08
-1.35525e-20 0.0302588 0.000959241 7.971e-09
0 -0.0302588 0.000959456 1.72382e-06
0 0.0302233 0.00199378 1.34294e-08
0 -0.0302233 0.00199385 2.61661e-06
2.71051e-20 0.0302514 0.00155263 6.61415e-09
0 -0.0302514 0.00155281 1.37482e-06
0 0.0303943 0.00229664 1.78976e-08
1.01644e-20 -0.0303944 0.00229665 3.2028e-06
0 -0.0305071 4.03816e-05 3.2576e-06
3.38813e-21 0.0305071 4.03474e-05 3.16609e-08
0 -0.0305084 2.78803e-08 3.26111e-06
0 0.0305085 2.78785e-08 3.17044e-08
0 -0.0305355 2.44804e-08 3.43088e-06
3.38813e-21 0.0305355 2.44805e-08 3.37401e-08
6.77626e-21 0.030464 0.00230926 1.88339e-08
-6.77626e-21 -0.030464 0.00230927 3.32641e-06
3.38813e-21 0.0305559 2.56048e-08 3.32514e-08
-3.38813e-21 -0.0305559 2.56052e-08 3.40358e-06
3.38813e-21 0.0305566 2.16906e-05 3.32837e-08
-3.38813e-21 -0.0305566 2.17043e-05 3.40584e-06
1.41172e-22 -0.0305496 0.000656518 2.62315e-06
2.11758e-22 0.0305496 0.000656265 2.13769e-08
1.8823e-22 0.0305132 0.00170673 9.64818e-09
0 -0.0305132 0.00170684 1.90961e-06
4.51751e-22 0.0305476 0.0012451 7.39656e-09
2.25875e-22 -0.0305476 0.00124527 1.55195e-06
0 -0.030501 0.00231597 3.35961e-06
0 0.030501 0.00231597 1.90943e-08
-3.38813e-21 0.0306237 3.57384e-08 3.73486e-08
0 -0.0306238 3.57449e-08 3.58385e-06
-3.38813e-21 -0.0306099 0.00219282 3.2916e-06
3.38813e-21 0.03061 0.00219278 1.85128e-08
0 -0.0307226 0.00235616 3.84257e-06
-3.38813e-21 0.0307226 0.00235617 2.23975e-08
-5.42101e-20 -0.0308383 0.000320955 4.3331e-06
2.71051e-20 0.0308384 0.000320914 4.32686e-08
5.64689e-21 0.0308116 0.00198362 1.63265e-08
-2.25875e-21 -0.0308116 0.00198366 2.95298e-06
1.35525e-20 -0.0309907 0.00101963 1.41819e-06
1.35525e-20 0.0309907 0.00101953 7.78565e-09
4.51751e-21 0.0309922 0.00150601 5.24009e-09
1.807e-20 -0.0309923 0.00150608 1.04367e-06
-1.35525e-20 0.0310395 9.17131e-08 5.77809e-08
2.71051e-20 -0.0310395 9.1716e-08 4.77066e-06
0 0.0310416 0.000119385 5.80383e-08
2.71051e-20 -0.0310416 0.000119381 4.80865e-06
0 -0.030965 0.0024001 4.28991e-06
6.77626e-21 0.030965 0.0024001 2.58315e-08
0 -0.030982 0.00237275 4.30577e-06
-6.77626e-21 0.030982 0.00237274 2.57986e-08
0 0.0310105 0.00240831 2.63306e-08
0 -0.0310105 0.00240831 4.37586e-06
0 0.0310179 0.00233593 2.44673e-08
-2.03288e-20 -0.0310179 0.00233593 4.11939e-06
4.51751e-21 -0.0311223 0.000639295 2.94653e-06
9.03502e-21 0.0311223 0.000639241 3.13436e-08
0 0.0310526 0.00237695 2.7059e-08
0 -0.0310526 0.00237695 4.50009e-06
0 -0.0311459 9.7154e-08 4.90142e-06
-1.35525e-20 0.0311459 9.7152e-08 5.75692e-08
0 0.031071 0.00241925 2.79602e-08
0 -0.031071 0.00241926 4.60945e-06
2.71051e-20 0.0312091 0.00177617 1.02972e-08
2.71051e-20 -0.0312091 0.0017762 2.00323e-06
2.71051e-20 0.0312491 0.00122874 6.09511e-09
0 -0.0312491 0.00122879 1.16087e-06
0 -0.0312858 8.40769e-08 5.38573e-06
-1.35525e-20 0.0312858 8.40688e-08 6.39242e-08
0 -0.0312917 0.000133801 5.43056e-06
0 0.0312917 0.000133814 6.429e-08
2.25875e-21 0.0313889 0.00201505 2.06778e-08
-4.51751e-21 -0.0313889 0.00201507 3.91004e-06
0 0.0313959 0.00247812 3.1691e-08
0 -0.0313959 0.00247812 5.28759e-06
4.51751e-21 -0.0314932 0.000408813 5.2691e-06
-9.03502e-21 0.0314932 0.000408772 6.54025e-08
6.77626e-21 -0.0315059 0.00091593 1.39754e-06
2.25875e-21 0.0315059 0.000915908 1.4218e-08
0 0.0314281 0.00241767 3.0887e-08
0 -0.0314281 0.00241768 5.23407e-06
-2.25875e-21 0.0315016 0.00151821 4.64319e-09
2.25875e-21 -0.0315016 0.00151824 8.90583e-07
-2.71051e-20 -0.0314985 0.00234892 4.57635e-06
0 0.0314986 0.00234891 2.62482e-08
0 -0.0315086 0.00249848 5.12549e-06
0 0.0315086 0.00249848 3.03169e-08
1.35525e-20 0.0316957 0.000127101 8.90199e-08
-1.35525e-20 -0.0316957 0.000127026 6.35277e-06
-1.35525e-20 0.0316993 1.28444e-08 8.92361e-08
0 -0.0316993 1.28328e-08 6.33128e-06
2.71051e-20 -0.0317724 0.000610912 3.59328e-06
-2.71051e-20 0.0317724 0.000610901 4.6753e-08
-2.71051e-20 0.0317679 0.00121735 5.22594e-09
-2.71051e-20 -0.0317679 0.00121736 8.1396e-07
0 0.0317537 0.00187034 1.0047e-08
0 -0.0317537 0.00187034 1.99145e-06
-2.71051e-20 -0.0317094 0.00253469 5.13735e-06
-2.71051e-20 0.0317094 0.00253469 2.96427e-08
-1.35525e-20 -0.0318341 3.55441e-10 6.49522e-06
0 0.0318342 3.5764e-10 9.40805e-08
5.64689e-22 -0.0317532 0.00228382 5.08343e-06
0 0.0317532 0.0022838 2.7929e-08
0 -0.0319513 4.55602e-10 7.07113e-06
0 0.0319515 4.57813e-10 9.60224e-08
0 -0.0319524 0.000127644 7.1357e-06
-1.35525e-20 0.0319526 0.000127724 9.60335e-08
-1.35525e-20 0.031883 0.00256626 2.6218e-08
0 -0.031883 0.00256626 4.60704e-06
0 -0.0319995 0.000914652 1.43812e-06
0 0.0319996 0.000914645 1.63815e-08
-8.13152e-21 -0.0320112 0.000400526 6.80879e-06
1.0842e-20 0.0320112 0.000400506 7.60543e-08
0 -0.0320267 0.00227715 3.63051e-06
-2.25875e-21 0.0320267 0.00227715 1.84455e-08
0 0.0320296 0.00251389 2.20811e-08
2.71051e-20 -0.0320296 0.00251388 4.18467e-06
-4.51751e-21 -0.0320975 0.00153751 8.02646e-07
2.25875e-21 0.0320975 0.0015375 4.31119e-09
6.77626e-21 -0.0320426 0.00259528 4.09301e-06
6.77626e-21 0.0320426 0.00259528 2.15831e-08
4.51751e-21 0.0321203 0.00203456 8.51895e-09
-4.51751e-21 -0.0321203 0.00203456 1.9888e-06
-1.35525e-20 -0.032135 0.0023896 3.94188e-06
0 0.032135 0.0023896 2.02531e-08
0 0.0322923 0.000126396 8.35837e-08
0 -0.0322923 0.000126368 8.41249e-06
-1.35525e-20 0.0323016 2.23509e-09 8.31924e-08
0 -0.0323016 2.23359e-09 8.3876e-06
0 -0.0322106 0.00262564 3.95805e-06
-1.35525e-20 0.0322106 0.00262563 2.1452e-08
1.35525e-20 -0.0322719 0.00254337 4.00471e-06
-1.35525e-20 0.0322719 0.00254337 2.19803e-08
1.35525e-20 -0.032418 2.33105e-09 8.50116e-06
1.35525e-20 0.032418 2.33258e-09 7.91034e-08
6.77626e-21 -0.0324263 0.000612636 5.00666e-06
0 0.0324263 0.000612628 4.62023e-08
-4.51751e-21 0.0324222 0.00112458 8.58364e-09
-4.51751e-21 -0.0324222 0.0011246 1.07468e-06
0 0.0324121 0.00187572 8.65303e-09
0 -0.0324121 0.00187572 1.63257e-06
0 -0.0323802 0.00265647 4.44506e-06
1.35525e-20 0.0323802 0.00265646 2.8478e-08
0 0.0324114 0.0022971 1.76003e-08
-5.64689e-22 -0.0324114 0.0022971 3.20443e-06
0 -0.032547 2.20758e-09 8.88899e-06
0 0.032547 2.20888e-09 7.87964e-08
0 -0.0325489 0.000125731 8.8888e-06
1.35525e-20 0.0325489 0.000125761 7.87955e-08
-1.35525e-20 0.0326034 0.00269726 2.68071e-08
6.77626e-21 -0.0326035 0.00269726 4.2572e-06
0 -0.032737 0.000308379 9.36243e-06
-2.71051e-20 0.032737 0.000308371 7.89503e-08
2.25875e-21 -0.0327282 0.00154847 8.53802e-07
0 0.0327282 0.00154846 5.11584e-09
0 0.0326738 0.00254252 2.73388e-08
-4.51751e-21 -0.0326738 0.00254252 4.37925e-06
9.03502e-21 0.0327075 0.00206802 9.49964e-09
-4.51751e-21 -0.0327075 0.00206803 1.69261e-06
2.71051e-20 -0.0327081 0.00271619 4.41343e-06
0 0.0327081 0.00271619 2.82654e-08
4.51751e-21 0.0328421 0.000917798 1.69122e-08
0 -0.0328421 0.00091781 2.11645e-06
-1.35525e-20 -0.0328866 1.93643e-09 9.67535e-06
0 0.0328867 1.93676e-09 7.97791e-08
1.35525e-20 -0.032889 0.000149431 9.67524e-06
1.35525e-20 0.032889 0.00014945 7.97782e-08
1.93608e-21 0.0329824 0.000542139 5.74859e-08
-1.93608e-20 -0.0329825 0.000542161 7.03423e-06
-2.71051e-20 -0.0330372 1.79015e-09 9.81413e-06
0 0.0330372 1.79024e-09 8.08747e-08
0 0.0329464 0.00275986 4.09123e-08
0 -0.0329464 0.00275986 5.55577e-06
-2.25875e-22 -0.0329866 0.00235418 3.65122e-06
1.01644e-21 0.0329866 0.00235417 2.24757e-08
-2.71051e-20 0.0330505 0.0012313 7.60904e-09
2.71051e-20 -0.0330505 0.00123132 1.04554e-06
0 0.03302 0.00190093 1.05867e-08
0 -0.03302 0.00190094 1.80458e-06
0 -0.0332006 2.02157e-09 1.02429e-05
0 0.0332007 2.02156e-09 7.68966e-08
-6.77626e-21 -0.0333521 0.000302632 9.7274e-06
-4.51751e-21 0.0333521 0.00030262 7.13189e-08
6.77626e-21 0.0333579 0.000916518 1.78074e-08
9.03502e-21 -0.0333579 0.000916545 2.39617e-06
-3.38813e-21 0.0332515 0.00281589 3.80693e-08
0 -0.0332516 0.00281589 5.7041e-06
0 -0.0333432 0.00156301 8.63273e-07
0 0.0333432 0.00156299 5.36071e-09
0 0.0332953 0.00276465 3.6582e-08
0 -0.0332954 0.0027646 5.65972e-06
-3.72694e-20 0.0333124 0.00282716 3.83366e-08
0 -0.0333125 0.00282717 5.73068e-06
1.12938e-20 0.03334 0.00259894 3.45505e-08
-3.38813e-21 -0.03334 0.00259895 5.44524e-06
2.25875e-21 0.0333776 0.00214933 1.12412e-08
-9.03502e-21 -0.0333776 0.00214934 1.88496e-06
0 -0.0334909 2.97183e-09 1.08879e-05
-1.35525e-20 0.0334909 2.97138e-09 7.95213e-08
0 -0.0336619 3.20036e-09 1.10208e-05
2.71051e-20 0.033662 3.19979e-09 8.47199e-08
0 0.0336674 0.000602348 4.88489e-08
2.71051e-20 -0.0336674 0.000602386 6.41101e-06
0 0.0336288 0.00191783 9.64951e-09
0 -0.0336288 0.00191785 1.71307e-06
2.71051e-20 0.0336642 0.00123333 8.15029e-09
0 -0.0336642 0.00123337 1.16293e-06
-2.71051e-20 0.0335882 0.00287788 4.5862e-08
2.71051e-20 -0.0335883 0.00287789 6.00755e-06
2.71051e-20 0.0336882 0.00242285 2.55147e-08
2.71051e-20 -0.0336882 0.00242286 3.89242e-06
0 -0.0338384 2.82135e-09 1.14758e-05
0 0.0338384 2.82081e-09 8.23847e-08
-1.35525e-20 0.0338118 0.00291884 4.53786e-08
0 -0.0338119 0.00291885 6.01469e-06
-6.77626e-21 -0.0339781 0.000302716 1.08138e-05
2.25875e-21 0.0339781 0.000302698 7.64503e-08
1.12938e-20 -0.0339808 0.000914846 2.71638e-06
-4.51751e-21 0.0339808 0.000914783 1.89133e-08
-1.12938e-20 0.0339744 0.00155885 5.1775e-09
6.77626e-21 -0.0339744 0.0015589 8.039e-07
-2.03288e-21 0.0339479 0.0026773 4.03132e-08
-1.12938e-21 -0.033948 0.00267731 5.72254e-06
-2.25875e-21 0.0339878 0.00215892 9.39986e-09
-4.51751e-21 -0.0339878 0.00215894 1.53121e-06
-1.35525e-20 0.0341105 1.81896e-09 8.43044e-08
0 -0.0341105 1.81909e-09 1.19894e-05
0 0.034033 0.00295946 4.7503e-08
-6.77626e-21 -0.0340333 0.00295951 5.96867e-06
0 -0.0342884 1.43974e-09 1.20185e-05
2.71051e-20 0.0342884 1.43965e-09 8.79256e-08
2.71051e-20 -0.0342943 0.000599028 7.01859e-06
0 0.0342944 0.000598959 5.09514e-08
4.06576e-20 0.0342165 0.00299309 5.04231e-08
0 -0.0342167 0.00299313 5.96765e-06
2.71051e-20 0.0342949 0.00244902 2.38802e-08
-2.71051e-20 -0.0342949 0.00244904 3.37933e-06
1.74247e-20 -0.034362 0.00129523 1.02129e-06
-1.16165e-20 0.034362 0.00129516 7.11931e-09
0 -0.0343655 0.00179195 7.74152e-07
-9.68038e-21 0.0343655 0.00179189 4.78104e-09
0 0.0343332 0.00301467 5.73633e-08
0 -0.0343333 0.00301469 6.63477e-06
-1.35525e-20 -0.0344682 1.2841e-09 1.24037e-05
2.71051e-20 0.0344682 1.284e-09 8.96911e-08
9.03502e-21 -0.0345084 0.000909543 2.79245e-06
4.51751e-21 0.0345085 0.000909463 1.95467e-08
-9.03502e-21 0.0345181 0.00215903 9.57096e-09
-9.03502e-21 -0.0345181 0.00215907 1.4249e-06
-2.25875e-21 -0.0346072 0.000300839 1.15524e-05
-4.51751e-21 0.0346072 0.000300792 8.47117e-08
0 0.0346152 0.0015431 4.15264e-09
2.71051e-20 -0.0346152 0.00154318 5.86014e-07
-4.51751e-22 0.0345577 0.00272973 5.9306e-08
7.90564e-22 -0.0345578 0.00272972 7.16733e-06
-6.77626e-21 0.0345982 0.00306315 6.04311e-08
0 -0.0345983 0.00306318 6.80366e-06
-1.35525e-20 0.0347357 9.21209e-10 9.67062e-08
-1.35525e-20 -0.0347357 9.21261e-10 1.2794e-05
6.77626e-21 0.0346817 0.0030786 5.761e-08
6.77626e-21 -0.0346818 0.00307861 6.48047e-06
0 -0.0349166 7.64663e-10 1.28225e-05
0 0.0349166 7.64607e-10 1.171e-07
-9.03502e-21 -0.0349264 0.000691229 5.44503e-06
1.807e-20 0.0349264 0.000691147 4.5274e-08
6.77626e-21 0.0349292 0.00121456 1.05381e-08
1.12938e-20 -0.0349292 0.00121466 1.38037e-06
4.51751e-21 0.0349324 0.00185908 5.14216e-09
-2.25875e-21 -0.0349324 0.00185915 7.64167e-07
-3.04932e-20 0.0348918 0.00311689 5.35833e-08
-1.69407e-20 -0.0348919 0.00311691 6.60372e-06
-6.77626e-21 0.0349974 0.00246603 1.97825e-08
-4.51751e-21 -0.0349975 0.00246603 2.80673e-06
-1.35525e-20 -0.0350985 7.00968e-10 1.32136e-05
-2.71051e-20 0.0350985 7.00918e-10 1.30444e-07
0 0.0350013 0.00286026 4.65145e-08
-9.03502e-21 -0.0350014 0.00286027 5.87845e-06
0 -0.0352407 0.000295921 1.21979e-05
4.51751e-21 0.0352407 0.000295875 1.24438e-07
0 0.0352487 0.000893704 1.93068e-08
0 -0.0352487 0.000893811 2.30286e-06
3.38813e-20 0.0351346 0.00316138 4.36539e-08
2.71051e-20 -0.0351347 0.0031614 5.28639e-06
-2.71051e-20 0.0352503 0.00152796 5.01929e-09
2.71051e-20 -0.0352503 0.00152806 6.10862e-07
0 0.0351466 0.00316358 4.34657e-08
1.69407e-21 -0.0351467 0.00316359 5.26188e-06
0 0.0351792 0.00281931 3.37085e-08
-6.77626e-21 -0.0351793 0.00281934 4.37545e-06
1.69407e-21 0.0351514 0.0031503 4.33575e-08
0 -0.0351514 0.00315042 5.25771e-06
0 0.0352563 0.002173 4.36229e-09
0 -0.0352563 0.00217304 8.09415e-07
-3.38813e-21 -0.0352266 0.00317815 5.13146e-06
-8.47033e-22 0.0352273 0.00317828 4.36706e-08
-1.35525e-20 0.0353735 5.21769e-10 1.41611e-07
0 -0.0353735 5.21782e-10 1.35053e-05
6.77626e-21 0.0353094 0.00290198 3.3412e-08
0 -0.0353094 0.00290197 4.32363e-06
-2.71051e-20 -0.0355533 4.57347e-10 1.32593e-05
-2.71051e-20 0.0355533 4.57338e-10 1.65596e-07
6.77626e-21 0.0355671 0.001196 1.39378e-08
-2.25875e-21 -0.0355671 0.00119611 1.50893e-06
-2.25875e-21 0.0355696 0.00184888 5.21937e-09
-2.25875e-21 -0.0355696 0.00184895 7.04159e-07
-2.25875e-21 -0.0356125 0.00062238 7.24787e-06
-4.51751e-21 0.0356125 0.0006223 7.84372e-08
1.12938e-20 0.0355744 0.00250526 1.63853e-08
-2.25875e-21 -0.0355744 0.00250527 2.24441e-06
3.38813e-21 -0.0355282 0.00323309 4.47636e-06
-6.77626e-21 0.0355283 0.0032331 4.26482e-08
0 -0.0355416 0.00321424 4.50191e-06
0 0.0355417 0.00321429 4.29242e-08
4.51751e-21 0.0355809 0.00287392 3.43196e-08
4.51751e-21 -0.0355809 0.00287394 3.92483e-06
-3.38813e-21 0.0355739 0.00316255 4.12263e-08
0 -0.0355739 0.00316239 4.34609e-06
0 -0.035567 0.00324017 4.57787e-06
6.77626e-21 0.035567 0.00324016 4.54772e-08
0 -0.0357313 4.0682e-10 1.34638e-05
2.71051e-20 0.0357313 4.06801e-10 1.53e-07
0 0.0356067 0.00321938 4.44007e-08
0 -0.0356068 0.00321934 4.51868e-06
0 0.03562 0.00324983 4.47116e-08
3.38813e-21 -0.0356201 0.00324986 4.49015e-06
0 -0.0358767 0.000193584 1.3512e-05
-9.03502e-21 0.0358767 0.000193565 1.54945e-07
2.71051e-20 0.035885 0.00087563 2.41034e-08
0 -0.035885 0.000875722 2.41232e-06
2.71051e-20 0.0358905 0.00150745 6.68695e-09
-2.71051e-20 -0.0358906 0.00150754 6.67524e-07
2.71051e-20 0.035888 0.00216762 4.73214e-09
2.71051e-20 -0.035888 0.00216765 7.2097e-07
0 0.0358662 0.00295245 4.23243e-08
6.77626e-21 -0.0358662 0.00295244 4.19692e-06
1.35525e-20 0.0360202 2.4784e-10 1.57802e-07
1.35525e-20 -0.0360202 2.47859e-10 1.35639e-05
6.77626e-21 -0.036024 0.00332348 4.75131e-06
0 0.0360241 0.0033235 5.44926e-08
0 -0.0361958 1.9684e-10 1.32127e-05
-2.71051e-20 0.0361958 1.96811e-10 1.74051e-07
2.25875e-21 -0.0362011 0.000563602 8.09784e-06
0 0.0362011 0.00056354 9.26261e-08
0 -0.03606 0.00326909 4.85515e-06
-2.71051e-20 0.03606 0.00326916 5.53856e-08
9.03502e-21 0.036206 0.00117906 1.5996e-08
6.77626e-21 -0.036206 0.00117914 1.59122e-06
0 0.0362044 0.00184432 6.25243e-09
0 -0.0362045 0.00184436 7.26269e-07
6.77626e-21 0.0361886 0.0025326 2.07574e-08
4.51751e-21 -0.0361886 0.0025326 2.36429e-06
0 0.0361316 0.00334311 6.44178e-08
1.35525e-20 -0.0361316 0.00334312 5.18041e-06
-4.51751e-21 0.0361686 0.00293576 4.41064e-08
4.51751e-21 -0.0361686 0.00293578 4.14291e-06
-1.35525e-20 0.0361566 0.00314793 5.0166e-08
0 -0.0361566 0.00314776 4.4761e-06
2.71051e-20 -0.0363723 1.67552e-10 1.3326e-05
-2.71051e-20 0.0363723 1.67523e-10 1.56335e-07
0 0.0362561 0.00328629 5.99169e-08
0 -0.0362563 0.00328624 5.07851e-06
-6.77626e-21 0.0363064 0.00337495 6.11227e-08
0 -0.0363066 0.003375 5.0446e-06
9.03502e-21 -0.0365138 0.000190574 1.3382e-05
-9.03502e-21 0.0365138 0.000190566 1.6074e-07
0 0.0365218 0.000862039 2.48497e-08
0 -0.0365218 0.000862105 2.5096e-06
0 0.0365244 0.00149871 7.55994e-09
-2.71051e-20 -0.0365244 0.00149876 7.16737e-07
2.71051e-20 0.0365144 0.00218215 5.86269e-09
2.71051e-20 -0.0365144 0.00218218 7.84885e-07
4.06576e-20 0.0364787 0.00289846 4.16026e-08
-1.35525e-20 -0.0364787 0.00289841 3.82635e-06
-1.35525e-20 0.0366527 8.42396e-11 1.68525e-07
1.35525e-20 -0.0366527 8.42454e-11 1.34701e-05
-8.13152e-21 0.036569 0.00323497 6.35568e-08
-8.13152e-21 -0.036569 0.00323494 5.36372e-06
-1.35525e-20 -0.0365533 0.00341997 5.12497e-06
2.71051e-20 0.0365534 0.00341998 6.28251e-08
6.77626e-21 0.0367898 0.00059899 9.45446e-08
4.51751e-21 -0.0367898 0.000599027 7.54743e-06
-2.71051e-20 -0.0368341 5.55828e-11 1.34823e-05
-2.71051e-20 0.0368341 5.55766e-11 2.00949e-07
-4.51751e-21 0.0368407 0.00116982 1.85002e-08
9.03502e-21 -0.0368407 0.00116987 1.67676e-06
-2.25875e-21 0.0368347 0.0018451 6.79945e-09
4.51751e-21 -0.0368347 0.00184514 7.35729e-07
-2.25875e-21 0.0368044 0.00255426 1.84144e-08
6.77626e-21 -0.0368045 0.00255425 2.1465e-06
-2.71051e-20 0.0367776 0.00346083 7.34901e-08
0 -0.0367778 0.00346085 5.54969e-06
5.87276e-21 -0.0368391 0.00303501 3.92029e-06
-4.06576e-21 0.0368391 0.00303502 4.29045e-08
-1.35525e-20 -0.0370199 4.78266e-11 1.37781e-05
-2.71051e-20 0.0370199 4.78194e-11 2.266e-07
4.51751e-21 -0.0371489 0.000281532 1.2737e-05
-2.25875e-21 0.0371489 0.000281513 2.11957e-07
0 0.0371548 0.000855733 3.20052e-08
0 -0.0371548 0.000855772 2.63281e-06
2.71051e-20 0.0371549 0.00149544 8.83421e-09
0 -0.0371549 0.00149548 7.52403e-07
0 0.037144 0.00218136 4.83904e-09
0 -0.0371441 0.00218137 6.762e-07
-3.38813e-20 0.0370561 0.00351158 7.25128e-08
2.37169e-20 -0.0370564 0.00351163 5.20992e-06
1.35525e-20 -0.03727 2.98601e-11 1.41292e-05
0 0.0372701 2.98577e-11 2.3832e-07
-2.71051e-20 0.0371711 0.00278346 1.01796e-08
0 -0.0371712 0.00278344 1.34867e-06
2.03288e-20 -0.0371161 0.00352251 5.14732e-06
-1.01644e-20 0.0371162 0.00352254 7.29354e-08
-4.51751e-21 0.0371348 0.00333234 6.78622e-08
0 -0.0371348 0.00333228 5.12849e-06
0 -0.0374605 2.2222e-11 1.43252e-05
-2.71051e-20 0.0374606 2.22185e-11 2.55533e-07
-4.51751e-21 -0.0374674 0.000637921 6.74988e-06
-9.03502e-21 0.0374674 0.000637907 9.5593e-08
2.25875e-21 0.0374702 0.00116479 2.18176e-08
4.51751e-21 -0.0374702 0.00116482 1.77427e-06
0 0.0374664 0.00184005 7.38022e-09
-3.38813e-21 -0.0374664 0.00184006 7.09846e-07
3.38813e-21 0.0374681 0.0024973 7.9985e-09
1.12938e-21 -0.0374682 0.00249729 9.37735e-07
-6.77626e-21 0.0374674 0.00307432 4.46289e-08
5.64689e-21 -0.0374674 0.00307432 3.34247e-06
0 0.0374247 0.00357873 7.81631e-08
1.35525e-20 -0.0374247 0.00357874 4.99589e-06
1.35525e-20 -0.0376529 1.86798e-11 1.47589e-05
-1.35525e-20 0.0376529 1.86765e-11 2.54864e-07
-9.03502e-21 -0.0377742 0.000280176 1.36807e-05
4.51751e-21 0.0377742 0.000280173 2.27867e-07
2.71051e-20 -0.0377819 0.000851964 2.80491e-06
-2.71051e-20 0.0377819 0.000851941 3.53703e-08
0 0.0377837 0.0014916 1.04142e-08
2.71051e-20 -0.0377837 0.00149162 7.79829e-07
0 -0.03766 0.00362143 5.72657e-06
0 0.0376601 0.00362145 9.84625e-08
0 0.0377819 0.00216984 5.47642e-09
0 -0.0377819 0.00216984 6.26666e-07
0 0.0377772 0.00279747 1.11696e-08
0 -0.0377773 0.00279747 1.01821e-06
-1.35525e-20 -0.0378849 1.07515e-11 1.51516e-05
4.06576e-20 0.0378849 1.07501e-11 2.46396e-07
-6.77626e-21 0.0377229 0.00353539 1.00198e-07
0 -0.0377229 0.00353515 5.86849e-06
1.12938e-21 -0.0377798 0.00335648 5.38381e-06
5.64689e-21 0.0377798 0.00335651 8.75323e-08
6.77626e-21 0.0377787 0.00364282 1.04881e-07
0 -0.0377788 0.00364285 5.87125e-06
-2.71051e-20 -0.0380777 7.23339e-12 1.53415e-05
0 0.0380777 7.23213e-12 2.46925e-07
-4.51751e-21 -0.0380891 0.000630768 7.26264e-06
0 0.0380891 0.000630766 8.97383e-08
-4.51751e-21 -0.0380959 0.00115845 1.88003e-06
0 0.0380959 0.00115844 2.23559e-08
7.90564e-21 0.0380968 0.00183414 8.45884e-09
9.03502e-21 -0.0380968 0.00183414 7.38186e-07
0 -0.0379953 0.00368205 5.80765e-06
2.71051e-20 0.0379953 0.00368205 1.0917e-07
0 0.0380943 0.00250914 9.61171e-09
2.25875e-21 -0.0380943 0.00250913 8.90605e-07
0 0.0380786 0.00304222 4.26112e-08
0 -0.0380786 0.00304218 2.89065e-06
1.35525e-20 -0.0382651 6.08614e-12 1.57209e-05
-2.71051e-20 0.0382652 6.08489e-12 1.99589e-07
0 -0.0381487 0.00370985 6.5401e-06
6.77626e-21 0.0381488 0.00370987 1.26861e-07
6.77626e-21 -0.0383423 0.000233977 1.49855e-05
0 0.0383424 0.000233978 1.89343e-07
-2.71051e-20 -0.0384028 0.00084336 2.89461e-06
2.71051e-20 0.0384028 0.000843355 3.15816e-08
0 0.03841 0.00148269 1.14537e-08
5.42101e-20 -0.03841 0.0014827 9.02303e-07
2.71051e-20 0.0384072 0.00217157 6.56646e-09
0 -0.0384072 0.00217157 6.43089e-07
-3.16226e-21 0.0383454 0.00341258 1.15228e-07
1.807e-21 -0.0383454 0.00341256 6.33278e-06
0 -0.0385068 3.26132e-12 1.61182e-05
-1.35525e-20 0.0385068 3.26128e-12 2.12787e-07
2.71051e-20 0.0384087 0.00283772 1.50539e-08
0 -0.0384087 0.0028377 1.24167e-06
1.35525e-20 0.0383426 0.00374466 1.30377e-07
2.03288e-20 -0.0383427 0.00374468 6.7322e-06
1.35525e-20 -0.0384724 0.00376815 6.32695e-06
1.35525e-20 0.0384725 0.00376815 1.20546e-07
0 -0.038689 2.10775e-12 1.64209e-05
0 0.038689 2.10772e-12 2.61525e-07
-4.51751e-21 -0.0387011 0.000532416 1.02044e-05
1.12938e-20 0.0387011 0.000532409 1.38533e-07
-2.25875e-21 -0.0387193 0.00114095 2.09249e-06
5.64689e-21 0.0387193 0.00114095 2.44021e-08
0 -0.0387248 0.0018202 7.65741e-07
-3.38813e-21 0.0387248 0.00182019 9.56256e-09
-5.64689e-21 0.0387232 0.00251582 9.6929e-09
-1.12938e-21 -0.0387232 0.00251581 8.88058e-07
-2.71051e-20 0.0386563 0.00380883 1.12189e-07
-1.35525e-20 -0.0386564 0.00380883 6.42503e-06
1.35525e-20 -0.0388555 1.85419e-12 1.68679e-05
0 0.0388556 1.85403e-12 2.55549e-07
-1.35525e-20 0.0386904 0.00364444 1.07803e-07
0 -0.0386905 0.0036444 6.28226e-06
1.12938e-21 0.0387735 0.00324347 5.57093e-08
-1.69407e-21 -0.0387735 0.00324347 3.60443e-06
-8.13152e-21 -0.0389089 0.000183069 1.694e-05
-1.0842e-20 0.038909 0.000183082 2.62768e-07
2.71051e-20 -0.0390203 0.000818137 3.55234e-06
2.71051e-20 0.0390203 0.000818137 4.0522e-08
1.35525e-20 0.0388759 0.00384263 9.45698e-08
2.71051e-20 -0.0388759 0.00384264 5.3933e-06
0 -0.0390392 0.00145468 8.80493e-07
0 0.0390393 0.00145468 1.3202e-08
0 0.0390375 0.00215229 7.12761e-09
0 -0.0390375 0.00215229 6.36538e-07
3.38813e-21 -0.0389282 0.00385221 5.27065e-06
0 0.0389282 0.00385223 9.27295e-08
-3.38813e-21 -0.038953 0.00379144 5.22694e-06
3.38813e-21 0.0389531 0.00379134 9.14787e-08
-2.71051e-20 0.0390404 0.00284543 9.78728e-09
0 -0.0390404 0.00284542 1.00124e-06
0 -0.0391597 9.05541e-13 1.63361e-05
0 0.0391598 9.0537e-13 3.59498e-07
1.35525e-20 -0.0391706 0.00011479 1.62946e-05
0 0.0391707 0.000114814 3.62871e-07
0 0.0391098 0.0036138 8.09914e-08
-4.51751e-21 -0.0391098 0.00361378 4.76157e-06
0 -0.0393055 6.51231e-13 1.55589e-05
-1.35525e-20 0.0393056 6.50934e-13 4.52656e-07
1.12938e-21 -0.0393117 0.000500471 9.60886e-06
2.25875e-21 0.0393118 0.000500466 2.61214e-07
-1.12938e-21 -0.0393491 0.00108814 2.15798e-06
2.25875e-21 0.0393492 0.00108814 3.91383e-08
1.12938e-21 -0.0393637 0.00177668 8.71173e-07
2.25875e-21 0.0393637 0.00177668 1.26755e-08
1.35525e-20 -0.0394217 8.75992e-05 1.47931e-05
0 0.0394218 8.76205e-05 5.34656e-07
-1.35525e-20 -0.0394265 6.04603e-13 1.48184e-05
-1.35525e-20 0.0394267 6.044e-13 5.31048e-07
3.38813e-21 -0.0393554 0.00250019 8.38716e-07
6.77626e-21 0.0393554 0.0025002 9.15778e-09
1.69407e-21 -0.0392485 0.0039119 4.82454e-06
-8.47033e-22 0.039249 0.00391199 9.24946e-08
-3.16226e-21 0.0393554 0.00323491 4.19324e-08
-4.51751e-22 -0.0393554 0.0032349 2.74909e-06
0 -0.03933 0.00392844 4.67272e-06
0 0.03933 0.00392844 9.15253e-08
0 -0.0393346 0.0039231 4.67679e-06
0 0.0393346 0.00392312 9.165e-08
-1.69407e-21 -0.0393412 0.00393112 4.70759e-06
0 0.0393412 0.00393111 9.24939e-08
0 -0.0393435 0.00390963 4.6292e-06
0 0.0393435 0.00390973 9.0554e-08
1.69407e-21 0.039353 0.00392505 9.20712e-08
0 -0.0393531 0.00392504 4.67461e-06
1.69407e-21 0.0393594 0.00393583 9.21684e-08
0 -0.0393595 0.00393586 4.66518e-06
-2.71051e-20 -0.0396051 0.000230853 1.39197e-05
-2.71051e-20 0.0396052 0.000230855 6.22555e-07
-2.71051e-20 -0.0396385 0.000745418 2.71743e-06
0 0.0396385 0.000745416 8.04337e-08
0 -0.0396943 0.00136798 1.28246e-06
2.71051e-20 0.0396943 0.00136799 2.15537e-08
2.71051e-20 0.0396773 0.00211516 9.4129e-09
0 -0.0396773 0.00211516 7.06869e-07
1.16165e-20 -0.0395841 0.00366052 4.40467e-06
-7.7443e-21 0.0395841 0.00366052 9.00565e-08
2.71051e-20 0.0396652 0.00283591 1.00367e-08
5.42101e-20 -0.0396652 0.0028359 9.89227e-07
-6.02335e-21 -0.0398974 0.000433621 1.16615e-05
-1.50584e-21 0.0398975 0.000433615 3.33826e-07
-1.35525e-20 -0.0397727 0.00404312 4.83197e-06
-1.35525e-20 0.0397728 0.00404312 1.07312e-07
-1.35525e-20 -0.0398264 0.00397879 4.95608e-06
0 0.0398264 0.0039788 1.10435e-07
1.05879e-22 -0.0400317 5.26959e-07 1.67811e-05
1.05879e-22 0.0400329 3.79511e-07 4.29928e-07
4.51751e-21 -0.0400248 0.000878079 7.23325e-06
2.44698e-21 0.0400249 0.000878071 1.2254e-07
-1.8823e-22 -0.0400178 0.0017144 1.20259e-06
2.35287e-22 0.0400178 0.0017144 1.9439e-08
-2.25875e-21 0.0399831 0.00248337 1.09467e-08
-2.25875e-21 -0.0399831 0.00248337 9.24897e-07
-6.77626e-21 0.0399582 0.00322784 4.6711e-08
0 -0.0399582 0.00322782 2.76972e-06
3.38813e-21 0.0399279 0.00368209 9.28066e-08
3.38813e-21 -0.0399279 0.00368208 4.36895e-06
1.35525e-20 0.0399097 0.0040785 1.15097e-07
0 -0.0399097 0.0040785 5.21645e-06
0 0.0400592 0.00398574 1.19158e-07
0 -0.0400592 0.00398573 5.17154e-06
0 -0.0403283 0.00130607 1.52248e-06
0 0.0403283 0.00130608 2.76095e-08
0 -0.0403037 0.00209241 8.33648e-07
0 0.0403037 0.00209241 1.19326e-08
0 0.0402835 0.00284207 1.19152e-08
0 -0.0402835 0.00284206 1.13837e-06
1.50584e-21 -0.0403926 0.000332763 2.19426e-05
-1.50584e-21 0.0403926 0.000332742 3.32132e-07
1.35525e-20 0.0402359 0.00359474 8.84022e-08
-1.35525e-20 -0.0402359 0.00359473 4.16461e-06
8.47033e-22 -0.0402066 0.00415491 5.10656e-06
0 0.0402066 0.00415492 1.21494e-07
0 -0.0402147 0.0041461 5.10445e-06
-6.77626e-21 0.0402147 0.00414611 1.21737e-07
1.69407e-21 0.040223 0.00415913 1.22652e-07
0 -0.040223 0.00415913 5.1748e-06
1.35525e-20 0.0403025 0.00393731 1.26343e-07
0 -0.0403025 0.00393731 5.53297e-06
1.35525e-20 0.0405607 2.46968e-14 3.49234e-07
0 -0.0405607 2.44752e-14 2.26149e-05
0 0.0406279 0.00170818 2.16552e-08
1.35525e-21 -0.0406279 0.00170819 1.28655e-06
0 -0.0406701 0.000834219 1.23915e-05
-4.51751e-21 0.0406701 0.00083421 1.46324e-07
0 -0.0406057 0.00247168 9.70589e-07
3.38813e-21 0.0406057 0.00247169 1.1451e-08
-2.25875e-21 0.0405666 0.00323479 3.98e-08
2.25875e-21 -0.0405666 0.00323478 2.61674e-06
0 -0.0407119 1.90384e-14 2.33017e-05
-1.35525e-20 0.040712 1.91278e-14 3.40902e-07
-1.35525e-20 0.0404944 0.00422897 1.39357e-07
1.35525e-20 -0.0404944 0.00422897 6.75929e-06
1.35525e-21 -0.0405858 0.00374196 4.78079e-06
2.25875e-21 0.0405858 0.00374196 9.21071e-08
0 -0.0406597 0.00427138 7.54133e-06
0 0.0406597 0.00427138 1.55954e-07