# omega  POINT_DATA 18637
# x  y  z  omega
-1.35525e-20 0.0292381 8.09214e-08 1324.09
1.35525e-20 -0.0292381 8.09214e-08 1323.91
0 0.0292381 0.000233485 1275.37
0 -0.0292381 0.000233515 1275.18
3.38813e-21 0.0292381 0.000430835 1381.97
3.38813e-21 -0.0292381 0.000430882 1381.83
-6.77626e-21 0.029238 0.000663804 1786.51
0 -0.029238 0.000663883 1786.47
0 0.029238 0.00090804 2100.35
0 -0.029238 0.000908135 2100.45
3.38813e-21 0.029238 0.00111509 2276.97
0 -0.029238 0.00111514 2277.1
6.77626e-21 0.0292379 0.00135916 2537.72
-1.35525e-20 -0.029238 0.00135924 2537.86
3.38813e-21 0.0292379 0.00161398 2677.97
3.38813e-21 -0.029238 0.00161406 2678.26
6.77626e-21 0.0292379 0.00183191 2488.43
3.38813e-21 -0.0292379 0.00183193 2488.8
6.77626e-21 0.0292379 0.002087 1762.52
-6.77626e-21 -0.0292379 0.002087 1763.16
6.77626e-21 0.0293159 0.000332872 1306.94
1.35525e-20 -0.0293159 0.000332922 1306.7
-1.01644e-20 0.0293201 0.00100469 2327.46
0 -0.0293201 0.0010048 2327.52
0 -0.0293199 0.00170033 2895.02
0 0.0293199 0.00170027 2894.8
0 0.0294721 0.000122228 1455.89
1.35525e-20 -0.0294721 0.000122259 1455.57
-1.35525e-20 0.0294728 7.47971e-08 1460
0 -0.0294728 7.47973e-08 1459.67
0 0.0294797 0.000527865 1845.42
1.35525e-20 -0.0294797 0.000527979 1845.18
0 0.0294753 0.0007964 2254.07
0 -0.0294753 0.000796545 2253.94
0 0.0294755 0.00118677 2840.68
-2.03288e-20 -0.0294755 0.00118694 2840.6
-6.77626e-21 0.0294683 0.00147423 3076.96
1.35525e-20 -0.0294683 0.00147436 3076.95
6.77626e-21 0.0294625 0.00186313 2486.63
-1.35525e-20 -0.0294625 0.00186321 2487.12
2.71051e-20 -0.029578 6.6417e-08 1433.84
0 0.029578 6.64162e-08 1434.28
0 -0.0295009 0.00213468 1573.31
-6.77626e-21 0.0295009 0.00213468 1572.33
1.35525e-20 0.029587 0.000650923 1850.91
-2.71051e-20 -0.029587 0.000651142 1865.98
1.35525e-20 0.0295378 0.00203788 1836.36
0 -0.0295378 0.00203791 1837.27
0 0.0295841 0.00130575 2570.02
-1.35525e-20 -0.0295841 0.001306 2604.34
0 0.0295849 0.00192062 1939.9
6.77626e-21 -0.0295849 0.00192072 1965.72
0 0.029649 0.00216152 1848.75
1.35525e-20 -0.029649 0.00216153 1849.55
0 0.0297926 0.000963737 2989.21
-1.35525e-21 -0.0297926 0.000964021 2994.55
0 0.0298094 7.62576e-08 1729.22
0 -0.0298094 7.62593e-08 1728.71
-2.25875e-22 -0.0298204 0.000317605 1695.72
6.77626e-22 0.0298204 0.000317475 1694.67
4.96926e-21 0.0297852 0.00156831 3578.17
-9.03502e-22 -0.0297852 0.00156853 3586.78
5.64689e-22 0.0297946 0.00197119 2008.19
-5.64689e-22 -0.0297946 0.00197126 2009.13
0 -0.0298851 8.57398e-08 1645.36
6.77626e-21 0.0298851 8.57415e-08 1645.78
6.77626e-21 0.0298185 0.00219226 1519.15
-2.71051e-20 -0.0298186 0.00219226 1520.33
1.35525e-20 -0.0299229 0.00221118 1651.13
-1.35525e-20 0.0299229 0.00221118 1650.32
0 -0.0300583 1.01025e-07 1268.82
0 0.0300583 1.01025e-07 1269.18
-9.03502e-21 0.030042 0.00125425 1739.57
-4.51751e-21 -0.0300421 0.00125455 1754.01
2.90411e-21 0.030023 0.00171056 1786.72
-1.64566e-20 -0.0300231 0.00171076 1796.72
9.03502e-21 0.0300766 0.000656709 1401.36
-9.03502e-21 -0.0300766 0.000656982 1406.92
0 0.0301411 0.00011795 1220.63
0 -0.0301411 0.000118016 1220.33
0 0.0301431 9.36971e-08 1220.36
-6.77626e-21 -0.0301431 9.3695e-08 1220.05
1.35525e-20 -0.0300722 0.00223824 1192.29
-1.35525e-20 0.0300722 0.00223824 1191.32
1.35525e-20 -0.0302709 0.000327948 1109.88
0 0.0302709 0.000327843 1109.96
-1.35525e-20 0.0302588 0.000959241 1356.15
0 -0.0302588 0.000959456 1364.18
0 0.0302233 0.00199378 1220.78
0 -0.0302233 0.00199385 1221.56
2.71051e-20 0.0302514 0.00155263 1522.95
0 -0.0302514 0.00155281 1527.28
0 0.0303943 0.00229664 1208.69
1.01644e-20 -0.0303944 0.00229665 1209.54
0 -0.0305071 4.03816e-05 1013.13
3.38813e-21 0.0305071 4.03474e-05 1013
0 -0.0305084 2.78803e-08 1012.65
0 0.0305085 2.78785e-08 1012.53
0 -0.0305355 2.44804e-08 984.9
3.38813e-21 0.0305355 2.44805e-08 984.765
6.77626e-21 0.030464 0.00230926 1266.98
-6.77626e-21 -0.030464 0.00230927 1267.77
3.38813e-21 0.0305559 2.56048e-08 978.421
-3.38813e-21 -0.0305559 2.56052e-08 978.561
3.38813e-21 0.0305566 2.16906e-05 978.401
-3.38813e-21 -0.0305566 2.17043e-05 978.54
1.41172e-22 -0.0305496 0.000656518 978.471
2.11758e-22 0.0305496 0.000656265 972.491
1.8823e-22 0.0305132 0.00170673 1110.88
0 -0.0305132 0.00170684 1115.43
4.51751e-22 0.0305476 0.0012451 1022.17
2.25875e-22 -0.0305476 0.00124527 1031.43
0 -0.030501 0.00231597 1205.59
0 0.030501 0.00231597 1204.78
-3.38813e-21 0.0306237 3.57384e-08 975.508
0 -0.0306238 3.57449e-08 975.68
-3.38813e-21 -0.0306099 0.00219282 1105.07
3.38813e-21 0.03061 0.00219278 1104.3
0 -0.0307226 0.00235616 1172.9
-3.38813e-21 0.0307226 0.00235617 1172.11
-5.42101e-20 -0.0308383 0.000320955 879.644
2.71051e-20 0.0308384 0.000320914 879.235
5.64689e-21 0.0308116 0.00198362 890.944
-2.25875e-21 -0.0308116 0.00198366 892.966
1.35525e-20 -0.0309907 0.00101963 628.742
1.35525e-20 0.0309907 0.00101953 592.555
4.51751e-21 0.0309922 0.00150601 595.298
1.807e-20 -0.0309923 0.00150608 630.514
-1.35525e-20 0.0310395 9.17131e-08 903.704
2.71051e-20 -0.0310395 9.1716e-08 904.174
0 0.0310416 0.000119385 900.813
2.71051e-20 -0.0310416 0.000119381 901.288
0 -0.030965 0.0024001 1131.94
6.77626e-21 0.030965 0.0024001 1131.2
0 -0.030982 0.00237275 1116.67
-6.77626e-21 0.030982 0.00237274 1115.94
0 0.0310105 0.00240831 1131.36
0 -0.0310105 0.00240831 1132.08
0 0.0310179 0.00233593 1032.57
-2.03288e-20 -0.0310179 0.00233593 1034.49
4.51751e-21 -0.0311223 0.000639295 743.31
9.03502e-21 0.0311223 0.000639241 709.302
0 0.0310526 0.00237695 1095.7
0 -0.0310526 0.00237695 1096.43
0 -0.0311459 9.7154e-08 939.714
-1.35525e-20 0.0311459 9.7152e-08 939.211
0 0.031071 0.00241925 1103.53
0 -0.031071 0.00241926 1104.27
2.71051e-20 0.0312091 0.00177617 863.005
2.71051e-20 -0.0312091 0.0017762 911.96
2.71051e-20 0.0312491 0.00122874 651.5
0 -0.0312491 0.00122879 720.332
0 -0.0312858 8.40769e-08 919.546
-1.35525e-20 0.0312858 8.40688e-08 918.969
0 -0.0312917 0.000133801 918.118
0 0.0312917 0.000133814 917.538
2.25875e-21 0.0313889 0.00201505 771.294
-4.51751e-21 -0.0313889 0.00201507 776.893
0 0.0313959 0.00247812 1164.53
0 -0.0313959 0.00247812 1165.29
4.51751e-21 -0.0314932 0.000408813 832.733
-9.03502e-21 0.0314932 0.000408772 818.256
6.77626e-21 -0.0315059 0.00091593 434.61
2.25875e-21 0.0315059 0.000915908 400.083
0 0.0314281 0.00241767 1163.12
0 -0.0314281 0.00241768 1163.87
-2.25875e-21 0.0315016 0.00151821 389.24
2.25875e-21 -0.0315016 0.00151824 423.598
-2.71051e-20 -0.0314985 0.00234892 1043.38
0 0.0314986 0.00234891 1037.99
0 -0.0315086 0.00249848 1282.63
0 0.0315086 0.00249848 1281.93
1.35525e-20 0.0316957 0.000127101 862.763
-1.35525e-20 -0.0316957 0.000127026 863.51
-1.35525e-20 0.0316993 1.28444e-08 862.873
0 -0.0316993 1.28328e-08 863.619
2.71051e-20 -0.0317724 0.000610912 606.321
-2.71051e-20 0.0317724 0.000610901 585.312
-2.71051e-20 0.0317679 0.00121735 340.213
-2.71051e-20 -0.0317679 0.00121736 378.72
0 0.0317537 0.00187034 696.373
0 -0.0317537 0.00187034 725.78
-2.71051e-20 -0.0317094 0.00253469 1453.96
-2.71051e-20 0.0317094 0.00253469 1453.27
-1.35525e-20 -0.0318341 3.55441e-10 865.068
0 0.0318342 3.5764e-10 864.267
5.64689e-22 -0.0317532 0.00228382 1366.65
0 0.0317532 0.0022838 1365.64
0 -0.0319513 4.55602e-10 851.188
0 0.0319515 4.57813e-10 850.295
0 -0.0319524 0.000127644 850.457
-1.35525e-20 0.0319526 0.000127724 849.556
-1.35525e-20 0.031883 0.00256626 1773.13
0 -0.031883 0.00256626 1773.76
0 -0.0319995 0.000914652 324.924
0 0.0319996 0.000914645 299.113
-8.13152e-21 -0.0320112 0.000400526 764.657
1.0842e-20 0.0320112 0.000400506 756.101
0 -0.0320267 0.00227715 1495.85
-2.25875e-21 0.0320267 0.00227715 1465.18
0 0.0320296 0.00251389 2120.38
2.71051e-20 -0.0320296 0.00251388 2120.96
-4.51751e-21 -0.0320975 0.00153751 300.318
2.25875e-21 0.0320975 0.0015375 276.007
6.77626e-21 -0.0320426 0.00259528 2248.84
6.77626e-21 0.0320426 0.00259528 2248.28
4.51751e-21 0.0321203 0.00203456 662.869
-4.51751e-21 -0.0321203 0.00203456 743.812
-1.35525e-20 -0.032135 0.0023896 2162.88
0 0.032135 0.0023896 2162.35
0 0.0322923 0.000126396 821.712
0 -0.0322923 0.000126368 822.772
-1.35525e-20 0.0323016 2.23509e-09 821.593
0 -0.0323016 2.23359e-09 822.649
0 -0.0322106 0.00262564 2320.57
-1.35525e-20 0.0322106 0.00262563 2320.04
1.35525e-20 -0.0322719 0.00254337 2202.28
-1.35525e-20 0.0322719 0.00254337 2201.75
1.35525e-20 -0.032418 2.33105e-09 828.521
1.35525e-20 0.032418 2.33258e-09 827.447
6.77626e-21 -0.0324263 0.000612636 524.211
0 0.0324263 0.000612628 513.434
-4.51751e-21 0.0324222 0.00112458 193.59
-4.51751e-21 -0.0324222 0.0011246 213.019
0 0.0324121 0.00187572 530.743
0 -0.0324121 0.00187572 553.876
0 -0.0323802 0.00265647 1833.93
1.35525e-20 0.0323802 0.00265646 1833.37
0 0.0324114 0.0022971 1380.6
-5.64689e-22 -0.0324114 0.0022971 1403.28
0 -0.032547 2.20758e-09 836.757
0 0.032547 2.20888e-09 835.633
0 -0.0325489 0.000125731 836.754
1.35525e-20 0.0325489 0.000125761 835.63
-1.35525e-20 0.0326034 0.00269726 1964.25
6.77626e-21 -0.0326035 0.00269726 1964.72
0 -0.032737 0.000308379 843.275
-2.71051e-20 0.032737 0.000308371 842.096
2.25875e-21 -0.0327282 0.00154847 240.025
0 0.0327282 0.00154846 218.509
0 0.0326738 0.00254252 1839.21
-4.51751e-21 -0.0326738 0.00254252 1839.74
9.03502e-21 0.0327075 0.00206802 526.274
-4.51751e-21 -0.0327075 0.00206803 540.822
2.71051e-20 -0.0327081 0.00271619 1916.76
0 0.0327081 0.00271619 1916.23
4.51751e-21 0.0328421 0.000917798 233.207
0 -0.0328421 0.00091781 250.689
-1.35525e-20 -0.0328866 1.93643e-09 853.608
0 0.0328867 1.93676e-09 852.397
1.35525e-20 -0.032889 0.000149431 853.607
1.35525e-20 0.032889 0.00014945 852.396
1.93608e-21 0.0329824 0.000542139 626.595
-1.93608e-20 -0.0329825 0.000542161 634.244
-2.71051e-20 -0.0330372 1.79015e-09 856.667
0 0.0330372 1.79024e-09 855.453
0 0.0329464 0.00275986 1448.14
0 -0.0329464 0.00275986 1448.9
-2.25875e-22 -0.0329866 0.00235418 1163.03
1.01644e-21 0.0329866 0.00235417 1153.87
-2.71051e-20 0.0330505 0.0012313 160.372
2.71051e-20 -0.0330505 0.00123132 180.051
0 0.03302 0.00190093 427.22
0 -0.03302 0.00190094 440.792
0 -0.0332006 2.02157e-09 861.253
0 0.0332007 2.02156e-09 859.986
-6.77626e-21 -0.0333521 0.000302632 798.58
-4.51751e-21 0.0333521 0.00030262 795.358
6.77626e-21 0.0333579 0.000916518 228.084
9.03502e-21 -0.0333579 0.000916545 244.542
-3.38813e-21 0.0332515 0.00281589 1668.75
0 -0.0332516 0.00281589 1669.68
0 -0.0333432 0.00156301 195.888
0 0.0333432 0.00156299 172.701
0 0.0332953 0.00276465 1702.72
0 -0.0332954 0.0027646 1703.7
-3.72694e-20 0.0333124 0.00282716 1672.7
0 -0.0333125 0.00282717 1673.65
1.12938e-20 0.03334 0.00259894 1616.78
-3.38813e-21 -0.03334 0.00259895 1619.21
2.25875e-21 0.0333776 0.00214933 482.522
-9.03502e-21 -0.0333776 0.00214934 507.528
0 -0.0334909 2.97183e-09 868.662
-1.35525e-20 0.0334909 2.97138e-09 867.323
0 -0.0336619 3.20036e-09 873.446
2.71051e-20 0.033662 3.19979e-09 872.1
0 0.0336674 0.000602348 518.227
2.71051e-20 -0.0336674 0.000602386 527.851
0 0.0336288 0.00191783 360.428
0 -0.0336288 0.00191785 381.028
2.71051e-20 0.0336642 0.00123333 137.325
0 -0.0336642 0.00123337 155.903
-2.71051e-20 0.0335882 0.00287788 1470.61
2.71051e-20 -0.0335883 0.00287789 1471.55
2.71051e-20 0.0336882 0.00242285 1054.6
2.71051e-20 -0.0336882 0.00242286 1071.61
0 -0.0338384 2.82135e-09 874.535
0 0.0338384 2.82081e-09 873.119
-1.35525e-20 0.0338118 0.00291884 1375.71
0 -0.0338119 0.00291885 1376.66
-6.77626e-21 -0.0339781 0.000302716 807.795
2.25875e-21 0.0339781 0.000302698 804.768
1.12938e-20 -0.0339808 0.000914846 235.426
-4.51751e-21 0.0339808 0.000914783 221.019
-1.12938e-20 0.0339744 0.00155885 137.826
6.77626e-21 -0.0339744 0.0015589 155.951
-2.03288e-21 0.0339479 0.0026773 1376.54
-1.12938e-21 -0.033948 0.00267731 1378.45
-2.25875e-21 0.0339878 0.00215892 408.318
-4.51751e-21 -0.0339878 0.00215894 413.765
-1.35525e-20 0.0341105 1.81896e-09 877.473
0 -0.0341105 1.81909e-09 878.9
0 0.034033 0.00295946 1352.57
-6.77626e-21 -0.0340333 0.00295951 1353.41
0 -0.0342884 1.43974e-09 887.488
2.71051e-20 0.0342884 1.43965e-09 886.121
2.71051e-20 -0.0342943 0.000599028 531.734
0 0.0342944 0.000598959 523.635
4.06576e-20 0.0342165 0.00299309 1411.68
0 -0.0342167 0.00299313 1412.38
2.71051e-20 0.0342949 0.00244902 932.289
-2.71051e-20 -0.0342949 0.00244904 953.426
1.74247e-20 -0.034362 0.00129523 125.655
-1.16165e-20 0.034362 0.00129516 110.814
0 -0.0343655 0.00179195 172.756
-9.68038e-21 0.0343655 0.00179189 149.564
0 0.0343332 0.00301467 1156.88
0 -0.0343333 0.00301469 1157.88
-1.35525e-20 -0.0344682 1.2841e-09 891.22
2.71051e-20 0.0344682 1.284e-09 889.849
9.03502e-21 -0.0345084 0.000909543 227.798
4.51751e-21 0.0345085 0.000909463 215.435
-9.03502e-21 0.0345181 0.00215903 332.217
-9.03502e-21 -0.0345181 0.00215907 345.105
-2.25875e-21 -0.0346072 0.000300839 824.939
-4.51751e-21 0.0346072 0.000300792 822.085
0 0.0346152 0.0015431 86.1912
2.71051e-20 -0.0346152 0.00154318 101.337
-4.51751e-22 0.0345577 0.00272973 960.076
7.90564e-22 -0.0345578 0.00272972 961.572
-6.77626e-21 0.0345982 0.00306315 1168.65
0 -0.0345983 0.00306318 1169.56
-1.35525e-20 0.0347357 9.21209e-10 904.265
-1.35525e-20 -0.0347357 9.21261e-10 905.634
6.77626e-21 0.0346817 0.0030786 1308.84
6.77626e-21 -0.0346818 0.00307861 1309.59
0 -0.0349166 7.64663e-10 925.56
0 0.0349166 7.64607e-10 924.204
-9.03502e-21 -0.0349264 0.000691229 401.167
1.807e-20 0.0349264 0.000691147 390.63
6.77626e-21 0.0349292 0.00121456 116.946
1.12938e-20 -0.0349292 0.00121466 131.285
4.51751e-21 0.0349324 0.00185908 134.67
-2.25875e-21 -0.0349324 0.00185915 147.395
-3.04932e-20 0.0348918 0.00311689 1521.4
-1.69407e-20 -0.0348919 0.00311691 1522.18
-6.77626e-21 0.0349974 0.00246603 696.627
-4.51751e-21 -0.0349975 0.00246603 723.663
-1.35525e-20 -0.0350985 7.00968e-10 932.837
-2.71051e-20 0.0350985 7.00918e-10 931.42
0 0.0350013 0.00286026 1486.8
-9.03502e-21 -0.0350014 0.00286027 1490.34
0 -0.0352407 0.000295921 859.97
4.51751e-21 0.0352407 0.000295875 856.942
0 0.0352487 0.000893704 152.312
0 -0.0352487 0.000893811 169.265
3.38813e-20 0.0351346 0.00316138 2008.46
2.71051e-20 -0.0351347 0.0031614 2009.29
-2.71051e-20 0.0352503 0.00152796 77.1956
2.71051e-20 -0.0352503 0.00152806 88.8058
0 0.0351466 0.00316358 2014.48
1.69407e-21 -0.0351467 0.00316359 2015.25
0 0.0351792 0.00281931 1530.93
-6.77626e-21 -0.0351793 0.00281934 1553.9
1.69407e-21 0.0351514 0.0031503 2010.85
0 -0.0351514 0.00315042 2011.65
0 0.0352563 0.002173 162.262
0 -0.0352563 0.00217304 168.982
-3.38813e-21 -0.0352266 0.00317815 2022.33
-8.47033e-22 0.0352273 0.00317828 2021.63
-1.35525e-20 0.0353735 5.21769e-10 949.056
0 -0.0353735 5.21782e-10 950.512
6.77626e-21 0.0353094 0.00290198 1761.72
0 -0.0353094 0.00290197 1785.59
-2.71051e-20 -0.0355533 4.57347e-10 984.339
-2.71051e-20 0.0355533 4.57338e-10 982.928
6.77626e-21 0.0355671 0.001196 115.236
-2.25875e-21 -0.0355671 0.00119611 129.026
-2.25875e-21 0.0355696 0.00184888 110.457
-2.25875e-21 -0.0355696 0.00184895 122.678
-2.25875e-21 -0.0356125 0.00062238 530.059
-4.51751e-21 0.0356125 0.0006223 520.567
1.12938e-20 0.0355744 0.00250526 580.159
-2.25875e-21 -0.0355744 0.00250527 609.241
3.38813e-21 -0.0355282 0.00323309 2132.03
-6.77626e-21 0.0355283 0.0032331 2131.16
0 -0.0355416 0.00321424 2105.49
0 0.0355417 0.00321429 2104.68
4.51751e-21 0.0355809 0.00287392 1430.45
4.51751e-21 -0.0355809 0.00287394 1448.79
-3.38813e-21 0.0355739 0.00316255 1907.7
0 -0.0355739 0.00316239 1913.98
0 -0.035567 0.00324017 2012.34
6.77626e-21 0.035567 0.00324016 2011.72
0 -0.0357313 4.0682e-10 988.54
2.71051e-20 0.0357313 4.06801e-10 987.087
0 0.0356067 0.00321938 2030.79
0 -0.0356068 0.00321934 2031.45
0 0.03562 0.00324983 2033.36
3.38813e-21 -0.0356201 0.00324986 2034.01
0 -0.0358767 0.000193584 996.806
-9.03502e-21 0.0358767 0.000193565 995.341
2.71051e-20 0.035885 0.00087563 158.115
0 -0.035885 0.000875722 173.496
2.71051e-20 0.0358905 0.00150745 70.3469
-2.71051e-20 -0.0358906 0.00150754 81.3602
2.71051e-20 0.035888 0.00216762 126.062
2.71051e-20 -0.035888 0.00216765 146.45
0 0.0358662 0.00295245 1347.66
6.77626e-21 -0.0358662 0.00295244 1353.04
1.35525e-20 0.0360202 2.4784e-10 1005.48
1.35525e-20 -0.0360202 2.47859e-10 1006.97
6.77626e-21 -0.036024 0.00332348 1773.11
0 0.0360241 0.0033235 1772.23
0 -0.0361958 1.9684e-10 1053.5
-2.71051e-20 0.0361958 1.96811e-10 1052.07
2.25875e-21 -0.0362011 0.000563602 611.671
0 0.0362011 0.00056354 603.457
0 -0.03606 0.00326909 1725.62
-2.71051e-20 0.03606 0.00326916 1724.78
9.03502e-21 0.036206 0.00117906 115.093
6.77626e-21 -0.036206 0.00117914 128.649
0 0.0362044 0.00184432 92.9957
0 -0.0362045 0.00184436 111.093
6.77626e-21 0.0361886 0.0025326 444.258
4.51751e-21 -0.0361886 0.0025326 465.754
0 0.0361316 0.00334311 1555.83
1.35525e-20 -0.0361316 0.00334312 1556.54
-4.51751e-21 0.0361686 0.00293576 1136.46
4.51751e-21 -0.0361686 0.00293578 1145.8
-1.35525e-20 0.0361566 0.00314793 1390.15
0 -0.0361566 0.00314776 1395.91
2.71051e-20 -0.0363723 1.67552e-10 1039.19
-2.71051e-20 0.0363723 1.67523e-10 1037.72
0 0.0362561 0.00328629 1645.35
0 -0.0362563 0.00328624 1646.16
-6.77626e-21 0.0363064 0.00337495 1673.82
0 -0.0363066 0.003375 1674.68
9.03502e-21 -0.0365138 0.000190574 1044.19
-9.03502e-21 0.0365138 0.000190566 1042.7
0 0.0365218 0.000862039 162.908
0 -0.0365218 0.000862105 178.829
0 0.0365244 0.00149871 65.5332
-2.71051e-20 -0.0365244 0.00149876 77.5995
2.71051e-20 0.0365144 0.00218215 106.298
2.71051e-20 -0.0365144 0.00218218 136.262
4.06576e-20 0.0364787 0.00289846 759.408
-1.35525e-20 -0.0364787 0.00289841 778.943
-1.35525e-20 0.0366527 8.42396e-11 1050.32
1.35525e-20 -0.0366527 8.42454e-11 1051.84
-8.13152e-21 0.036569 0.00323497 1608.22
-8.13152e-21 -0.036569 0.00323494 1609.08
-1.35525e-20 -0.0365533 0.00341997 1730.81
2.71051e-20 0.0365534 0.00341998 1730.01
6.77626e-21 0.0367898 0.00059899 564.789
4.51751e-21 -0.0367898 0.000599027 574.61
-2.71051e-20 -0.0368341 5.55828e-11 1108.02
-2.71051e-20 0.0368341 5.55766e-11 1106.51
-4.51751e-21 0.0368407 0.00116982 115.147
9.03502e-21 -0.0368407 0.00116987 129.565
-2.25875e-21 0.0368347 0.0018451 81.3367
4.51751e-21 -0.0368347 0.00184514 101.107
-2.25875e-21 0.0368044 0.00255426 378.065
6.77626e-21 -0.0368045 0.00255425 407.627
-2.71051e-20 0.0367776 0.00346083 1591.59
0 -0.0367778 0.00346085 1592.3
5.87276e-21 -0.0368391 0.00303501 1181.06
-4.06576e-21 0.0368391 0.00303502 1162.39
-1.35525e-20 -0.0370199 4.78266e-11 1069.09
-2.71051e-20 0.0370199 4.78194e-11 1067.53
4.51751e-21 -0.0371489 0.000281532 978.23
-2.25875e-21 0.0371489 0.000281513 974.938
0 0.0371548 0.000855733 165.243
0 -0.0371548 0.000855772 182.425
2.71051e-20 0.0371549 0.00149544 62.3873
0 -0.0371549 0.00149548 74.6908
0 0.037144 0.00218136 89.1114
0 -0.0371441 0.00218137 114.291
-3.38813e-20 0.0370561 0.00351158 1457.59
2.37169e-20 -0.0370564 0.00351163 1458.07
1.35525e-20 -0.03727 2.98601e-11 1076.07
0 0.0372701 2.98577e-11 1074.42
-2.71051e-20 0.0371711 0.00278346 307.049
0 -0.0371712 0.00278344 366.687
2.03288e-20 -0.0371161 0.00352251 1469.97
-1.01644e-20 0.0371162 0.00352254 1469.59
-4.51751e-21 0.0371348 0.00333234 1602.63
0 -0.0371348 0.00333228 1603.12
0 -0.0374605 2.2222e-11 1140.48
-2.71051e-20 0.0374606 2.22185e-11 1138.78
-4.51751e-21 -0.0374674 0.000637921 485.335
-9.03502e-21 0.0374674 0.000637907 471.002
2.25875e-21 0.0374702 0.00116479 115.073
4.51751e-21 -0.0374702 0.00116482 131.487
0 0.0374664 0.00184005 71.9538
-3.38813e-21 -0.0374664 0.00184006 92.1331
3.38813e-21 0.0374681 0.0024973 180.741
1.12938e-21 -0.0374682 0.00249729 215.533
-6.77626e-21 0.0374674 0.00307432 1011.87
5.64689e-21 -0.0374674 0.00307432 1028.61
0 0.0374247 0.00357873 1603.84
1.35525e-20 -0.0374247 0.00357874 1604.36
1.35525e-20 -0.0376529 1.86798e-11 1086.64
-1.35525e-20 0.0376529 1.86765e-11 1084.83
-9.03502e-21 -0.0377742 0.000280176 995.498
4.51751e-21 0.0377742 0.000280173 991.884
2.71051e-20 -0.0377819 0.000851964 189.506
-2.71051e-20 0.0377819 0.000851941 166.899
0 0.0377837 0.0014916 60.3129
2.71051e-20 -0.0377837 0.00149162 73.384
0 -0.03766 0.00362143 1091.01
0 0.0376601 0.00362145 1090.06
0 0.0377819 0.00216984 75.4674
0 -0.0377819 0.00216984 105.844
0 0.0377772 0.00279747 229.122
0 -0.0377773 0.00279747 248.306
-1.35525e-20 -0.0378849 1.07515e-11 1094.5
4.06576e-20 0.0378849 1.07501e-11 1092.62
-6.77626e-21 0.0377229 0.00353539 1014.42
0 -0.0377229 0.00353515 1015.17
1.12938e-21 -0.0377798 0.00335648 1122.15
5.64689e-21 0.0377798 0.00335651 1119.68
6.77626e-21 0.0377787 0.00364282 1037
0 -0.0377788 0.00364285 1037.82
-2.71051e-20 -0.0380777 7.23339e-12 1163.18
0 0.0380777 7.23213e-12 1161.32
-4.51751e-21 -0.0380891 0.000630768 499.052
0 0.0380891 0.000630766 484.235
-4.51751e-21 -0.0380959 0.00115845 132.529
0 0.0380959 0.00115844 115.498
7.90564e-21 0.0380968 0.00183414 64.8142
9.03502e-21 -0.0380968 0.00183414 87.5656
0 -0.0379953 0.00368205 1196.4
2.71051e-20 0.0379953 0.00368205 1195.68
0 0.0380943 0.00250914 144.728
2.25875e-21 -0.0380943 0.00250913 174.446
0 0.0380786 0.00304222 665.535
0 -0.0380786 0.00304218 681.675
1.35525e-20 -0.0382651 6.08614e-12 1111.99
-2.71051e-20 0.0382652 6.08489e-12 1110.09
0 -0.0381487 0.00370985 950.097
6.77626e-21 0.0381488 0.00370987 949.069
6.77626e-21 -0.0383423 0.000233977 1054.56
0 0.0383424 0.000233978 1051.49
-2.71051e-20 -0.0384028 0.00084336 188.27
2.71051e-20 0.0384028 0.000843355 170.126
0 0.03841 0.00148269 58.9098
5.42101e-20 -0.03841 0.0014827 72.9769
2.71051e-20 0.0384072 0.00217157 64.7586
0 -0.0384072 0.00217157 98.3915
-3.16226e-21 0.0383454 0.00341258 892.818
1.807e-21 -0.0383454 0.00341256 897.105
0 -0.0385068 3.26132e-12 1134.84
-1.35525e-20 0.0385068 3.26128e-12 1132.89
2.71051e-20 0.0384087 0.00283772 195.481
0 -0.0384087 0.0028377 230.326
1.35525e-20 0.0383426 0.00374466 991.707
2.03288e-20 -0.0383427 0.00374468 992.803
1.35525e-20 -0.0384724 0.00376815 1205.36
1.35525e-20 0.0384725 0.00376815 1204.55
0 -0.038689 2.10775e-12 1217.14
0 0.038689 2.10772e-12 1215.16
-4.51751e-21 -0.0387011 0.000532416 701.459
1.12938e-20 0.0387011 0.000532409 689.019
-2.25875e-21 -0.0387193 0.00114095 136.267
5.64689e-21 0.0387193 0.00114095 117.964
0 -0.0387248 0.0018202 82.2679
-3.38813e-21 0.0387248 0.00182019 59.3038
-5.64689e-21 0.0387232 0.00251582 120.342
-1.12938e-21 -0.0387232 0.00251581 152.796
-2.71051e-20 0.0386563 0.00380883 1406.72
-1.35525e-20 -0.0386564 0.00380883 1407.68
1.35525e-20 -0.0388555 1.85419e-12 1191.48
0 0.0388556 1.85403e-12 1189.45
-1.35525e-20 0.0386904 0.00364444 1410.93
0 -0.0386905 0.0036444 1411.86
1.12938e-21 0.0387735 0.00324347 840.092
-1.69407e-21 -0.0387735 0.00324347 872.842
-8.13152e-21 -0.0389089 0.000183069 1194.17
-1.0842e-20 0.038909 0.000183082 1192.12
2.71051e-20 -0.0390203 0.000818137 207.688
2.71051e-20 0.0390203 0.000818137 179.013
1.35525e-20 0.0388759 0.00384263 1862.03
2.71051e-20 -0.0388759 0.00384264 1862.88
0 -0.0390392 0.00145468 70.2582
0 0.0390393 0.00145468 58.1886
0 0.0390375 0.00215229 55.6261
0 -0.0390375 0.00215229 87.7404
3.38813e-21 -0.0389282 0.00385221 1896.6
0 0.0389282 0.00385223 1895.88
-3.38813e-21 -0.038953 0.00379144 1881.03
3.38813e-21 0.0389531 0.00379134 1880.3
-2.71051e-20 0.0390404 0.00284543 153.561
0 -0.0390404 0.00284542 182.363
0 -0.0391597 9.05541e-13 1283.39
0 0.0391598 9.0537e-13 1281.4
1.35525e-20 -0.0391706 0.00011479 1284.9
0 0.0391707 0.000114814 1282.92
0 0.0391098 0.0036138 1686.81
-4.51751e-21 -0.0391098 0.00361378 1700.8
0 -0.0393055 6.51231e-13 1400.43
-1.35525e-20 0.0393056 6.50934e-13 1398.54
1.12938e-21 -0.0393117 0.000500471 794.795
2.25875e-21 0.0393118 0.000500466 801.229
-1.12938e-21 -0.0393491 0.00108814 132.837
2.25875e-21 0.0393492 0.00108814 132.734
1.12938e-21 -0.0393637 0.00177668 78.8141
2.25875e-21 0.0393637 0.00177668 56.7581
1.35525e-20 -0.0394217 8.75992e-05 1431.07
0 0.0394218 8.76205e-05 1429.27
-1.35525e-20 -0.0394265 6.04603e-13 1427.29
-1.35525e-20 0.0394267 6.044e-13 1425.49
3.38813e-21 -0.0393554 0.00250019 129.059
6.77626e-21 0.0393554 0.0025002 95.9265
1.69407e-21 -0.0392485 0.0039119 1931.01
-8.47033e-22 0.039249 0.00391199 1930.4
-3.16226e-21 0.0393554 0.00323491 673.348
-4.51751e-22 -0.0393554 0.0032349 717.086
0 -0.03933 0.00392844 1964.4
0 0.03933 0.00392844 1963.65
0 -0.0393346 0.0039231 1955.53
0 0.0393346 0.00392312 1954.82
-1.69407e-21 -0.0393412 0.00393112 1933.28
0 0.0393412 0.00393111 1932.68
0 -0.0393435 0.00390963 1906.85
0 0.0393435 0.00390973 1904.18
1.69407e-21 0.039353 0.00392505 1934.29
0 -0.0393531 0.00392504 1934.9
1.69407e-21 0.0393594 0.00393583 1934.77
0 -0.0393595 0.00393586 1935.38
-2.71051e-20 -0.0396051 0.000230853 1514.51
-2.71051e-20 0.0396052 0.000230855 1512.79
-2.71051e-20 -0.0396385 0.000745418 165.968
0 0.0396385 0.000745416 223.38
0 -0.0396943 0.00136798 78.0816
2.71051e-20 0.0396943 0.00136799 64.3309
2.71051e-20 0.0396773 0.00211516 49.4628
0 -0.0396773 0.00211516 79.5796
1.16165e-20 -0.0395841 0.00366052 1347.28
-7.7443e-21 0.0395841 0.00366052 1333.89
2.71051e-20 0.0396652 0.00283591 117.235
5.42101e-20 -0.0396652 0.0028359 160.231
-6.02335e-21 -0.0398974 0.000433621 865.498
-1.50584e-21 0.0398975 0.000433615 879.075
-1.35525e-20 -0.0397727 0.00404312 1661.39
-1.35525e-20 0.0397728 0.00404312 1660.72
-1.35525e-20 -0.0398264 0.00397879 1585.72
0 0.0398264 0.0039788 1585.04
1.05879e-22 -0.0400317 5.26959e-07 1179.06
1.05879e-22 0.0400329 3.79511e-07 1177.13
4.51751e-21 -0.0400248 0.000878079 291.959
2.44698e-21 0.0400249 0.000878071 296.277
-1.8823e-22 -0.0400178 0.0017144 81.4467
2.35287e-22 0.0400178 0.0017144 60.2459
-2.25875e-21 0.0399831 0.00248337 78.4047
-2.25875e-21 -0.0399831 0.00248337 118.607
-6.77626e-21 0.0399582 0.00322784 439.288
0 -0.0399582 0.00322782 478.648
3.38813e-21 0.0399279 0.00368209 1076.03
3.38813e-21 -0.0399279 0.00368208 1091.31
1.35525e-20 0.0399097 0.0040785 1528.78
0 -0.0399097 0.0040785 1529.46
0 0.0400592 0.00398574 1404.81
0 -0.0400592 0.00398573 1405.45
0 -0.0403283 0.00130607 78.045
0 0.0403283 0.00130608 67.308
0 -0.0403037 0.00209241 76.8259
0 0.0403037 0.00209241 45.0384
0 0.0402835 0.00284207 96.414
0 -0.0402835 0.00284206 153.632
1.50584e-21 -0.0403926 0.000332763 801.193
-1.50584e-21 0.0403926 0.000332742 798.95
1.35525e-20 0.0402359 0.00359474 695.316
-1.35525e-20 -0.0402359 0.00359473 721.058
8.47033e-22 -0.0402066 0.00415491 1391.43
0 0.0402066 0.00415492 1390.81
0 -0.0402147 0.0041461 1383.17
-6.77626e-21 0.0402147 0.00414611 1382.56
1.69407e-21 0.040223 0.00415913 1379.54
0 -0.040223 0.00415913 1380.16
1.35525e-20 0.0403025 0.00393731 1323.61
0 -0.0403025 0.00393731 1324.3
1.35525e-20 0.0405607 2.46968e-14 928.245
0 -0.0405607 2.44752e-14 931.133
0 0.0406279 0.00170818 56.1996
1.35525e-21 -0.0406279 0.00170819 78.2928
0 -0.0406701 0.000834219 316.449
-4.51751e-21 0.0406701 0.00083421 306.293
0 -0.0406057 0.00247168 110.132
3.38813e-21 0.0406057 0.00247169 65.1878
-2.25875e-21 0.0405666 0.00323479 353.318
2.25875e-21 -0.0405666 0.00323478 413.255
0 -0.0407119 1.90384e-14 958.467
-1.35525e-20 0.040712 1.91278e-14 955.491
-1.35525e-20 0.0404944 0.00422897 1344.99
1.35525e-20 -0.0404944 0.00422897 1345.79
1.35525e-21 -0.0405858 0.00374196 1020.85
2.25875e-21 0.0405858 0.00374196 987.362
0 -0.0406597 0.00427138 1140.49
0 0.0406597 0.00427138 1139.61
1.35525e-20 -0.0408969 1.55715e-14 886.213
0 0.0408971 1.56359e-14 882.745
0 -0.0409487 0.00130372 79.6548
-2.71051e-20 0.0409487 0.00130372 70.0076
5.42101e-20 -0.0409201 0.0020848 73.2136
0 0.0409201 0.0020848 40.7893
-9.03502e-22 -0.0410086 0.000322017 762.935
4.51751e-22 0.0410086 0.000322026 758.699
0 -0.0409146 0.0028276 134.063
-2.71051e-20 0.0409146 0.0028276 75.1233
-1.12938e-21 -0.0408447 0.00406283 1171.39
-5.64689e-21 0.0408447 0.00406283 1170.51
6.77626e-21 0.0408408 0.00431796 1148.12
0 -0.0408408 0.00431797 1149.08
2.71051e-20 0.0409362 0.00347657 280.848
0 -0.0409362 0.00347657 402.51
-1.35525e-20 0.0411094 7.75655e-15 872.928
0 -0.0411094 7.73129e-15 876.494
0 -0.0409874 0.00435557 1398.34
0 0.0409874 0.00435557 1397.45
-5.64689e-23 0.0412469 0.00170094 54.0529
6.21157e-22 -0.0412469 0.00170094 75.9429
0 -0.0413012 4.34563e-15 950.212
2.71051e-20 0.0413013 4.34595e-15 946.789
9.03502e-22 -0.0413202 0.000890383 311.655
2.71051e-21 0.0413202 0.000890378 295.147
4.84019e-22 0.0412697 0.00242851 60.8839
0 -0.0412697 0.00242851 110.274
1.12938e-21 0.0412342 0.00316541 160.723
4.51751e-21 -0.0412342 0.0031654 247.19
-1.35525e-20 -0.0411644 0.00440118 1549.13
2.03288e-20 0.0411644 0.00440117 1548.22
-2.71051e-20 0.0412011 0.00424423 1611.39
1.35525e-20 -0.0412011 0.00424423 1612.27
3.76459e-22 -0.0412617 0.00386066 1111.79
7.52918e-22 0.0412617 0.00386065 1053.14
0 -0.0415153 3.77728e-15 826.775
6.77626e-21 0.0415154 3.77853e-15 823.088
1.6134e-22 -0.0416023 0.000359253 706.641
-3.63014e-22 0.0416024 0.000359417 701.708
-2.37169e-20 0.041381 0.00445698 1955.27
-1.01644e-20 -0.041381 0.00445698 1956.13
-2.71051e-20 0.0415425 0.00282192 64.5106
0 -0.0415425 0.00282192 134.674
-1.35525e-20 0.0416467 3.22341e-15 817.909
-6.77626e-21 -0.0416467 3.22129e-15 821.691
0 0.0414294 0.00446946 1977.7
0 -0.0414294 0.00446946 1978.54
0 -0.0416572 0.00147076 74.4367
2.71051e-20 0.0416573 0.00147076 57.3652
0 0.041459 0.00440816 1977.21
0 -0.041459 0.00440816 1978.03
0 0.0415524 0.00348663 200.147
-2.71051e-20 -0.0415525 0.00348663 289.605
2.71051e-20 -0.0416533 0.00196587 74.6022
2.71051e-20 0.0416533 0.00196586 44.658
0 0.0416194 0.00422689 1848.29
2.25875e-21 -0.0416194 0.00422689 1864.01
2.71051e-20 -0.0418805 2.71793e-15 913.26
-1.35525e-20 0.0418805 2.7212e-15 909.179
0 -0.0418773 0.000883306 327.046
1.8823e-22 0.0418773 0.000883282 304.826
-1.69407e-21 0.0416456 0.00452513 1964.93
-1.69407e-21 -0.0416456 0.00452514 1965.8
0 -0.0418628 0.00171416 73.3866
0 0.0418628 0.00171416 50.9851
-5.64689e-22 -0.0418731 0.00245819 103.754
1.97641e-21 0.0418731 0.00245819 52.7123
0 0.0418583 0.00315862 118.357
0 -0.0418584 0.00315862 192.307
1.807e-21 0.0418665 0.00386141 786.472
2.71051e-21 -0.0418666 0.00386141 857.56
3.38813e-21 0.0418114 0.00456782 2015.41