# omega  POINT_DATA 26828
# x  y  z  omega
0.0106418 -1.35525e-20 6.54156e-08 1043.08
-0.0106418 1.35525e-20 6.54156e-08 1043.49
-0.0106418 1.69407e-21 0.000314268 932.419
0.0106418 -5.0822e-21 0.000314344 931.985
-0.0106418 1.69407e-21 0.000346265 943.669
0.0106418 6.77626e-21 0.000346349 943.239
-0.0106418 1.35525e-20 0.000664313 1248.95
0.0106418 2.71051e-20 0.000664474 1248.61
0.0106696 -1.69407e-21 0.000329749 927.361
-0.0106696 0 0.000329666 927.792
-0.0106418 0 0.000994725 1175.86
0.0106418 -1.86347e-20 0.000994893 1175.55
-0.0106418 0 0.00102871 1190.55
0.0106418 0 0.00102888 1190.25
-0.0106651 0 0.00100861 1172
0.0106651 -6.77626e-21 0.00100878 1171.7
-0.0106418 0 0.00135928 1549.34
0.0106418 0 0.00135945 1548.98
-0.0106418 0 0.00170832 1287.63
0.0106418 -8.47033e-21 0.00170841 1287.26
-0.0106418 0 0.00174301 1281.24
0.0106418 0 0.00174309 1280.89
-0.0106634 1.69407e-21 0.0017166 1274.12
0.0106634 -1.35525e-20 0.00171669 1273.75
0.0106417 0 0.002087 1338.74
-0.0106417 0 0.002087 1338.72
0.0108523 -4.06576e-20 6.90498e-08 962.75
-0.0108523 -2.71051e-20 6.90496e-08 963.151
-0.0108538 -4.51751e-21 0.000983453 1261.28
0.0108538 -4.51751e-21 0.000983665 1260.99
-0.0109302 1.12938e-21 0.000328472 962.176
0.0109302 -1.01644e-20 0.000328579 961.411
-0.010876 6.77626e-21 0.00165245 1286.32
0.010876 -4.51751e-21 0.0016526 1285.72
-0.0110233 0 5.24962e-08 931.738
0.0110233 -6.77626e-21 5.24948e-08 931.236
-0.0108444 6.77626e-21 0.00218791 909.392
0.0108444 -1.35525e-20 0.00218792 909.563
-0.010932 -6.77626e-21 0.00223158 913.809
0.0109321 0 0.0022316 914.017
-0.0109511 -1.35525e-20 0.00214941 831.865
0.0109511 -6.77626e-21 0.00214943 832.035
-0.0111742 -1.35525e-20 4.6956e-08 936.757
0.0111742 0 4.69546e-08 936.109
-0.0111378 2.25875e-21 0.00125156 894.776
0.0111378 9.03502e-21 0.00125179 888.662
-0.0111894 2.25875e-21 0.000675217 866.911
0.0111894 -1.12938e-21 0.000675418 862.219
0.0112788 0 0.000114353 885.488
-0.0112788 0 0.000114331 886.236
0.0112885 -1.35525e-20 3.37062e-08 882.665
-0.0112886 1.35525e-20 3.37058e-08 883.423
-0.0111945 -6.77626e-21 0.00167213 811.813
0.0111945 0 0.00167231 805.692
-0.011163 -1.12938e-21 0.00198697 879.609
0.011163 6.77626e-21 0.00198706 878.076
-0.011131 0 0.00233069 1199.66
0.0111311 -2.71051e-20 0.00233071 1199.86
0.0114369 0 0.000317029 796.185
-0.0114369 2.71051e-20 0.000316923 797.111
-0.011421 0 0.000929721 279.064
0.011421 0 0.000929939 265.637
-0.0114038 0 0.0015068 284.627
0.0114039 -2.71051e-20 0.00150698 277.179
-0.0113457 -6.77626e-21 0.00243757 1244.21
0.0113458 -6.77626e-21 0.00243761 1244.33
0.0116363 -1.35525e-20 1.34764e-08 811.54
-0.0116364 0 1.34773e-08 812.497
0.0116375 -1.35525e-20 9.54413e-05 811.995
-0.0116375 1.35525e-20 9.54289e-05 812.95
-0.0114304 6.77626e-21 0.00247976 1375.16
0.0114304 6.77626e-21 0.00247975 1375.11
-0.0115075 -7.90564e-21 0.00225285 1244.25
0.0115075 1.12938e-21 0.00225289 1242.35
0.01173 0 3.26074e-09 823.936
-0.0117301 0 3.25931e-09 824.887
-0.0117195 -2.25875e-21 0.000610218 529.187
0.0117195 2.25875e-21 0.000610384 522.525
-0.0117028 6.77626e-21 0.00122422 220.498
0.0117029 -4.51751e-21 0.00122442 208.873
0.0118194 0 8.96942e-05 831.839
-0.0118195 1.35525e-20 8.96941e-05 832.807
0.0118199 -1.35525e-20 3.03241e-09 832.009
-0.01182 1.35525e-20 3.03105e-09 832.978
-0.0116772 -2.25875e-21 0.0018372 553.441
0.0116772 2.25875e-21 0.00183732 538.537
-0.0116033 0 0.0025659 1817.26
0.0116034 0 0.00256591 1817.4
0.0120204 0 0.000307092 848.612
-0.0120205 0 0.000307025 849.611
-0.0117486 -1.35525e-20 0.00263818 1891.08
0.0117487 1.35525e-20 0.00263823 1891.2
-0.0120156 -2.71051e-20 0.000916995 169.416
0.0120156 0 0.000917127 157.73
-0.0118319 -3.01167e-21 0.00229967 1318.59
0.011832 -7.52918e-21 0.00229972 1304.31
-0.0117787 0 0.00256194 1879.75
0.0117789 0 0.00256195 1879.86
-0.0119887 -2.71051e-20 0.00155402 142.098
0.0119887 0 0.00155414 128.033
-0.012032 -5.42101e-20 0.00210266 399.822
0.0120321 0 0.00210273 353.485
0.0122392 1.35525e-20 1.95038e-09 863.269
-0.0122392 1.35525e-20 1.9503e-09 864.241
0.0122409 0 8.16586e-05 863.279
-0.012241 -1.35525e-20 8.16739e-05 864.25
-0.0119871 2.71051e-20 0.00253932 2186.59
0.0119872 0 0.00253936 2186.62
0.012321 0 1.7426e-09 867.031
-0.0123211 -1.35525e-20 1.74255e-09 867.985
-0.0120125 0 0.00276933 1843.87
0.0120125 0 0.00276934 1843.87
-0.0123328 -6.77626e-21 0.000603507 519.844
0.0123328 4.51751e-21 0.000603593 514.546
-0.0120726 -2.71051e-20 0.00270723 1827.12
0.0120726 0 0.00270723 1827.1
-0.0123288 4.51751e-21 0.00123238 138.822
0.0123288 0 0.00123249 128.84
0.0124027 -1.35525e-20 1.58622e-09 870.793
-0.0124028 0 1.58612e-09 871.746
0.012405 1.35525e-20 7.77801e-05 870.721
-0.0124051 0 7.78041e-05 871.673
-0.0123347 -1.12938e-21 0.00185416 206.848
0.0123347 -5.64689e-21 0.00185424 191.129
-0.0121506 -1.35525e-20 0.00283805 1685.38
0.0121507 -1.35525e-20 0.00283809 1685.23
-0.0123065 0 0.0024016 1013.91
0.0123065 1.12938e-21 0.00240165 1004.56
-0.0122685 0 0.00289771 1279.46
0.0122687 -2.71051e-20 0.00289778 1278.97
-0.0123168 1.35525e-20 0.00277206 1369.63
0.012317 0 0.00277207 1369.29
0.0126427 -2.71051e-20 0.000300463 886.217
-0.0126427 0 0.00030044 887.138
-0.0126591 0 0.000913397 154.499
0.0126591 2.71051e-20 0.000913462 146.693
-0.0126619 2.71051e-20 0.00155273 87.909
0.0126619 2.71051e-20 0.00155279 81.4962
-0.0125265 0 0.00271714 1090.56
0.0125266 0 0.00271717 1090.24
0.012467 1.35525e-20 0.00299777 1118.82
-0.012467 0 0.0029978 1119.3
-0.0126644 2.71051e-20 0.00218642 180.557
0.0126645 5.42101e-20 0.00218646 187.764
-0.0128706 6.77626e-21 4.59712e-10 910.304
0.0128706 0 4.5966e-10 909.377
-0.0128741 -6.77626e-21 6.76228e-05 910.367
0.0128742 0 6.7603e-05 909.44
-0.0125737 1.35525e-20 0.00289896 1164.64
0.0125738 1.35525e-20 0.00289883 1164.24
0.0129417 0 3.22157e-10 917.446
-0.0129417 -1.35525e-20 3.22157e-10 918.369
-0.0126 0 0.00306523 1321.94
0.0126002 2.71051e-20 0.00306527 1321.71
-0.0129729 -1.12938e-21 0.00059327 541.837
0.0129729 -2.25875e-21 0.000593302 537.718
0.0130096 6.77626e-21 3.00396e-10 923.207
-0.0130097 6.77626e-21 3.00386e-10 924.134
0.0130125 1.35525e-20 6.19132e-05 923.096
-0.0130126 6.77626e-21 6.19358e-05 924.022
-0.0129929 -4.51751e-21 0.00122118 118.246
0.0129929 -3.38813e-21 0.00122122 111.641
-0.0127134 1.35525e-20 0.00312239 1321.12
0.0127137 1.35525e-20 0.00312249 1320.96
-0.01275 0 0.00301608 1324.25
0.0127503 0 0.00301608 1324.09
-0.0129974 2.25875e-21 0.0018788 115.659
0.0129974 -4.51751e-21 0.00187883 110.585
-0.0129624 2.71051e-21 0.00258482 707.585
0.0129624 9.03502e-22 0.00258484 695.373
-0.0129341 0 0.00296493 1441.61
0.0129342 0 0.00296496 1441.39
0.0132745 2.71051e-20 0.0002907 946.756
-0.0132746 -2.71051e-20 0.000290689 947.69
-0.0133098 0 0.000892095 159.161
0.0133098 0 0.000892117 152.158
-0.012963 -1.35525e-20 0.00324868 1645.64
0.012963 6.77626e-21 0.00324866 1645.33
-0.013014 0 0.00319464 1683.44
0.013014 0 0.00319458 1683.19
-0.0133312 0 0.00153426 70.1213
0.0133312 0 0.00153429 64.9313
-0.0130336 -1.35525e-20 0.0032843 1832.36
0.0130336 -1.35525e-20 0.00328432 1832.25
-0.0133255 0 0.00221292 121.163
0.0133255 2.71051e-20 0.00221294 104.919
-0.0130971 -1.35525e-20 0.00331613 1858.9
0.0130973 0 0.00331619 1858.85
-0.0131128 -1.35525e-20 0.00327471 1856
0.013113 -1.35525e-20 0.00327473 1855.95
-0.0135215 6.77626e-21 4.3748e-11 1010.58
0.0135215 0 4.37385e-11 1009.69
-0.013525 6.77626e-21 4.46932e-05 1010.73
0.013525 0 4.46658e-05 1009.84
-0.0132202 -7.52918e-22 0.00300115 1365.41
0.0132202 1.50584e-21 0.00300118 1347.42
0.0135708 0 2.74197e-11 1022.05
-0.0135708 0 2.74177e-11 1022.94
0.0136155 0 2.60842e-11 1032.01
-0.0136156 0 2.60813e-11 1032.91
0.0136174 0 3.86608e-05 1031.85
-0.0136174 -6.77626e-21 3.8686e-05 1032.75
0.0136131 0 0.000567022 598.051
-0.0136131 2.25875e-21 0.000567013 601.714
-0.0133844 0 0.00278358 422.426
0.0133844 2.71051e-20 0.0027836 366.317
-0.0136536 -1.12938e-21 0.00118311 118.891
0.0136536 1.69407e-21 0.00118312 112.954
-0.013358 -5.42101e-20 0.00322889 2188.12
0.0133581 0 0.00322892 2188.11
-0.0136672 2.25875e-21 0.00185452 85.1835
0.0136672 0 0.00185453 73.0208
-0.0134205 0 0.00347805 1741.75
0.0134205 0 0.00347806 1741.69
-0.0134524 1.35525e-20 0.00343732 1733.41
0.0134524 0 0.0034373 1733.34
0.0139 5.42101e-20 0.000270261 1095.37
-0.0139 -2.71051e-20 0.000270258 1096.23
-0.0136757 -1.69407e-21 0.00251333 210.071
0.0136758 5.64689e-22 0.00251333 183.576
-0.0134923 0 0.00351398 1652.32
0.0134924 0 0.00351402 1652.17
0.0139532 0 0.000842552 172.466
-0.0139533 2.71051e-20 0.000842543 178.519
-0.0136464 3.38813e-21 0.00307167 1022.1
0.0136464 -1.69407e-21 0.00307169 1006.35
-0.0135604 6.77626e-21 0.00354803 1398.21
0.0135605 0 0.00354808 1397.84
-0.013594 -2.71051e-20 0.00346729 1451.45
0.0135942 0 0.00346729 1451.12
-0.0139955 5.42101e-20 0.00147861 66.0492
0.0139955 0 0.00147861 60.5332
-0.0139995 0 0.00216677 83.8708
0.0139995 0 0.00216677 62.1657
0.0141777 0 1.47672e-12 1330.6
-0.0141778 0 1.47736e-12 1331.39
0.0141788 0 1.24877e-05 1330.78
-0.0141788 0 1.25188e-05 1331.57
0.0141923 -1.69407e-21 1.02421e-12 1342.31
-0.0141924 -1.69407e-21 1.02371e-12 1343.13
0.0142041 1.69407e-21 9.46673e-06 1352.19
-0.0142042 1.69407e-21 9.49024e-06 1353.03
0.0142051 1.69407e-21 1.00933e-12 1352.22
-0.0142052 1.69407e-21 1.0088e-12 1353.06
0.0142399 6.21157e-22 0.000511 793.915
-0.01424 -2.25875e-22 0.000510993 797.836
-0.0138496 -2.71051e-20 0.00338143 1085
0.0138496 -2.71051e-20 0.00338145 1084.64
-0.0139916 -2.71051e-20 0.00283636 189.927
0.0139916 0 0.00283638 180.254
0.0138218 0 0.0036788 1163.7
-0.0138218 0 0.0036788 1164.08
0.0143091 2.82344e-22 0.00109617 138.012
-0.0143102 0 0.00109467 143.691
0.0143533 0 7.65942e-13 1289.48
-0.0138932 1.35525e-20 0.003605 1193.66
0.0138932 2.71051e-20 0.00360498 1193.3
-0.0143537 1.69407e-21 7.6493e-13 1290.29
-0.0139058 1.35525e-20 0.00372075 1306.05
0.0139058 0 0.00372076 1305.74
-0.0143406 1.69407e-21 0.0017773 72.6545
0.0143406 -8.47033e-22 0.0017773 58.5467
0.014476 0 0.000224596 1586.03
-0.014476 0 0.000224595 1586.79
-0.0139821 0 0.00376078 1311.38
0.0139821 0 0.0037608 1311.09
-0.0140113 1.35525e-20 0.00368378 1312.87
0.0140114 0 0.00368378 1312.58
-0.0143224 0 0.0024986 124.152
0.0143224 5.64689e-22 0.0024986 97.0303
0.0145821 -5.42101e-20 0.000746673 240.433
-0.0145821 0 0.000746674 248.786
-0.014272 9.03502e-22 0.00323782 722.414
0.014272 1.12938e-21 0.00323783 695.123
-0.0142274 0 0.00361851 1467.46
0.0142274 2.71051e-20 0.00361852 1467.18
0.0146963 3.76459e-22 0.000425142 863.673
-0.0146963 -7.52918e-22 0.000425143 867.209
0.0146847 -2.71051e-20 0.00134649 66.1588
-0.0146847 -5.42101e-20 0.00134648 68.9778
0.0147679 6.77626e-21 2.54299e-05 1192.67
-0.014768 6.77626e-21 2.54068e-05 1193.85
0.0147705 0 9.11081e-14 1193.37
-0.0147705 -6.77626e-21 9.09544e-14 1194.55
0.0148059 -6.77626e-21 6.68338e-15 1141.68
-0.0148059 0 6.6647e-15 1142.96
0.014659 5.42101e-20 0.00210817 46.3982
-0.014659 -2.71051e-20 0.00210817 72.1881
0.0142867 0 0.00391566 1726.1
-0.0142867 0 0.00391568 1726.53
0.0143137 6.77626e-21 0.00388599 1744.74
-0.0143137 6.77626e-21 0.00388604 1745.15
-0.0148347 6.77626e-21 4.55241e-05 1087.92
0.0148347 -6.77626e-21 4.55572e-05 1086.53
-0.0148462 6.77626e-21 5.73722e-15 1086.23
0.0148462 0 5.75032e-15 1084.83
0.0143218 6.77626e-21 0.00393378 1820.07
-0.0143218 -6.77626e-21 0.00393377 1820.37
-0.014352 6.77626e-21 0.00395515 1830.02
0.014352 0 0.00395518 1829.72
-0.0143641 0 0.00393216 1829.56
0.0143642 0 0.00393215 1829.26
-0.0146351 2.71051e-20 0.00283847 146.935
0.0146351 -2.71051e-20 0.00283847 96.0902
0.0144996 0 0.0036695 1355.04
-0.0144996 0 0.0036695 1381.94
0.0145103 0 0.00366655 1353.04
-0.0145087 -8.47033e-22 0.0036755 1380.66
0.0150122 -2.71051e-20 0.00033015 734.064
-0.0150123 0 0.000330154 735.789
-0.0145871 -8.47033e-22 0.00370013 1345.83
0.0145874 8.47033e-22 0.00370026 1314.82
-0.0146767 -2.71051e-20 0.00345539 453.73
0.0146767 0 0.00345539 369.859
-0.0150078 4.51751e-22 0.00170826 74.6688
0.0150078 1.12938e-22 0.00170826 59.7868
0.0150925 -1.807e-21 0.000854675 309.492
-0.0150925 -1.807e-21 0.000854681 312.815
0.0146273 2.71051e-20 0.00391102 2197.62
-0.0146273 -2.71051e-20 0.00391104 2198.04
-0.0149891 -4.51751e-22 0.00242101 103.779
0.0149891 -7.90564e-22 0.00242101 63.6032
-0.0149587 -2.82344e-22 0.00315968 281.141
0.0149587 -1.69407e-21 0.00315968 212.737
0.0147021 6.77626e-21 0.00420296 1814.85
-0.0147022 0 0.00420304 1815.17
0.0152975 6.77626e-21 8.17497e-05 606.966
-0.0152975 0 8.17234e-05 608.905
0.0147325 0 0.00417583 1813.65
-0.0147325 0 0.00417593 1813.98
0.015314 0 2.17543e-15 608.123
-0.015314 6.77626e-21 2.16401e-15 610.059
0.0147476 0 0.00423512 1787.85
-0.0147477 -1.35525e-20 0.00423519 1788.21
0.0147781 -6.77626e-21 0.0042567 1839.99
-0.0147782 0 0.00425676 1840.36
0.0147931 0 0.00422599 1837.21
-0.0147932 6.77626e-21 0.00422607 1837.58
-0.0153882 0 1.37339e-16 563.222
0.0153882 0 1.36947e-16 561.241
-0.0154218 0 0.000114883 515.658
0.0154219 0 0.000114923 513.609
0.0149639 1.50584e-21 0.00384032 1123.1
-0.0149639 9.41148e-22 0.00384035 1168.43
-0.0154554 -6.77626e-21 2.28913e-16 513.342
0.0154555 0 2.27201e-16 511.29
0.0148469 -6.77626e-21 0.00430538 1866.54
-0.014847 0 0.00430541 1866.85
0.0154606 0 0.00140662 71.5008
-0.0154606 0 0.00140663 73.9534
-0.0152778 2.71051e-20 0.00281389 117.939
0.0152778 -2.71051e-20 0.00281389 56.091
0.0154333 0 0.00193357 43.1313
-0.0154334 -2.71051e-20 0.00193357 67.9008
0.0156222 0 0.000480035 348.182
-0.0156222 2.71051e-20 0.000480033 350.504
0.0152556 -2.71051e-20 0.00350081 157.184
-0.0152556 2.71051e-20 0.00350083 245.36
0.0150547 -6.77626e-21 0.00445243 1680.67
-0.0150548 1.35525e-20 0.00445248 1680.93
-0.0157277 -6.77626e-21 1.66304e-16 427.876
0.0157278 6.77626e-21 1.64963e-16 425.501
0.0151605 -2.82344e-22 0.00422314 1506.11
-0.0151606 5.64689e-22 0.00422318 1511.97
0.0156637 2.71051e-20 0.00166709 56.2459
-0.0156638 -1.35525e-20 0.00166709 69.33
0.0156161 1.46819e-21 0.00242548 45.7231
-0.0156161 1.58113e-21 0.00242548 90.2384
0.0157781 -5.64689e-22 0.000921688 206.333
-0.0157781 -2.63521e-21 0.000921689 207.727
0.0155829 0 0.00315322 83.2476
-0.0155829 1.12938e-21 0.00315322 155.921
0.0152442 6.77626e-21 0.00458652 1745.66
-0.0152443 -1.35525e-20 0.00458661 1745.97
0.0159534 0 3.82779e-05 330.435
-0.0159534 6.77626e-21 3.82942e-05 333.006
0.015843 2.71051e-20 0.00192286 41.2407
-0.015843 -2.71051e-20 0.00192287 64.7945
0.0159594 6.77626e-21 2.87967e-17 330.412
-0.0159594 0 2.85098e-17 332.984
0.0159064 0 0.00142306 68.2948
-0.0159064 0 0.00142306 70.2048
0.0155142 0 0.0038846 501.952
-0.0155143 -1.12938e-21 0.00388461 581.486
0.0153266 0 0.00464484 1818.51
-0.0153267 0 0.00464492 1818.76
0.01535 1.35525e-20 0.00461636 1798.69
-0.0153501 0 0.00461645 1798.94
0.0153665 0 0.00467311 1636.11
-0.0153666 0 0.00467318 1636.5
0.0160927 2.71051e-20 0.000505095 313.818
-0.0160927 -2.71051e-20 0.000505084 316.628
0.0154309 0 0.00471865 1427.13
-0.015431 0 0.00471871 1427.63
-0.0161373 1.35525e-20 9.1179e-18 324.293
0.0161375 0 9.37167e-18 321.505
0.0154621 1.35525e-20 0.00464665 1465.85
-0.0154622 1.35525e-20 0.00464672 1466.34
0.0155559 7.05861e-23 0.004333 1149.91
-0.0155559 -1.41172e-22 0.00433301 1195.03
0.015933 2.71051e-20 0.00276856 38.871
-0.015933 -5.42101e-20 0.00276856 94.1064
0.015876 2.71051e-20 0.003495 79.9663
-0.0158761 -2.71051e-20 0.003495 164.337
0.0163022 1.41172e-22 0.00169287 52.0237
-0.0163022 -2.82344e-22 0.00169287 64.3114
0.0158806 2.71051e-20 0.00413138 235.181
-0.0158806 0 0.00413139 357.361
0.0157465 0 0.00463069 1325.52
-0.0157465 -2.71051e-20 0.00463071 1326.06
-0.0156845 0 0.00489813 1326.97
0.0156845 -1.35525e-20 0.00489813 1326.31
-0.0164402 0 0.000192225 304.906
0.0164404 2.71051e-20 0.000191942 301.742
-0.0164598 0 2.18491e-18 305.058
0.01646 1.35525e-20 2.26278e-18 301.898
0.0163055 3.38813e-21 0.0022924 38.8446
-0.0163055 -3.38813e-21 0.0022924 72.8875
-0.0157621 0 0.00483924 1357.97
0.0157621 0 0.00483928 1357.3
0.0164587 6.77626e-21 0.00103728 180.968
-0.0164587 -6.77626e-21 0.00103727 185.526
0.0162201 1.12938e-22 0.00310508 48.6728
-0.0162201 4.51751e-22 0.00310507 104.522
-0.0157673 -1.35525e-20 0.00495672 1443.32
0.0157673 0 0.0049567 1442.55
-0.0165551 -1.35525e-20 1.82789e-18 306.951
0.0165551 1.35525e-20 1.92031e-18 303.674
0.0158425 0 0.00500992 1409.06
-0.0158425 0 0.00500996 1409.89
0.0158774 -1.35525e-20 0.00492682 1420.16
-0.0158774 0 0.00492681 1420.98
0.0161859 -1.69407e-21 0.00381857 120.264
-0.0161859 -5.64689e-22 0.00381858 206.733
0.0166927 1.35525e-20 0.00010156 295.436
-0.016693 0 0.000101746 298.964
0.0166939 -1.35525e-20 -1.9608e-18 295.434
-0.0166942 -1.35525e-20 -2.00258e-18 298.962
0.0161388 0 0.00451634 772.148
-0.0161388 -2.25875e-21 0.00451636 837.813
-0.0165511 0 0.00276281 69.304
0.0165511 -5.42101e-20 0.00276281 33.495
0.0160804 0 0.00488846 1519.82
-0.0160804 0 0.00488847 1520.76
-0.0165195 -2.71051e-20 0.00345967 99.2453
0.0165195 2.71051e-20 0.00345967 45.6101
-0.0160928 6.77626e-21 0.00518707 1646.21
0.0160929 6.77626e-21 0.00518708 1645.1
-0.0161329 -6.77626e-21 0.00514907 1670.55
0.0161329 6.77626e-21 0.0051491 1669.39
0.0161377 6.77626e-21 0.0052188 1756.19
-0.0161377 6.77626e-21 0.00521882 1757.45
0.0164853 2.71051e-20 0.00415086 113.717
-0.0164853 0 0.00415087 196.982
0.0161812 6.77626e-21 0.00524954 1752.79
-0.0161812 0 0.00524959 1754.1
0.0162 0 0.00521528 1754.66
-0.0162 6.77626e-21 0.0052153 1755.96
0.0169483 0 0.00175217 44.4749
-0.0169483 0 0.00175218 57.2308
0.0168947 -1.41172e-22 0.00247213 34.4506
-0.0168959 2.82344e-22 0.00247499 59.9803
0.0170685 -1.0842e-19 0.00054239 274.04
-0.0170686 1.0842e-19 0.000542388 278.162
0.0163681 4.23516e-22 0.00495113 1284.15
-0.0163681 7.05861e-22 0.00495117 1331.28
0.0168537 2.82344e-22 0.00309993 35.2488
-0.0168537 -5.64689e-22 0.00309993 70.2055
0.0165271 -2.71051e-20 0.00473652 371.194
-0.0165271 2.71051e-20 0.00473653 514.1
0.0168198 1.69407e-21 0.00379491 61.992
-0.0168198 -5.64689e-22 0.00379491 111.995
0.0164532 0 0.00518912 1992.71
-0.0164532 0 0.00518915 1994.31
0.0164986 1.35525e-20 0.00547422 1679.72
-0.0164987 -1.35525e-20 0.00547423 1681.42
0.0168074 5.64689e-22 0.00445444 179.489
-0.0168075 -1.69407e-21 0.00445445 262.83
0.0165401 0 0.00543898 1678.6
-0.0165402 0 0.00543895 1680.31
0.0171982 -2.71051e-20 0.00274291 29.3329
-0.0171982 0 0.00274291 51.4846
0.0165561 0 0.00551492 1653.59
-0.0165563 0 0.00551497 1655.33
0.0171475 -2.71051e-20 0.00343444 32.8811
-0.0171475 -2.71051e-20 0.00343445 61.6206
0.0165953 0 0.0055426 1721.15
-0.0165954 0 0.00554269 1723
0.0166161 0 0.00550297 1716.91
-0.0166163 0 0.00550301 1718.75
-0.0168033 3.13716e-22 0.0051158 1065.35
0.0168033 -3.13716e-22 0.00511579 1015.21
0.0166836 -6.77626e-21 0.00560513 1757.17
-0.0166839 6.77626e-21 0.00560526 1759.15
0.0171381 0 0.00410855 56.9452
-0.0171381 -5.42101e-20 0.00410855 92.0079
0.0176356 0 5.15824e-05 258.912
-0.0176356 6.77626e-21 5.15782e-05 263.467
0.0176365 0 -8.77031e-19 258.899
-0.0176365 0 -8.88931e-19 263.455
0.0176257 1.12938e-21 0.00114318 152.51
-0.0176257 -1.12938e-21 0.00114318 159.355
0.017701 0 -1.21685e-20 256.076
-0.017701 -6.77626e-21 -1.22039e-20 260.671
-0.0177564 0 5.70417e-05 257.998
0.0177564 0 5.70455e-05 253.356
-0.0174948 -7.05861e-22 0.00304301 53.0969
0.0174948 3.5293e-22 0.00304301 30.5047
0.0171005 -2.71051e-20 0.0047873 154.518
-0.0171005 0 0.00478732 218.955
-0.01776 6.77626e-21 -1.01849e-20 257.98
0.01776 6.77626e-21 -1.01509e-20 253.337
-0.0176226 0 0.00231708 51.099
0.0176226 -2.82344e-22 0.00231708 35.7073
0.0168649 6.77626e-21 0.00573339 1619.65
-0.0168651 -2.03288e-20 0.00573345 1621.74
0.0169917 0 0.00554745 1460.91
-0.0169917 0 0.00554751 1466.56
0.0175403 0 0.00368249 38.7021
-0.0175404 0 0.0036825 64.1137
0.0174309 -1.69407e-21 0.00445118 81.0764
-0.0174309 0 0.00445119 113.523
0.0170276 1.35525e-20 0.00584853 1662.28
-0.0170277 1.35525e-20 0.00584855 1664.57
0.0173593 -5.64689e-21 0.00515918 456.118
-0.0173594 1.12938e-21 0.00515919 486.814
0.0171314 0 0.00592202 1746.76
-0.0171315 0 0.00592208 1749.23
0.0171627 1.35525e-20 0.00588617 1722.01
-0.0171628 0 0.00588621 1724.47
0.017182 0 0.0059579 1525.65
-0.0171821 1.35525e-20 0.00595797 1528.06
0.017769 0 0.00410416 35.6068
-0.017769 -2.71051e-20 0.00410417 53.6013
0.0182634 5.42101e-20 0.000578938 239.112
-0.0182635 0 0.000578947 244.176
0.0173971 2.82344e-22 0.00561051 1069.73
-0.0173983 0 0.00561204 1083.78
0.0172647 0 0.00601703 1286.66
-0.0172648 1.35525e-20 0.00601711 1289.26
0.0173075 0 0.00592612 1328.8
-0.0173076 0 0.00592617 1331.34
0.0182204 -1.0842e-19 0.00175681 45.9342
-0.0182204 -1.0842e-19 0.0017568 51.6667
0.0177285 -2.71051e-20 0.00478171 77.7542
-0.0177285 -2.71051e-20 0.00478172 90.793
0.0181282 0 0.00306192 26.2718
-0.0181282 0 0.00306192 43.6211
0.0181211 2.82344e-22 0.00374048 29.683
-0.0181211 4.23516e-22 0.00374049 48.6788
0.0177324 -2.71051e-20 0.00540773 208.827
-0.0177324 -2.71051e-20 0.00540774 197.025
0.0174848 0 0.00617228 1161.59
-0.0174849 0 0.00617231 1164.49
0.0175758 0 0.00590988 1180.69
-0.0175758 -2.71051e-20 0.00590991 1183.47
0.0180729 -5.64689e-22 0.00442474 45.2668
-0.0180729 5.64689e-22 0.00442474 61.6885
0.0175825 0 0.00610033 1183.39
-0.0175826 0 0.00610035 1186.27
0.0175873 1.35525e-20 0.00624642 1251.13
-0.0175873 -1.35525e-20 0.00624645 1254.01
0.018047 -2.25875e-21 0.00508938 107.389
-0.018047 -1.12938e-21 0.00508939 106.118
0.017673 0 0.00632952 1191.65
-0.017673 0 0.00632955 1194.59
0.0177234 1.35525e-20 0.00621991 1207.38
-0.0177235 -1.35525e-20 0.00621994 1210.29
-0.0188362 0 3.90757e-05 243.31
0.0188362 -6.77626e-21 3.90717e-05 238.053
-0.0188376 0 -1.40468e-21 243.313
0.0188376 0 -1.40183e-21 238.056
0.0184191 0 0.00406131 26.8056
-0.0184191 2.71051e-20 0.00406131 46.9996
0.0188782 -6.77626e-21 -3.17074e-23 237.947
-0.0188782 -6.77626e-21 -3.33105e-23 243.223
0.0188457 5.64689e-22 0.00115779 143.812
-0.0188458 1.69407e-21 0.00115779 149.506
0.017989 -9.03502e-22 0.0057961 643.229
-0.017989 -4.96926e-21 0.00579612 609.744
0.0189173 -6.77626e-21 3.90264e-05 237.772
-0.0189173 0 3.90289e-05 243.072
0.0189184 0 -3.96181e-23 237.772
-0.0189184 0 -4.1135e-23 243.072
0.0188016 2.82344e-22 0.00239367 36.8075
-0.0188016 -8.47033e-22 0.00239367 50.8464
0.0179168 0 0.00619825 1250.09
-0.0179168 2.71051e-20 0.00619827 1253
0.0178342 -1.35525e-20 0.00647801 1214.07
-0.0178343 1.35525e-20 0.00647804 1217.01
0.0183812 0 0.00473969 41.8156
-0.0183812 0 0.0047397 56.2106
0.0179161 0 0.00640623 1233.69
-0.0179162 -1.35525e-20 0.00640625 1236.58
0.0179071 0 0.00654731 1366.11
-0.0179072 0 0.00654734 1368.87
0.0187899 0 0.00359346 25.0749
-0.0187899 0 0.00359346 48.4848
0.0183614 2.71051e-20 0.0054084 96.9595
-0.0183614 -2.71051e-20 0.00540841 77.8467
0.0179797 0 0.00661793 1213.52
-0.0179798 -2.71051e-20 0.00661795 1216.38
0.0180436 0 0.00652843 1233.75
-0.0180436 0 0.00652846 1236.59
0.0187173 4.23516e-22 0.00436434 30.0983
-0.0187173 8.47033e-22 0.00436435 51.6675
0.018177 -1.50584e-21 0.00625306 957.622
-0.0181771 1.50584e-21 0.00625307 913.157
0.0181271 -2.71051e-20 0.00676141 1215.76
-0.0181271 1.35525e-20 0.00676144 1218.64
0.0183874 -2.71051e-20 0.00602483 250.891
-0.0183874 0 0.00602484 101.953
0.0182482 0 0.0065139 1263.1
-0.0182482 2.71051e-20 0.00651392 1265.83
0.0187359 5.64689e-22 0.00501818 56.8206
-0.0187359 9.88205e-22 0.00501818 64.1995
0.0182333 -1.35525e-20 0.00669842 1238.51
-0.0182333 0 0.00669844 1241.36
0.0182171 0 0.00684895 1306
-0.0182171 1.35525e-20 0.00684896 1308.88
0.0194643 0 0.000581958 236.674
-0.0194644 0 0.000581954 242.172
0.0194401 0 0.00177497 49.5354
-0.0194401 -5.42101e-20 0.00177497 56.027
0.0186825 2.25875e-21 0.00571617 129.009
-0.0186825 2.25875e-21 0.00571618 79.0424
0.018308 0 0.00693721 1213.1
-0.018308 0 0.00693723 1216.16
0.018365 1.35525e-20 0.0068251 1237.1
-0.018365 0 0.00682512 1240.09
-0.0191534 0 0.00414674 51.754
0.0191534 -2.71051e-20 0.00414674 22.3686
-0.0194225 5.42101e-20 0.00303969 51.591
0.0194225 0 0.00303969 24.6798
0.01915 5.42101e-20 0.0045832 26.0949
-0.01915 -2.71051e-20 0.0045832 55.1904
0.0186305 2.71051e-21 0.00640892 679.88
-0.0186305 1.807e-21 0.00640893 610.323
-0.0193894 -3.02814e-20 0.00369516 54.6242
0.0193894 0 0.00369516 22.5307
0.0185455 2.71051e-20 0.00680227 1257.08
-0.0185455 0 0.00680229 1260.11
0.019012 -2.71051e-20 0.00537772 47.6758
-0.019012 -2.71051e-20 0.00537773 59.7231
0.0184497 -2.71051e-20 0.00707478 1212.3
-0.0184497 1.35525e-20 0.0070748 1215.37
0.018538 1.35525e-20 0.00700334 1234.63
-0.018538 0 0.00700336 1237.64
0.0193613 -1.35525e-20 0.00436274 22.7599
-0.0193613 0 0.00436274 56.9842
0.0185249 0 0.00714775 1381.62
-0.0185249 -1.35525e-20 0.00714777 1384.43
0.0189858 5.42101e-20 0.0060364 111.997
-0.0189858 -2.71051e-20 0.00603641 72.1075
-0.018601 -1.35525e-20 0.00722166 1216.35
0.018601 -2.71051e-20 0.00722164 1213.47
0.0186688 0 0.00713001 1235.87
-0.0186688 -2.71051e-20 0.00713003 1238.73
-0.0193578 2.82344e-22 0.00503068 59.3034
0.0193578 1.97641e-21 0.00503068 32.1756
0.0195829 0 0.00413333 20.6315
-0.0195829 0 0.00413333 61.0299
0.0188026 0 0.00685904 963.862
-0.0188026 1.50584e-21 0.00685905 909.388
-0.0200409 -3.38813e-21 2.9751e-05 241.65
0.0200409 0 2.97461e-05 236.368
-0.0200414 3.38813e-21 5.66122e-24 241.651
0.0200414 0 5.71142e-24 236.368
0.020072 0 -1.77282e-25 236.336
-0.020072 0 -1.62879e-25 241.607
0.0200566 -2.82344e-21 0.00116432 144.852
-0.0200566 2.82344e-21 0.00116432 156.731
0.0195648 2.71051e-20 0.00457553 21.6084
-0.0195648 0 0.00457553 60.6791
0.020102 0 2.93822e-05 236.303
-0.020102 -3.38813e-21 2.93877e-05 241.567
0.0201024 3.38813e-21 -1.89409e-25 236.303
-0.0201024 0 -1.75454e-25 241.567
-0.0187405 0 0.00735704 1219.34
0.0187405 1.35525e-20 0.00735703 1216.43
0.0193209 1.69407e-21 0.0056892 59.9428
-0.0193209 5.64689e-22 0.00568921 63.8129
0.0190162 0 0.00663679 256.176
-0.0190162 -5.42101e-20 0.00663679 74.2956
-0.0188683 -2.71051e-20 0.0071162 1264.22
0.0188683 0 0.00711619 1261.45
0.0200437 -1.69407e-21 0.0023892 38.4923
-0.0200437 0 0.0023892 69.3875
-0.0188522 0 0.00729487 1244.42
0.0188522 2.71051e-20 0.00729486 1241.51
-0.0188339 -1.35525e-20 0.00744773 1317.2
0.018834 0 0.00744773 1314.21
0.0193083 -1.69407e-21 0.00633277 135.99
-0.0193083 5.64689e-22 0.00633278 71.6206
0.0196626 -2.71051e-20 0.00533599 28.5616
-0.0196626 2.71051e-20 0.00533599 60.3824
-0.0189282 0 0.00753925 1223.45
0.0189282 -1.35525e-20 0.00753925 1220.21
-0.018987 -1.35525e-20 0.00742573 1247.85
0.018987 0 0.00742572 1244.69
-0.0200608 0 0.00364085 67.0847
0.0200608 1.12938e-21 0.00364085 21.9626
0.020005 5.29396e-23 0.00434221 19.8652
-0.0200043 0 0.00434223 64.8056
0.0192547 -2.25875e-21 0.0070165 685.396
-0.0192547 2.71051e-21 0.00701651 606.05
0.0196313 2.71051e-20 0.00599689 52.0179
-0.0196313 -2.71051e-20 0.0059969 63.0489
-0.0191651 -2.71051e-20 0.00740552 1273.36
0.0191651 2.71051e-20 0.00740552 1270.14
-0.0190667 0 0.00767367 1232.95
0.0190667 -1.35525e-20 0.00767366 1229.59
-0.0191579 -1.35525e-20 0.00760271 1258.26
0.0191579 1.35525e-20 0.0076027 1254.94
0.0191443 2.71051e-20 0.00774906 1412.81
-0.0191443 0 0.00774906 1416.01
-0.0200588 1.12938e-21 0.00492596 63.7931
0.0200588 6.77626e-21 0.00492596 22.5095
0.0206698 0 0.000582859 235.992
-0.0206698 5.42101e-20 0.000582859 241.039
0.0196174 2.71051e-20 0.00664555 114.519
-0.0196174 0 0.00664556 73.0632
0.0206614 -5.42101e-20 0.00177612 53.6518
-0.0206614 -5.42101e-20 0.00177612 84.3843
0.0199641 7.05861e-22 0.0056435 33.4942
-0.0199641 1.41172e-22 0.0056435 62.6557
0.0192228 -2.71051e-20 0.00782518 1243.47
-0.0192228 0 0.00782519 1247.01
0.0192911 0 0.00773354 1265.77
-0.0192911 2.71051e-20 0.00773354 1269.23
-0.0194228 0 0.00746617 924.043
0.0194228 -6.02335e-21 0.00746617 983.266
0.0206623 0 0.00301958 25.5828
-0.0206623 -1.0842e-19 0.00301958 85.4085
0.0196377 -2.71051e-20 0.0072485 260.938
-0.0196377 0 0.0072485 62.8409
0.0193613 0 0.00795964 1257.57
-0.0193613 0 0.00795964 1261.15
-0.0199857 -7.05861e-23 0.00626966 66.1792
0.0199857 -2.11758e-22 0.00626966 66.5158
0.0194876 0 0.00772284 1300.51
-0.0194876 2.71051e-20 0.00772284 1303.94
0.0194742 0 0.00789915 1285.59
-0.0194742 0 0.00789916 1289.1
0.0194569 0 0.00805242 1363.63
-0.0194569 1.35525e-20 0.00805242 1367.06
-0.020646 -5.42101e-20 0.00431688 72.6367
0.020646 -1.0842e-19 0.00431688 17.2863
0.0199324 0 0.00695121 139.485
-0.0199324 -1.69407e-21 0.00695121 69.3645
-0.0204014 -5.42101e-20 0.00542817 64.5801
0.0204014 0 0.00542817 19.9133
-0.0195523 0 0.00814503 1272.54
0.0195523 0 0.00814503 1269.02
-0.0196102 0 0.00803318 1297.7
0.0196103 -1.35525e-20 0.00803318 1294.24
0.0206266 0 0.00497835 18.1877
-0.0206227 4.76456e-21 0.00497843 67.2304
-0.0203984 -2.71051e-20 0.00584944 63.4174
0.0203984 0 0.00584944 27.1579
-0.0206335 0 0.00497827 67.2358
0.0206335 0 0.00497827 18.1497
0.0212527 0 2.195e-05 237.129
0.0212528 0 7.05938e-27 237.129
-0.0212528 -3.38813e-21 2.19514e-05 241.521
-0.0212529 3.38813e-21 7.45915e-27 241.521
0.0212755 -3.38813e-21 -1.77879e-27 237.16
-0.0212756 0 -1.71175e-27 241.53
0.0198732 9.03502e-22 0.00763092 710.913
-0.0198732 -9.03502e-22 0.00763092 630.915
0.021298 0 -1.6582e-27 237.168
0.021298 0 2.16345e-05 237.168
-0.0212981 0 -1.6462e-27 241.519
-0.0212981 -3.38813e-21 2.16351e-05 241.519
0.0212738 -1.12938e-21 0.00116378 147.099
-0.0212739 -1.69407e-21 0.00116378 178.501
0.0202601 -2.71051e-20 0.00662436 54.3008
-0.0202601 -2.71051e-20 0.00662436 64.2548
0.0197862 0 0.00801624 1328.88
-0.0197862 0 0.00801625 1332.29
-0.0206092 0 0.0056362 63.6193
0.0206092 0 0.0056362 21.3306
0.0196953 0 0.00828386 1294.63
-0.0196953 2.71051e-20 0.00828386 1298.32
0.0212735 5.64689e-22 0.00238449 40.6067
-0.0212735 0 0.00238449 103.738
0.0197839 0 0.0082168 1324.01
-0.0197839 0 0.00821681 1327.68
0.0197725 1.35525e-20 0.0083588 1488.7
-0.0197725 -1.35525e-20 0.00835879 1492.4
0.0202301 -2.71051e-20 0.00727144 119.134
-0.0202301 2.71051e-20 0.00727144 73.8457
0.0208279 0 0.00541067 17.361