# pMean  POINT_DATA 18637
# x  y  z  pMean
-1.35525e-20 0.0292381 8.09214e-08 -0.0199728
1.35525e-20 -0.0292381 8.09214e-08 0.119349
0 0.0292381 0.000233485 -0.019973
0 -0.0292381 0.000233515 0.119348
3.38813e-21 0.0292381 0.000430835 -0.019973
3.38813e-21 -0.0292381 0.000430882 0.119347
-6.77626e-21 0.029238 0.000663804 -0.0199728
0 -0.029238 0.000663883 0.119348
0 0.029238 0.00090804 -0.0199729
0 -0.029238 0.000908135 0.119343
3.38813e-21 0.029238 0.00111509 -0.0199729
0 -0.029238 0.00111514 0.119342
6.77626e-21 0.0292379 0.00135916 -0.0199727
-1.35525e-20 -0.029238 0.00135924 0.119348
3.38813e-21 0.0292379 0.00161398 -0.0199729
3.38813e-21 -0.029238 0.00161406 0.119345
6.77626e-21 0.0292379 0.00183191 -0.0199729
3.38813e-21 -0.0292379 0.00183193 0.119346
6.77626e-21 0.0292379 0.002087 -0.0199727
-6.77626e-21 -0.0292379 0.002087 0.11935
6.77626e-21 0.0293159 0.000332872 -0.0199733
1.35525e-20 -0.0293159 0.000332922 0.119344
-1.01644e-20 0.0293201 0.00100469 -0.0199731
0 -0.0293201 0.0010048 0.119337
0 -0.0293199 0.00170033 0.119341
0 0.0293199 0.00170027 -0.0199731
0 0.0294721 0.000122228 -0.0199735
1.35525e-20 -0.0294721 0.000122259 0.119337
-1.35525e-20 0.0294728 7.47971e-08 -0.0199735
0 -0.0294728 7.47973e-08 0.119337
0 0.0294797 0.000527865 -0.0199735
1.35525e-20 -0.0294797 0.000527979 0.119337
0 0.0294753 0.0007964 -0.0199734
0 -0.0294753 0.000796545 0.119335
0 0.0294755 0.00118677 -0.0199733
-2.03288e-20 -0.0294755 0.00118694 0.119336
-6.77626e-21 0.0294683 0.00147423 -0.0199733
1.35525e-20 -0.0294683 0.00147436 0.119338
6.77626e-21 0.0294625 0.00186313 -0.0199732
-1.35525e-20 -0.0294625 0.00186321 0.11934
2.71051e-20 -0.029578 6.6417e-08 0.119332
0 0.029578 6.64162e-08 -0.0199737
0 -0.0295009 0.00213468 0.119347
-6.77626e-21 0.0295009 0.00213468 -0.019973
1.35525e-20 0.029587 0.000650923 -0.0199736
-2.71051e-20 -0.029587 0.000651142 0.119333
1.35525e-20 0.0295378 0.00203788 -0.0199732
0 -0.0295378 0.00203791 0.119343
0 0.0295841 0.00130575 -0.0199736
-1.35525e-20 -0.0295841 0.001306 0.119334
0 0.0295849 0.00192062 -0.0199735
6.77626e-21 -0.0295849 0.00192072 0.119338
0 0.029649 0.00216152 -0.0199737
1.35525e-20 -0.029649 0.00216153 0.119334
0 0.0297926 0.000963737 -0.019974
-1.35525e-21 -0.0297926 0.000964021 0.119328
0 0.0298094 7.62576e-08 -0.019974
0 -0.0298094 7.62593e-08 0.119323
-2.25875e-22 -0.0298204 0.000317605 0.119322
6.77626e-22 0.0298204 0.000317475 -0.019974
4.96926e-21 0.0297852 0.00156831 -0.0199739
-9.03502e-22 -0.0297852 0.00156853 0.11933
5.64689e-22 0.0297946 0.00197119 -0.0199741
-5.64689e-22 -0.0297946 0.00197126 0.119326
0 -0.0298851 8.57398e-08 0.119319
6.77626e-21 0.0298851 8.57415e-08 -0.0199741
6.77626e-21 0.0298185 0.00219226 -0.0199742
-2.71051e-20 -0.0298186 0.00219226 0.119325
1.35525e-20 -0.0299229 0.00221118 0.119319
-1.35525e-20 0.0299229 0.00221118 -0.0199745
0 -0.0300583 1.01025e-07 0.11931
0 0.0300583 1.01025e-07 -0.0199746
-9.03502e-21 0.030042 0.00125425 -0.0199751
-4.51751e-21 -0.0300421 0.00125455 0.11931
2.90411e-21 0.030023 0.00171056 -0.019975
-1.64566e-20 -0.0300231 0.00171076 0.119311
9.03502e-21 0.0300766 0.000656709 -0.0199752
-9.03502e-21 -0.0300766 0.000656982 0.119307
0 0.0301411 0.00011795 -0.019975
0 -0.0301411 0.000118016 0.119306
0 0.0301431 9.36971e-08 -0.019975
-6.77626e-21 -0.0301431 9.3695e-08 0.119306
1.35525e-20 -0.0300722 0.00223824 0.119304
-1.35525e-20 0.0300722 0.00223824 -0.0199752
1.35525e-20 -0.0302709 0.000327948 0.119299
0 0.0302709 0.000327843 -0.0199759
-1.35525e-20 0.0302588 0.000959241 -0.0199758
0 -0.0302588 0.000959456 0.119298
0 0.0302233 0.00199378 -0.0199759
0 -0.0302233 0.00199385 0.119293
2.71051e-20 0.0302514 0.00155263 -0.0199757
0 -0.0302514 0.00155281 0.119299
0 0.0303943 0.00229664 -0.0199761
1.01644e-20 -0.0303944 0.00229665 0.119291
0 -0.0305071 4.03816e-05 0.11929
3.38813e-21 0.0305071 4.03474e-05 -0.0199764
0 -0.0305084 2.78803e-08 0.11929
0 0.0305085 2.78785e-08 -0.0199764
0 -0.0305355 2.44804e-08 0.119289
3.38813e-21 0.0305355 2.44805e-08 -0.0199765
6.77626e-21 0.030464 0.00230926 -0.0199762
-6.77626e-21 -0.030464 0.00230927 0.119291
3.38813e-21 0.0305559 2.56048e-08 -0.0199765
-3.38813e-21 -0.0305559 2.56052e-08 0.119288
3.38813e-21 0.0305566 2.16906e-05 -0.0199765
-3.38813e-21 -0.0305566 2.17043e-05 0.119288
1.41172e-22 -0.0305496 0.000656518 0.119289
2.11758e-22 0.0305496 0.000656265 -0.0199765
1.8823e-22 0.0305132 0.00170673 -0.0199765
0 -0.0305132 0.00170684 0.119288
4.51751e-22 0.0305476 0.0012451 -0.0199765
2.25875e-22 -0.0305476 0.00124527 0.119289
0 -0.030501 0.00231597 0.119289
0 0.030501 0.00231597 -0.0199764
-3.38813e-21 0.0306237 3.57384e-08 -0.0199768
0 -0.0306238 3.57449e-08 0.119285
-3.38813e-21 -0.0306099 0.00219282 0.119284
3.38813e-21 0.03061 0.00219278 -0.0199767
0 -0.0307226 0.00235616 0.119283
-3.38813e-21 0.0307226 0.00235617 -0.0199769
-5.42101e-20 -0.0308383 0.000320955 0.119278
2.71051e-20 0.0308384 0.000320914 -0.0199772
5.64689e-21 0.0308116 0.00198362 -0.0199773
-2.25875e-21 -0.0308116 0.00198366 0.119277
1.35525e-20 -0.0309907 0.00101963 0.119269
1.35525e-20 0.0309907 0.00101953 -0.0199778
4.51751e-21 0.0309922 0.00150601 -0.019978
1.807e-20 -0.0309923 0.00150608 0.119267
-1.35525e-20 0.0310395 9.17131e-08 -0.0199782
2.71051e-20 -0.0310395 9.1716e-08 0.119265
0 0.0310416 0.000119385 -0.0199782
2.71051e-20 -0.0310416 0.000119381 0.119265
0 -0.030965 0.0024001 0.119277
6.77626e-21 0.030965 0.0024001 -0.0199775
0 -0.030982 0.00237275 0.119276
-6.77626e-21 0.030982 0.00237274 -0.0199776
0 0.0310105 0.00240831 -0.0199777
0 -0.0310105 0.00240831 0.119275
0 0.0310179 0.00233593 -0.0199777
-2.03288e-20 -0.0310179 0.00233593 0.119275
4.51751e-21 -0.0311223 0.000639295 0.119263
9.03502e-21 0.0311223 0.000639241 -0.0199782
0 0.0310526 0.00237695 -0.0199777
0 -0.0310526 0.00237695 0.119275
0 -0.0311459 9.7154e-08 0.11926
-1.35525e-20 0.0311459 9.7152e-08 -0.0199786
0 0.031071 0.00241925 -0.0199778
0 -0.031071 0.00241926 0.119275
2.71051e-20 0.0312091 0.00177617 -0.0199784
2.71051e-20 -0.0312091 0.0017762 0.11926
2.71051e-20 0.0312491 0.00122874 -0.0199787
0 -0.0312491 0.00122879 0.119253
0 -0.0312858 8.40769e-08 0.119253
-1.35525e-20 0.0312858 8.40688e-08 -0.0199791
0 -0.0312917 0.000133801 0.119253
0 0.0312917 0.000133814 -0.0199791
2.25875e-21 0.0313889 0.00201505 -0.0199786
-4.51751e-21 -0.0313889 0.00201507 0.119261
0 0.0313959 0.00247812 -0.0199787
0 -0.0313959 0.00247812 0.119258
4.51751e-21 -0.0314932 0.000408813 0.119244
-9.03502e-21 0.0314932 0.000408772 -0.0199796
6.77626e-21 -0.0315059 0.00091593 0.119242
2.25875e-21 0.0315059 0.000915908 -0.0199793
0 0.0314281 0.00241767 -0.0199789
0 -0.0314281 0.00241768 0.119255
-2.25875e-21 0.0315016 0.00151821 -0.0199792
2.25875e-21 -0.0315016 0.00151824 0.119243
-2.71051e-20 -0.0314985 0.00234892 0.119248
0 0.0314986 0.00234891 -0.0199792
0 -0.0315086 0.00249848 0.119246
0 0.0315086 0.00249848 -0.0199792
1.35525e-20 0.0316957 0.000127101 -0.0199798
-1.35525e-20 -0.0316957 0.000127026 0.119235
-1.35525e-20 0.0316993 1.28444e-08 -0.0199798
0 -0.0316993 1.28328e-08 0.119234
2.71051e-20 -0.0317724 0.000610912 0.119231
-2.71051e-20 0.0317724 0.000610901 -0.01998
-2.71051e-20 0.0317679 0.00121735 -0.01998
-2.71051e-20 -0.0317679 0.00121736 0.119231
0 0.0317537 0.00187034 -0.0199799
0 -0.0317537 0.00187034 0.119233
-2.71051e-20 -0.0317094 0.00253469 0.119222
-2.71051e-20 0.0317094 0.00253469 -0.0199803
-1.35525e-20 -0.0318341 3.55441e-10 0.119228
0 0.0318342 3.5764e-10 -0.01998
5.64689e-22 -0.0317532 0.00228382 0.119219
0 0.0317532 0.0022838 -0.0199804
0 -0.0319513 4.55602e-10 0.119223
0 0.0319515 4.57813e-10 -0.0199802
0 -0.0319524 0.000127644 0.119223
-1.35525e-20 0.0319526 0.000127724 -0.0199802
-1.35525e-20 0.031883 0.00256626 -0.0199804
0 -0.031883 0.00256626 0.11922
0 -0.0319995 0.000914652 0.119222
0 0.0319996 0.000914645 -0.0199805
-8.13152e-21 -0.0320112 0.000400526 0.11922
1.0842e-20 0.0320112 0.000400506 -0.0199805
0 -0.0320267 0.00227715 0.11921
-2.25875e-21 0.0320267 0.00227715 -0.0199808
0 0.0320296 0.00251389 -0.0199807
2.71051e-20 -0.0320296 0.00251388 0.119213
-4.51751e-21 -0.0320975 0.00153751 0.119218
2.25875e-21 0.0320975 0.0015375 -0.0199808
6.77626e-21 -0.0320426 0.00259528 0.119213
6.77626e-21 0.0320426 0.00259528 -0.0199807
4.51751e-21 0.0321203 0.00203456 -0.0199811
-4.51751e-21 -0.0321203 0.00203456 0.119204
-1.35525e-20 -0.032135 0.0023896 0.119211
0 0.032135 0.0023896 -0.0199808
0 0.0322923 0.000126396 -0.0199813
0 -0.0322923 0.000126368 0.119207
-1.35525e-20 0.0323016 2.23509e-09 -0.0199813
0 -0.0323016 2.23359e-09 0.119206
0 -0.0322106 0.00262564 0.119208
-1.35525e-20 0.0322106 0.00262563 -0.0199811
1.35525e-20 -0.0322719 0.00254337 0.119206
-1.35525e-20 0.0322719 0.00254337 -0.0199812
1.35525e-20 -0.032418 2.33105e-09 0.119201
1.35525e-20 0.032418 2.33258e-09 -0.0199818
6.77626e-21 -0.0324263 0.000612636 0.1192
0 0.0324263 0.000612628 -0.0199818
-4.51751e-21 0.0324222 0.00112458 -0.0199818
-4.51751e-21 -0.0324222 0.0011246 0.1192
0 0.0324121 0.00187572 -0.0199818
0 -0.0324121 0.00187572 0.119199
0 -0.0323802 0.00265647 0.119201
1.35525e-20 0.0323802 0.00265646 -0.0199816
0 0.0324114 0.0022971 -0.0199818
-5.64689e-22 -0.0324114 0.0022971 0.119197
0 -0.032547 2.20758e-09 0.119195
0 0.032547 2.20888e-09 -0.0199822
0 -0.0325489 0.000125731 0.119195
1.35525e-20 0.0325489 0.000125761 -0.0199822
-1.35525e-20 0.0326034 0.00269726 -0.0199824
6.77626e-21 -0.0326035 0.00269726 0.119189
0 -0.032737 0.000308379 0.119187
-2.71051e-20 0.032737 0.000308371 -0.0199827
2.25875e-21 -0.0327282 0.00154847 0.119183
0 0.0327282 0.00154846 -0.0199828
0 0.0326738 0.00254252 -0.0199826
-4.51751e-21 -0.0326738 0.00254252 0.119187
9.03502e-21 0.0327075 0.00206802 -0.0199827
-4.51751e-21 -0.0327075 0.00206803 0.119187
2.71051e-20 -0.0327081 0.00271619 0.119185
0 0.0327081 0.00271619 -0.0199827
4.51751e-21 0.0328421 0.000917798 -0.0199831
0 -0.0328421 0.00091781 0.119178
-1.35525e-20 -0.0328866 1.93643e-09 0.119179
0 0.0328867 1.93676e-09 -0.0199832
1.35525e-20 -0.032889 0.000149431 0.119179
1.35525e-20 0.032889 0.00014945 -0.0199832
1.93608e-21 0.0329824 0.000542139 -0.0199833
-1.93608e-20 -0.0329825 0.000542161 0.119176
-2.71051e-20 -0.0330372 1.79015e-09 0.119172
0 0.0330372 1.79024e-09 -0.0199836
0 0.0329464 0.00275986 -0.0199832
0 -0.0329464 0.00275986 0.11918
-2.25875e-22 -0.0329866 0.00235418 0.119178
1.01644e-21 0.0329866 0.00235417 -0.0199833
-2.71051e-20 0.0330505 0.0012313 -0.0199836
2.71051e-20 -0.0330505 0.00123132 0.119169
0 0.03302 0.00190093 -0.0199835
0 -0.03302 0.00190094 0.119174
0 -0.0332006 2.02157e-09 0.119164
0 0.0332007 2.02156e-09 -0.0199841
-6.77626e-21 -0.0333521 0.000302632 0.119157
-4.51751e-21 0.0333521 0.00030262 -0.0199844
6.77626e-21 0.0333579 0.000916518 -0.0199844
9.03502e-21 -0.0333579 0.000916545 0.119156
-3.38813e-21 0.0332515 0.00281589 -0.0199841
0 -0.0332516 0.00281589 0.119163
0 -0.0333432 0.00156301 0.119156
0 0.0333432 0.00156299 -0.0199844
0 0.0332953 0.00276465 -0.0199842
0 -0.0332954 0.0027646 0.119161
-3.72694e-20 0.0333124 0.00282716 -0.0199843
0 -0.0333125 0.00282717 0.11916
1.12938e-20 0.03334 0.00259894 -0.0199843
-3.38813e-21 -0.03334 0.00259895 0.11916
2.25875e-21 0.0333776 0.00214933 -0.0199845
-9.03502e-21 -0.0333776 0.00214934 0.119156
0 -0.0334909 2.97183e-09 0.11915
-1.35525e-20 0.0334909 2.97138e-09 -0.0199848
0 -0.0336619 3.20036e-09 0.119142
2.71051e-20 0.033662 3.19979e-09 -0.0199853
0 0.0336674 0.000602348 -0.0199853
2.71051e-20 -0.0336674 0.000602386 0.119142
0 0.0336288 0.00191783 -0.0199851
0 -0.0336288 0.00191785 0.119144
2.71051e-20 0.0336642 0.00123333 -0.0199852
0 -0.0336642 0.00123337 0.119143
-2.71051e-20 0.0335882 0.00287788 -0.0199851
2.71051e-20 -0.0335883 0.00287789 0.119145
2.71051e-20 0.0336882 0.00242285 -0.0199854
2.71051e-20 -0.0336882 0.00242286 0.119139
0 -0.0338384 2.82135e-09 0.119134
0 0.0338384 2.82081e-09 -0.0199857
-1.35525e-20 0.0338118 0.00291884 -0.0199858
0 -0.0338119 0.00291885 0.119132
-6.77626e-21 -0.0339781 0.000302716 0.119127
2.25875e-21 0.0339781 0.000302698 -0.0199861
1.12938e-20 -0.0339808 0.000914846 0.119129
-4.51751e-21 0.0339808 0.000914783 -0.0199861
-1.12938e-20 0.0339744 0.00155885 -0.019986
6.77626e-21 -0.0339744 0.0015589 0.119131
-2.03288e-21 0.0339479 0.0026773 -0.0199861
-1.12938e-21 -0.033948 0.00267731 0.119126
-2.25875e-21 0.0339878 0.00215892 -0.019986
-4.51751e-21 -0.0339878 0.00215894 0.119129
-1.35525e-20 0.0341105 1.81896e-09 -0.0199864
0 -0.0341105 1.81909e-09 0.119121
0 0.034033 0.00295946 -0.0199862
-6.77626e-21 -0.0340333 0.00295951 0.119122
0 -0.0342884 1.43974e-09 0.119113
2.71051e-20 0.0342884 1.43965e-09 -0.019987
2.71051e-20 -0.0342943 0.000599028 0.119113
0 0.0342944 0.000598959 -0.019987
4.06576e-20 0.0342165 0.00299309 -0.0199866
0 -0.0342167 0.00299313 0.119115
2.71051e-20 0.0342949 0.00244902 -0.019987
-2.71051e-20 -0.0342949 0.00244904 0.119108
1.74247e-20 -0.034362 0.00129523 0.119106
-1.16165e-20 0.034362 0.00129516 -0.0199872
0 -0.0343655 0.00179195 0.119104
-9.68038e-21 0.0343655 0.00179189 -0.0199873
0 0.0343332 0.00301467 -0.0199868
0 -0.0343333 0.00301469 0.119113
-1.35525e-20 -0.0344682 1.2841e-09 0.119105
2.71051e-20 0.0344682 1.284e-09 -0.0199876
9.03502e-21 -0.0345084 0.000909543 0.119103
4.51751e-21 0.0345085 0.000909463 -0.0199875
-9.03502e-21 0.0345181 0.00215903 -0.0199876
-9.03502e-21 -0.0345181 0.00215907 0.119098
-2.25875e-21 -0.0346072 0.000300839 0.119098
-4.51751e-21 0.0346072 0.000300792 -0.019988
0 0.0346152 0.0015431 -0.0199879
2.71051e-20 -0.0346152 0.00154318 0.119092
-4.51751e-22 0.0345577 0.00272973 -0.0199874
7.90564e-22 -0.0345578 0.00272972 0.119106
-6.77626e-21 0.0345982 0.00306315 -0.0199877
0 -0.0345983 0.00306318 0.119098
-1.35525e-20 0.0347357 9.21209e-10 -0.0199883
-1.35525e-20 -0.0347357 9.21261e-10 0.119092
6.77626e-21 0.0346817 0.0030786 -0.019988
6.77626e-21 -0.0346818 0.00307861 0.119091
0 -0.0349166 7.64663e-10 0.119083
0 0.0349166 7.64607e-10 -0.0199889
-9.03502e-21 -0.0349264 0.000691229 0.119082
1.807e-20 0.0349264 0.000691147 -0.0199887
6.77626e-21 0.0349292 0.00121456 -0.0199887
1.12938e-20 -0.0349292 0.00121466 0.11908
4.51751e-21 0.0349324 0.00185908 -0.0199887
-2.25875e-21 -0.0349324 0.00185915 0.119079
-3.04932e-20 0.0348918 0.00311689 -0.0199893
-1.69407e-20 -0.0348919 0.00311691 0.11907
-6.77626e-21 0.0349974 0.00246603 -0.0199889
-4.51751e-21 -0.0349975 0.00246603 0.119072
-1.35525e-20 -0.0350985 7.00968e-10 0.119074
-2.71051e-20 0.0350985 7.00918e-10 -0.0199893
0 0.0350013 0.00286026 -0.0199892
-9.03502e-21 -0.0350014 0.00286027 0.119068
0 -0.0352407 0.000295921 0.119066
4.51751e-21 0.0352407 0.000295875 -0.0199897
0 0.0352487 0.000893704 -0.0199895
0 -0.0352487 0.000893811 0.119066
3.38813e-20 0.0351346 0.00316138 -0.0199894
2.71051e-20 -0.0351347 0.0031614 0.119062
-2.71051e-20 0.0352503 0.00152796 -0.0199894
2.71051e-20 -0.0352503 0.00152806 0.119066
0 0.0351466 0.00316358 -0.0199894
1.69407e-21 -0.0351467 0.00316359 0.119062
0 0.0351792 0.00281931 -0.0199894
-6.77626e-21 -0.0351793 0.00281934 0.11906
1.69407e-21 0.0351514 0.0031503 -0.0199894
0 -0.0351514 0.00315042 0.119062
0 0.0352563 0.002173 -0.0199894
0 -0.0352563 0.00217304 0.119067
-3.38813e-21 -0.0352266 0.00317815 0.119058
-8.47033e-22 0.0352273 0.00317828 -0.0199896
-1.35525e-20 0.0353735 5.21769e-10 -0.01999
0 -0.0353735 5.21782e-10 0.11906
6.77626e-21 0.0353094 0.00290198 -0.0199895
0 -0.0353094 0.00290197 0.119054
-2.71051e-20 -0.0355533 4.57347e-10 0.11905
-2.71051e-20 0.0355533 4.57338e-10 -0.0199905
6.77626e-21 0.0355671 0.001196 -0.0199903
-2.25875e-21 -0.0355671 0.00119611 0.119048
-2.25875e-21 0.0355696 0.00184888 -0.0199904
-2.25875e-21 -0.0355696 0.00184895 0.119048
-2.25875e-21 -0.0356125 0.00062238 0.119046
-4.51751e-21 0.0356125 0.0006223 -0.0199904
1.12938e-20 0.0355744 0.00250526 -0.0199905
-2.25875e-21 -0.0355744 0.00250527 0.119043
3.38813e-21 -0.0355282 0.00323309 0.119045
-6.77626e-21 0.0355283 0.0032331 -0.0199902
0 -0.0355416 0.00321424 0.119044
0 0.0355417 0.00321429 -0.0199902
4.51751e-21 0.0355809 0.00287392 -0.0199904
4.51751e-21 -0.0355809 0.00287394 0.119042
-3.38813e-21 0.0355739 0.00316255 -0.0199904
0 -0.0355739 0.00316239 0.119042
0 -0.035567 0.00324017 0.119043
6.77626e-21 0.035567 0.00324016 -0.0199903
0 -0.0357313 4.0682e-10 0.119039
2.71051e-20 0.0357313 4.06801e-10 -0.0199908
0 0.0356067 0.00321938 -0.0199905
0 -0.0356068 0.00321934 0.11904
0 0.03562 0.00324983 -0.0199905
3.38813e-21 -0.0356201 0.00324986 0.119039
0 -0.0358767 0.000193584 0.119032
-9.03502e-21 0.0358767 0.000193565 -0.0199911
2.71051e-20 0.035885 0.00087563 -0.0199911
0 -0.035885 0.000875722 0.11903
2.71051e-20 0.0358905 0.00150745 -0.0199912
-2.71051e-20 -0.0358906 0.00150754 0.11903
2.71051e-20 0.035888 0.00216762 -0.0199914
2.71051e-20 -0.035888 0.00216765 0.11903
0 0.0358662 0.00295245 -0.0199912
6.77626e-21 -0.0358662 0.00295244 0.119029
1.35525e-20 0.0360202 2.4784e-10 -0.0199914
1.35525e-20 -0.0360202 2.47859e-10 0.119025
6.77626e-21 -0.036024 0.00332348 0.119021
0 0.0360241 0.0033235 -0.0199916
0 -0.0361958 1.9684e-10 0.119017
-2.71051e-20 0.0361958 1.96811e-10 -0.0199919
2.25875e-21 -0.0362011 0.000563602 0.119015
0 0.0362011 0.00056354 -0.0199919
0 -0.03606 0.00326909 0.11902
-2.71051e-20 0.03606 0.00326916 -0.0199917
9.03502e-21 0.036206 0.00117906 -0.019992
6.77626e-21 -0.036206 0.00117914 0.119015
0 0.0362044 0.00184432 -0.0199921
0 -0.0362045 0.00184436 0.119015
6.77626e-21 0.0361886 0.0025326 -0.019992
4.51751e-21 -0.0361886 0.0025326 0.119017
0 0.0361316 0.00334311 -0.0199918
1.35525e-20 -0.0361316 0.00334312 0.119018
-4.51751e-21 0.0361686 0.00293576 -0.0199918
4.51751e-21 -0.0361686 0.00293578 0.119019
-1.35525e-20 0.0361566 0.00314793 -0.0199918
0 -0.0361566 0.00314776 0.119018
2.71051e-20 -0.0363723 1.67552e-10 0.119007
-2.71051e-20 0.0363723 1.67523e-10 -0.0199921
0 0.0362561 0.00328629 -0.0199921
0 -0.0362563 0.00328624 0.119012
-6.77626e-21 0.0363064 0.00337495 -0.0199922
0 -0.0363066 0.003375 0.119009
9.03502e-21 -0.0365138 0.000190574 0.119001
-9.03502e-21 0.0365138 0.000190566 -0.0199925
0 0.0365218 0.000862039 -0.0199929
0 -0.0365218 0.000862105 0.118998
0 0.0365244 0.00149871 -0.0199928
-2.71051e-20 -0.0365244 0.00149876 0.119001
2.71051e-20 0.0365144 0.00218215 -0.019993
2.71051e-20 -0.0365144 0.00218218 0.118999
4.06576e-20 0.0364787 0.00289846 -0.0199924
-1.35525e-20 -0.0364787 0.00289841 0.119009
-1.35525e-20 0.0366527 8.42396e-11 -0.0199928
1.35525e-20 -0.0366527 8.42454e-11 0.118995
-8.13152e-21 0.036569 0.00323497 -0.0199928
-8.13152e-21 -0.036569 0.00323494 0.118999
-1.35525e-20 -0.0365533 0.00341997 0.118995
2.71051e-20 0.0365534 0.00341998 -0.0199929
6.77626e-21 0.0367898 0.00059899 -0.0199933
4.51751e-21 -0.0367898 0.000599027 0.118988
-2.71051e-20 -0.0368341 5.55828e-11 0.118989
-2.71051e-20 0.0368341 5.55766e-11 -0.0199931
-4.51751e-21 0.0368407 0.00116982 -0.0199936
9.03502e-21 -0.0368407 0.00116987 0.118987
-2.25875e-21 0.0368347 0.0018451 -0.0199936
4.51751e-21 -0.0368347 0.00184514 0.118989
-2.25875e-21 0.0368044 0.00255426 -0.0199936
6.77626e-21 -0.0368045 0.00255425 0.118988
-2.71051e-20 0.0367776 0.00346083 -0.0199935
0 -0.0367778 0.00346085 0.118984
5.87276e-21 -0.0368391 0.00303501 0.118982
-4.06576e-21 0.0368391 0.00303502 -0.0199937
-1.35525e-20 -0.0370199 4.78266e-11 0.11898
-2.71051e-20 0.0370199 4.78194e-11 -0.0199934
4.51751e-21 -0.0371489 0.000281532 0.118974
-2.25875e-21 0.0371489 0.000281513 -0.0199938
0 0.0371548 0.000855733 -0.0199945
0 -0.0371548 0.000855772 0.118974
2.71051e-20 0.0371549 0.00149544 -0.0199943
0 -0.0371549 0.00149548 0.118977
0 0.037144 0.00218136 -0.0199942
0 -0.0371441 0.00218137 0.118977
-3.38813e-20 0.0370561 0.00351158 -0.0199943
2.37169e-20 -0.0370564 0.00351163 0.118966
1.35525e-20 -0.03727 2.98601e-11 0.11897
0 0.0372701 2.98577e-11 -0.0199941
-2.71051e-20 0.0371711 0.00278346 -0.0199946
0 -0.0371712 0.00278344 0.118963
2.03288e-20 -0.0371161 0.00352251 0.118963
-1.01644e-20 0.0371162 0.00352254 -0.0199945
-4.51751e-21 0.0371348 0.00333234 -0.0199945
0 -0.0371348 0.00333228 0.118964
0 -0.0374605 2.2222e-11 0.118963
-2.71051e-20 0.0374606 2.22185e-11 -0.0199945
-4.51751e-21 -0.0374674 0.000637921 0.118959
-9.03502e-21 0.0374674 0.000637907 -0.0199951
2.25875e-21 0.0374702 0.00116479 -0.0199952
4.51751e-21 -0.0374702 0.00116482 0.118959
0 0.0374664 0.00184005 -0.0199952
-3.38813e-21 -0.0374664 0.00184006 0.118957
3.38813e-21 0.0374681 0.0024973 -0.0199953
1.12938e-21 -0.0374682 0.00249729 0.118952
-6.77626e-21 0.0374674 0.00307432 -0.0199954
5.64689e-21 -0.0374674 0.00307432 0.118947
0 0.0374247 0.00357873 -0.0199953
1.35525e-20 -0.0374247 0.00357874 0.118947
1.35525e-20 -0.0376529 1.86798e-11 0.118952
-1.35525e-20 0.0376529 1.86765e-11 -0.019995
-9.03502e-21 -0.0377742 0.000280176 0.118946
4.51751e-21 0.0377742 0.000280173 -0.0199955
2.71051e-20 -0.0377819 0.000851964 0.118944
-2.71051e-20 0.0377819 0.000851941 -0.0199961
0 0.0377837 0.0014916 -0.019996
2.71051e-20 -0.0377837 0.00149162 0.118942
0 -0.03766 0.00362143 0.118933
0 0.0376601 0.00362145 -0.0199961
0 0.0377819 0.00216984 -0.0199962
0 -0.0377819 0.00216984 0.118933
0 0.0377772 0.00279747 -0.019996
0 -0.0377773 0.00279747 0.118936
-1.35525e-20 -0.0378849 1.07515e-11 0.118942
4.06576e-20 0.0378849 1.07501e-11 -0.0199957
-6.77626e-21 0.0377229 0.00353539 -0.0199964
0 -0.0377229 0.00353515 0.118929
1.12938e-21 -0.0377798 0.00335648 0.118928
5.64689e-21 0.0377798 0.00335651 -0.0199964
6.77626e-21 0.0377787 0.00364282 -0.0199963
0 -0.0377788 0.00364285 0.118928
-2.71051e-20 -0.0380777 7.23339e-12 0.118934
0 0.0380777 7.23213e-12 -0.0199962
-4.51751e-21 -0.0380891 0.000630768 0.118931
0 0.0380891 0.000630766 -0.0199967
-4.51751e-21 -0.0380959 0.00115845 0.118928
0 0.0380959 0.00115844 -0.0199968
7.90564e-21 0.0380968 0.00183414 -0.0199969
9.03502e-21 -0.0380968 0.00183414 0.118922
0 -0.0379953 0.00368205 0.118923
2.71051e-20 0.0379953 0.00368205 -0.0199964
0 0.0380943 0.00250914 -0.0199969
2.25875e-21 -0.0380943 0.00250913 0.118919
0 0.0380786 0.00304222 -0.0199968
0 -0.0380786 0.00304218 0.118919
1.35525e-20 -0.0382651 6.08614e-12 0.118924
-2.71051e-20 0.0382652 6.08489e-12 -0.019997
0 -0.0381487 0.00370985 0.11892
6.77626e-21 0.0381488 0.00370987 -0.0199965
6.77626e-21 -0.0383423 0.000233977 0.118919
0 0.0383424 0.000233978 -0.0199974
-2.71051e-20 -0.0384028 0.00084336 0.118916
2.71051e-20 0.0384028 0.000843355 -0.0199976
0 0.03841 0.00148269 -0.0199976
5.42101e-20 -0.03841 0.0014827 0.118909
2.71051e-20 0.0384072 0.00217157 -0.0199978
0 -0.0384072 0.00217157 0.118903
-3.16226e-21 0.0383454 0.00341258 -0.019997
1.807e-21 -0.0383454 0.00341256 0.118911
0 -0.0385068 3.26132e-12 0.118911
-1.35525e-20 0.0385068 3.26128e-12 -0.019998
2.71051e-20 0.0384087 0.00283772 -0.0199977
0 -0.0384087 0.0028377 0.118904
1.35525e-20 0.0383426 0.00374466 -0.019997
2.03288e-20 -0.0383427 0.00374468 0.118909
1.35525e-20 -0.0384724 0.00376815 0.118899
1.35525e-20 0.0384725 0.00376815 -0.0199976
0 -0.038689 2.10775e-12 0.118903
0 0.038689 2.10772e-12 -0.0199987
-4.51751e-21 -0.0387011 0.000532416 0.118902
1.12938e-20 0.0387011 0.000532409 -0.0199987
-2.25875e-21 -0.0387193 0.00114095 0.118898
5.64689e-21 0.0387193 0.00114095 -0.0199984
0 -0.0387248 0.0018202 0.118892
-3.38813e-21 0.0387248 0.00182019 -0.0199985
-5.64689e-21 0.0387232 0.00251582 -0.0199984
-1.12938e-21 -0.0387232 0.00251581 0.118891
-2.71051e-20 0.0386563 0.00380883 -0.0199991
-1.35525e-20 -0.0386564 0.00380883 0.118878
1.35525e-20 -0.0388555 1.85419e-12 0.118892
0 0.0388556 1.85403e-12 -0.0200002
-1.35525e-20 0.0386904 0.00364444 -0.0199989
0 -0.0386905 0.0036444 0.118879
1.12938e-21 0.0387735 0.00324347 -0.0199987
-1.69407e-21 -0.0387735 0.00324347 0.118881
-8.13152e-21 -0.0389089 0.000183069 0.11889
-1.0842e-20 0.038909 0.000183082 -0.0200004
2.71051e-20 -0.0390203 0.000818137 0.118888
2.71051e-20 0.0390203 0.000818137 -0.0199991
1.35525e-20 0.0388759 0.00384263 -0.0199989
2.71051e-20 -0.0388759 0.00384264 0.11887
0 -0.0390392 0.00145468 0.118878
0 0.0390393 0.00145468 -0.0199993
0 0.0390375 0.00215229 -0.0199992
0 -0.0390375 0.00215229 0.118877
3.38813e-21 -0.0389282 0.00385221 0.118867
0 0.0389282 0.00385223 -0.0199989
-3.38813e-21 -0.038953 0.00379144 0.118866
3.38813e-21 0.0389531 0.00379134 -0.0199989
-2.71051e-20 0.0390404 0.00284543 -0.0199989
0 -0.0390404 0.00284542 0.11888
0 -0.0391597 9.05541e-13 0.118871
0 0.0391598 9.0537e-13 -0.0200014
1.35525e-20 -0.0391706 0.00011479 0.11887
0 0.0391707 0.000114814 -0.0200014
0 0.0391098 0.0036138 -0.0199991
-4.51751e-21 -0.0391098 0.00361378 0.11886
0 -0.0393055 6.51231e-13 0.118856
-1.35525e-20 0.0393056 6.50934e-13 -0.0200017
1.12938e-21 -0.0393117 0.000500471 0.11887
2.25875e-21 0.0393118 0.000500466 -0.0200007
-1.12938e-21 -0.0393491 0.00108814 0.118867
2.25875e-21 0.0393492 0.00108814 -0.0199999
1.12938e-21 -0.0393637 0.00177668 0.118856
2.25875e-21 0.0393637 0.00177668 -0.0200003
1.35525e-20 -0.0394217 8.75992e-05 0.118841
0 0.0394218 8.76205e-05 -0.0200025
-1.35525e-20 -0.0394265 6.04603e-13 0.118842
-1.35525e-20 0.0394267 6.044e-13 -0.0200025
3.38813e-21 -0.0393554 0.00250019 0.11886
6.77626e-21 0.0393554 0.0025002 -0.02
1.69407e-21 -0.0392485 0.0039119 0.118848
-8.47033e-22 0.039249 0.00391199 -0.0199997
-3.16226e-21 0.0393554 0.00323491 -0.0200001
-4.51751e-22 -0.0393554 0.0032349 0.118849
0 -0.03933 0.00392844 0.118843
0 0.03933 0.00392844 -0.0199999
0 -0.0393346 0.0039231 0.118843
0 0.0393346 0.00392312 -0.0199999
-1.69407e-21 -0.0393412 0.00393112 0.118842
0 0.0393412 0.00393111 -0.0199999
0 -0.0393435 0.00390963 0.118842
0 0.0393435 0.00390973 -0.0199999
1.69407e-21 0.039353 0.00392505 -0.02
0 -0.0393531 0.00392504 0.118842
1.69407e-21 0.0393594 0.00393583 -0.02
0 -0.0393595 0.00393586 0.118841
-2.71051e-20 -0.0396051 0.000230853 0.118825
-2.71051e-20 0.0396052 0.000230855 -0.0200031
-2.71051e-20 -0.0396385 0.000745418 0.11888
0 0.0396385 0.000745416 -0.0199998
0 -0.0396943 0.00136798 0.118823
2.71051e-20 0.0396943 0.00136799 -0.0200016
2.71051e-20 0.0396773 0.00211516 -0.020001
0 -0.0396773 0.00211516 0.118842
1.16165e-20 -0.0395841 0.00366052 0.118829
-7.7443e-21 0.0395841 0.00366052 -0.0200007
2.71051e-20 0.0396652 0.00283591 -0.0200008
5.42101e-20 -0.0396652 0.0028359 0.11884
-6.02335e-21 -0.0398974 0.000433621 0.118839
-1.50584e-21 0.0398975 0.000433615 -0.0200017
-1.35525e-20 -0.0397727 0.00404312 0.118815
-1.35525e-20 0.0397728 0.00404312 -0.0200014
-1.35525e-20 -0.0398264 0.00397879 0.118814
0 0.0398264 0.0039788 -0.0200015
1.05879e-22 -0.0400317 5.26959e-07 0.118827
1.05879e-22 0.0400329 3.79511e-07 -0.0200024
4.51751e-21 -0.0400248 0.000878079 0.118831
2.44698e-21 0.0400249 0.000878071 -0.0200016
-1.8823e-22 -0.0400178 0.0017144 0.118823
2.35287e-22 0.0400178 0.0017144 -0.0200017
-2.25875e-21 0.0399831 0.00248337 -0.0200016
-2.25875e-21 -0.0399831 0.00248337 0.118824
-6.77626e-21 0.0399582 0.00322784 -0.0200015
0 -0.0399582 0.00322782 0.11882
3.38813e-21 0.0399279 0.00368209 -0.0200014
3.38813e-21 -0.0399279 0.00368208 0.118817
1.35525e-20 0.0399097 0.0040785 -0.0200015
0 -0.0399097 0.0040785 0.118813
0 0.0400592 0.00398574 -0.0200021
0 -0.0400592 0.00398573 0.118801
0 -0.0403283 0.00130607 0.118816
0 0.0403283 0.00130608 -0.0200019
0 -0.0403037 0.00209241 0.118814
0 0.0403037 0.00209241 -0.0200022
0 0.0402835 0.00284207 -0.0200025
0 -0.0402835 0.00284206 0.1188
1.50584e-21 -0.0403926 0.000332763 0.118816
-1.50584e-21 0.0403926 0.000332742 -0.0200032
1.35525e-20 0.0402359 0.00359474 -0.0200016
-1.35525e-20 -0.0402359 0.00359473 0.118812
8.47033e-22 -0.0402066 0.00415491 0.118786
0 0.0402066 0.00415492 -0.0200029
0 -0.0402147 0.0041461 0.118785
-6.77626e-21 0.0402147 0.00414611 -0.0200029
1.69407e-21 0.040223 0.00415913 -0.0200029
0 -0.040223 0.00415913 0.118785
1.35525e-20 0.0403025 0.00393731 -0.0200025
0 -0.0403025 0.00393731 0.118792
1.35525e-20 0.0405607 2.46968e-14 -0.0200031
0 -0.0405607 2.44752e-14 0.118813
0 0.0406279 0.00170818 -0.0200027
1.35525e-21 -0.0406279 0.00170819 0.118806
0 -0.0406701 0.000834219 0.118808
-4.51751e-21 0.0406701 0.00083421 -0.0200032
0 -0.0406057 0.00247168 0.118796
3.38813e-21 0.0406057 0.00247169 -0.0200027
-2.25875e-21 0.0405666 0.00323479 -0.0200029
2.25875e-21 -0.0405666 0.00323478 0.118788
0 -0.0407119 1.90384e-14 0.118811
-1.35525e-20 0.040712 1.91278e-14 -0.020003
-1.35525e-20 0.0404944 0.00422897 -0.0200024
1.35525e-20 -0.0404944 0.00422897 0.11879
1.35525e-21 -0.0405858 0.00374196 0.118781
2.25875e-21 0.0405858 0.00374196 -0.0200029
0 -0.0406597 0.00427138 0.118781
0 0.0406597 0.00427138 -0.0200024
1.35525e-20 -0.0408969 1.55715e-14 0.118813
0 0.0408971 1.56359e-14 -0.020003
0 -0.0409487 0.00130372 0.118811
-2.71051e-20 0.0409487 0.00130372 -0.0200037
5.42101e-20 -0.0409201 0.0020848 0.118784
0 0.0409201 0.0020848 -0.020003
-9.03502e-22 -0.0410086 0.000322017 0.118813
4.51751e-22 0.0410086 0.000322026 -0.0200031
0 -0.0409146 0.0028276 0.118784
-2.71051e-20 0.0409146 0.0028276 -0.0200032
-1.12938e-21 -0.0408447 0.00406283 0.118772
-5.64689e-21 0.0408447 0.00406283 -0.0200027
6.77626e-21 0.0408408 0.00431796 -0.0200029
0 -0.0408408 0.00431797 0.11877
2.71051e-20 0.0409362 0.00347657 -0.0200041
0 -0.0409362 0.00347657 0.118758
-1.35525e-20 0.0411094 7.75655e-15 -0.0200034
0 -0.0411094 7.73129e-15 0.118804
0 -0.0409874 0.00435557 0.118758
0 0.0409874 0.00435557 -0.0200037
-5.64689e-23 0.0412469 0.00170094 -0.0200043
6.21157e-22 -0.0412469 0.00170094 0.118774
0 -0.0413012 4.34563e-15 0.118789
2.71051e-20 0.0413013 4.34595e-15 -0.0200039
9.03502e-22 -0.0413202 0.000890383 0.118786
2.71051e-21 0.0413202 0.000890378 -0.0200045
4.84019e-22 0.0412697 0.00242851 -0.0200045
0 -0.0412697 0.00242851 0.118752
1.12938e-21 0.0412342 0.00316541 -0.0200046
4.51751e-21 -0.0412342 0.0031654 0.118749
-1.35525e-20 -0.0411644 0.00440118 0.118727
2.03288e-20 0.0411644 0.00440117 -0.0200056
-2.71051e-20 0.0412011 0.00424423 -0.0200053
1.35525e-20 -0.0412011 0.00424423 0.11873
3.76459e-22 -0.0412617 0.00386066 0.118738