# UMean  POINT_DATA 18637
# x  y  z  UMean_x  UMean_y  UMean_z
-1.35525e-20 0.0292381 8.09214e-08 0 0 0
1.35525e-20 -0.0292381 8.09214e-08 0 0 0
0 0.0292381 0.000233485 0 0 0
0 -0.0292381 0.000233515 0 0 0
3.38813e-21 0.0292381 0.000430835 0 0 0
3.38813e-21 -0.0292381 0.000430882 0 0 0
-6.77626e-21 0.029238 0.000663804 0 0 0
0 -0.029238 0.000663883 0 0 0
0 0.029238 0.00090804 0 0 0
0 -0.029238 0.000908135 0 0 0
3.38813e-21 0.029238 0.00111509 0 0 0
0 -0.029238 0.00111514 0 0 0
6.77626e-21 0.0292379 0.00135916 0 0 0
-1.35525e-20 -0.029238 0.00135924 0 0 0
3.38813e-21 0.0292379 0.00161398 0 0 0
3.38813e-21 -0.029238 0.00161406 0 0 0
6.77626e-21 0.0292379 0.00183191 0 0 0
3.38813e-21 -0.0292379 0.00183193 0 0 0
6.77626e-21 0.0292379 0.002087 0 0 0
-6.77626e-21 -0.0292379 0.002087 0 0 0
6.77626e-21 0.0293159 0.000332872 -4.05149e-07 1.77875e-06 -5.80608e-08
1.35525e-20 -0.0293159 0.000332922 0.000191777 -0.000550017 2.11773e-06
-1.01644e-20 0.0293201 0.00100469 -2.59438e-05 6.58806e-05 1.60088e-07
0 -0.0293201 0.0010048 0.000410194 -0.00109962 1.08116e-05
0 -0.0293199 0.00170033 0.000378634 -0.00102627 -2.47362e-05
0 0.0293199 0.00170027 -2.70947e-05 7.06734e-05 -3.50934e-06
0 0.0294721 0.000122228 -1.21806e-06 5.34771e-06 -1.74556e-07
1.35525e-20 -0.0294721 0.000122259 0.000576572 -0.00165361 6.36689e-06
-1.35525e-20 0.0294728 7.47971e-08 0 0 0
0 -0.0294728 7.47973e-08 0 0 0
0 0.0294797 0.000527865 -1.25697e-06 5.51853e-06 -1.80132e-07
1.35525e-20 -0.0294797 0.000527979 0.00059499 -0.00170644 6.57028e-06
0 0.0294753 0.0007964 -7.49222e-05 0.000190254 4.62312e-07
0 -0.0294753 0.000796545 0.00118478 -0.00317608 3.12276e-05
0 0.0294755 0.00118677 -7.50355e-05 0.000190542 4.63011e-07
-2.03288e-20 -0.0294755 0.00118694 0.00118656 -0.00318085 3.12745e-05
-6.77626e-21 0.0294683 0.00147423 -7.6148e-05 0.000198623 -9.86276e-06
1.35525e-20 -0.0294683 0.00147436 0.00106428 -0.00288468 -6.95295e-05
6.77626e-21 0.0294625 0.00186313 -7.42505e-05 0.000193673 -9.61699e-06
-1.35525e-20 -0.0294625 0.00186321 0.00103777 -0.00281282 -6.77975e-05
2.71051e-20 -0.029578 6.6417e-08 0 0 0
0 0.029578 6.64162e-08 0 0 0
0 -0.0295009 0.00213468 0 0 0
-6.77626e-21 0.0295009 0.00213468 0 0 0
1.35525e-20 0.029587 0.000650923 -5.66677e-05 0.000144301 3.04332e-06
-2.71051e-20 -0.029587 0.000651142 0.00142077 -0.00349761 6.65101e-05
1.35525e-20 0.0295378 0.00203788 -7.02742e-05 0.000159239 -1.09366e-05
0 -0.0295378 0.00203791 0.00112581 -0.00258463 -0.000150398
0 0.0295841 0.00130575 -0.000113838 0.00030403 -2.65495e-06
-1.35525e-20 -0.0295841 0.001306 0.0019336 -0.00489514 -4.16407e-06
0 0.0295849 0.00192062 -0.000105881 0.00027375 -1.19138e-05
6.77626e-21 -0.0295849 0.00192072 0.00172024 -0.00423067 -0.000198968
0 0.029649 0.00216152 0 0 0
1.35525e-20 -0.029649 0.00216153 0 0 0
0 0.0297926 0.000963737 -0.000144724 0.000424505 -1.28168e-06
-1.35525e-21 -0.0297926 0.000964021 0.00279968 -0.00762415 -3.09348e-06
0 0.0298094 7.62576e-08 0 0 0
0 -0.0298094 7.62593e-08 0 0 0
-2.25875e-22 -0.0298204 0.000317605 0.00135741 -0.00389506 -6.2058e-05
6.77626e-22 0.0298204 0.000317475 -1.41863e-05 3.91713e-05 -2.32079e-07
4.96926e-21 0.0297852 0.00156831 -0.000160697 0.000459824 -4.23545e-06
-9.03502e-22 -0.0297852 0.00156853 0.00265873 -0.00729595 -9.92899e-05
5.64689e-22 0.0297946 0.00197119 -0.000107865 0.000298314 -7.20103e-06
-5.64689e-22 -0.0297946 0.00197126 0.00184522 -0.00474596 -0.000164808
0 -0.0298851 8.57398e-08 0 0 0
6.77626e-21 0.0298851 8.57415e-08 0 0 0
6.77626e-21 0.0298185 0.00219226 0 0 0
-2.71051e-20 -0.0298186 0.00219226 0 0 0
1.35525e-20 -0.0299229 0.00221118 0 0 0
-1.35525e-20 0.0299229 0.00221118 0 0 0
0 -0.0300583 1.01025e-07 0 0 0
0 0.0300583 1.01025e-07 0 0 0
-9.03502e-21 0.030042 0.00125425 -0.000229246 0.000636499 7.41204e-07
-4.51751e-21 -0.0300421 0.00125455 0.00393415 -0.0105002 4.01305e-05
2.90411e-21 0.030023 0.00171056 -0.000213816 0.00059669 -1.54232e-06
-1.64566e-20 -0.0300231 0.00171076 0.00345719 -0.00927553 -0.000122881
9.03502e-21 0.0300766 0.000656709 -0.000124004 0.00034768 4.42348e-07
-9.03502e-21 -0.0300766 0.000656982 0.00310254 -0.00825533 6.16676e-05
0 0.0301411 0.00011795 -2.31611e-06 5.54583e-06 5.51758e-07
0 -0.0301411 0.000118016 0.000548527 -0.00151109 2.31255e-06
0 0.0301431 9.36971e-08 0 0 0
-6.77626e-21 -0.0301431 9.3695e-08 0 0 0
1.35525e-20 -0.0300722 0.00223824 0 0 0
-1.35525e-20 0.0300722 0.00223824 0 0 0
1.35525e-20 -0.0302709 0.000327948 0.00205564 -0.00555591 -8.34618e-06
0 0.0302709 0.000327843 -5.15567e-06 1.2803e-05 1.15319e-06
-1.35525e-20 0.0302588 0.000959241 -0.000234325 0.000645403 2.76165e-06
0 -0.0302588 0.000959456 0.00437535 -0.0117184 6.7667e-05
0 0.0302233 0.00199378 -0.000168243 0.000478721 1.08576e-05
0 -0.0302233 0.00199385 0.00262413 -0.00726622 8.46274e-05
2.71051e-20 0.0302514 0.00155263 -0.000271737 0.000756972 1.16027e-05
0 -0.0302514 0.00155281 0.00444158 -0.012076 0.000129904
0 0.0303943 0.00229664 0 0 0
1.01644e-20 -0.0303944 0.00229665 0 0 0
0 -0.0305071 4.03816e-05 0.000187709 -0.000517104 7.91367e-07
3.38813e-21 0.0305071 4.03474e-05 -7.92358e-07 1.89727e-06 1.8876e-07
0 -0.0305084 2.78803e-08 0 0 0
0 0.0305085 2.78785e-08 0 0 0
0 -0.0305355 2.44804e-08 0 0 0
3.38813e-21 0.0305355 2.44805e-08 0 0 0
6.77626e-21 0.030464 0.00230926 0 0 0
-6.77626e-21 -0.030464 0.00230927 0 0 0
3.38813e-21 0.0305559 2.56048e-08 0 0 0
-3.38813e-21 -0.0305559 2.56052e-08 0 0 0
3.38813e-21 0.0305566 2.16906e-05 -3.32841e-07 8.84154e-07 -1.12853e-07
-3.38813e-21 -0.0305566 2.17043e-05 0.000127059 -0.000327019 -8.87502e-06
1.41172e-22 -0.0305496 0.000656518 0.00382348 -0.0102598 1.62636e-05
2.11758e-22 0.0305496 0.000656265 -0.000143305 0.000400459 3.02471e-06
1.8823e-22 0.0305132 0.00170673 -0.000283808 0.000795131 8.07002e-06
0 -0.0305132 0.00170684 0.00455505 -0.0123941 0.000148094
4.51751e-22 0.0305476 0.0012451 -0.000305375 0.000855178 7.21752e-06
2.25875e-22 -0.0305476 0.00124527 0.00532214 -0.0143448 0.000121618
0 -0.030501 0.00231597 0 0 0
0 0.030501 0.00231597 0 0 0
-3.38813e-21 0.0306237 3.57384e-08 0 0 0
0 -0.0306238 3.57449e-08 0 0 0
-3.38813e-21 -0.0306099 0.00219282 0.00149323 -0.00408272 4.34915e-05
3.38813e-21 0.03061 0.00219278 -9.67952e-05 0.000268621 1.68603e-06
0 -0.0307226 0.00235616 0 0 0
-3.38813e-21 0.0307226 0.00235617 0 0 0
-5.42101e-20 -0.0308383 0.000320955 0.00267093 -0.00719473 -3.74899e-05
2.71051e-20 0.0308384 0.000320914 -3.65462e-06 9.69431e-06 -2.27634e-06
5.64689e-21 0.0308116 0.00198362 -0.000252462 0.000707281 5.04739e-06
-2.25875e-21 -0.0308116 0.00198366 0.00388398 -0.0106212 0.000106512
1.35525e-20 -0.0309907 0.00101963 0.00636793 -0.0170724 7.04681e-05
1.35525e-20 0.0309907 0.00101953 -0.000341744 0.000979342 8.16971e-06
4.51751e-21 0.0309922 0.00150601 -0.000414367 0.00117732 -1.16835e-06
1.807e-20 -0.0309923 0.00150608 0.00680107 -0.018295 0.000129468
-1.35525e-20 0.0310395 9.17131e-08 0 0 0
2.71051e-20 -0.0310395 9.1716e-08 0 0 0
0 0.0310416 0.000119385 -1.00234e-06 2.65363e-06 -1.01551e-06
2.71051e-20 -0.0310416 0.000119381 0.00121382 -0.00333278 1.23144e-05
0 -0.030965 0.0024001 0 0 0
6.77626e-21 0.030965 0.0024001 0 0 0
0 -0.030982 0.00237275 0.000456652 -0.00124389 -7.34774e-06
-6.77626e-21 0.030982 0.00237274 -3.30497e-05 9.05152e-05 4.9881e-08
0 0.0310105 0.00240831 0 0 0
0 -0.0310105 0.00240831 0 0 0
0 0.0310179 0.00233593 -5.38266e-05 0.000153998 2.84521e-07
-2.03288e-20 -0.0310179 0.00233593 0.000770981 -0.00209671 1.12833e-05
4.51751e-21 -0.0311223 0.000639295 0.0050876 -0.0133387 0.000113631
9.03502e-21 0.0311223 0.000639241 -0.000200569 0.000558062 7.38565e-06
0 0.0310526 0.00237695 -4.9545e-05 0.000126484 -1.47235e-06
0 -0.0310526 0.00237695 0.000660639 -0.00176324 -1.05151e-05
0 -0.0311459 9.7154e-08 0 0 0
-1.35525e-20 0.0311459 9.7152e-08 0 0 0
0 0.031071 0.00241925 0 0 0
0 -0.031071 0.00241926 0 0 0
2.71051e-20 0.0312091 0.00177617 -0.000394997 0.00108635 -1.54863e-05
2.71051e-20 -0.0312091 0.0017762 0.00602575 -0.0159208 -0.000146282
2.71051e-20 0.0312491 0.00122874 -0.000425038 0.00118106 -3.51909e-06
0 -0.0312491 0.00122879 0.00718286 -0.0188324 5.79402e-05
0 -0.0312858 8.40769e-08 0 0 0
-1.35525e-20 0.0312858 8.40688e-08 0 0 0
0 -0.0312917 0.000133801 0.00157053 -0.00412455 3.69032e-05
0 0.0312917 0.000133814 -1.22504e-06 2.89568e-06 1.34793e-06
2.25875e-21 0.0313889 0.00201505 -0.00034509 0.000997418 -1.12722e-05
-4.51751e-21 -0.0313889 0.00201507 0.00517628 -0.014705 -6.64873e-05
0 0.0313959 0.00247812 0 0 0
0 -0.0313959 0.00247812 0 0 0
4.51751e-21 -0.0314932 0.000408813 0.00407803 -0.0105191 8.73966e-05
-9.03502e-21 0.0314932 0.000408772 -7.62981e-05 0.000201735 4.04039e-06
6.77626e-21 -0.0315059 0.00091593 0.00725208 -0.0194231 0.000121049
2.25875e-21 0.0315059 0.000915908 -0.000373455 0.00107224 -1.18292e-05
0 0.0314281 0.00241767 -8.42532e-05 0.000215091 -2.50378e-06
0 -0.0314281 0.00241768 0.00112323 -0.0029979 -1.7878e-05
-2.25875e-21 0.0315016 0.00151821 -0.000497576 0.00142316 -8.45708e-06
2.25875e-21 -0.0315016 0.00151824 0.00796697 -0.0217563 1.92097e-05
-2.71051e-20 -0.0314985 0.00234892 0.00158864 -0.00432466 1.72827e-05
0 0.0314986 0.00234891 -0.00011277 0.000328019 3.45195e-07
0 -0.0315086 0.00249848 0 0 0
0 0.0315086 0.00249848 0 0 0
1.35525e-20 0.0316957 0.000127101 -1.16418e-06 2.75183e-06 1.28097e-06
-1.35525e-20 -0.0316957 0.000127026 0.00149177 -0.00391773 3.50527e-05
-1.35525e-20 0.0316993 1.28444e-08 0 0 0
0 -0.0316993 1.28328e-08 0 0 0
2.71051e-20 -0.0317724 0.000610912 0.00597564 -0.0152576 0.000136199
-2.71051e-20 0.0317724 0.000610901 -0.000227594 0.000627459 1.49238e-06
-2.71051e-20 0.0317679 0.00121735 -0.000497377 0.00139189 -3.52286e-06
-2.71051e-20 -0.0317679 0.00121736 0.00845474 -0.0221342 6.59322e-05
0 0.0317537 0.00187034 -0.000453741 0.00128319 -8.84284e-06
0 -0.0317537 0.00187034 0.00683363 -0.0182304 -0.000165555
-2.71051e-20 -0.0317094 0.00253469 0 0 0
-2.71051e-20 0.0317094 0.00253469 0 0 0
-1.35525e-20 -0.0318341 3.55441e-10 0 0 0
0 0.0318342 3.5764e-10 0 0 0
5.64689e-22 -0.0317532 0.00228382 0.00351739 -0.010526 -0.000103958
0 0.0317532 0.0022838 -0.000252087 0.000789008 -1.43387e-05
0 -0.0319513 4.55602e-10 0 0 0
0 0.0319515 4.57813e-10 0 0 0
0 -0.0319524 0.000127644 0.00173266 -0.00434692 -1.49049e-07
-1.35525e-20 0.0319526 0.000127724 -1.1148e-06 3.18619e-06 -9.56724e-08
-1.35525e-20 0.031883 0.00256626 0 0 0
0 -0.031883 0.00256626 0 0 0
0 -0.0319995 0.000914652 0.00829171 -0.0218441 8.35227e-05
0 0.0319996 0.000914645 -0.000435418 0.00121838 -2.41633e-06
-8.13152e-21 -0.0320112 0.000400526 0.0044994 -0.0113734 4.70163e-05
1.0842e-20 0.0320112 0.000400506 -6.65775e-05 0.000179008 9.85294e-07
0 -0.0320267 0.00227715 0.00440328 -0.0124228 -8.90066e-05
-2.25875e-21 0.0320267 0.00227715 -0.000300034 0.000894245 -2.5869e-06
0 0.0320296 0.00251389 -8.59355e-05 0.000264584 -9.37616e-07
2.71051e-20 -0.0320296 0.00251388 0.00133878 -0.00380127 -7.46214e-05
-4.51751e-21 -0.0320975 0.00153751 0.00942203 -0.025346 0.000263913
2.25875e-21 0.0320975 0.0015375 -0.000597437 0.00169898 1.66615e-05
6.77626e-21 -0.0320426 0.00259528 0 0 0
6.77626e-21 0.0320426 0.00259528 0 0 0
4.51751e-21 0.0321203 0.00203456 -0.000452528 0.00132876 4.06435e-06
-4.51751e-21 -0.0321203 0.00203456 0.00671683 -0.0183861 2.50463e-05
-1.35525e-20 -0.032135 0.0023896 0.00353644 -0.00998202 -0.0001917
0 0.032135 0.0023896 -0.00023137 0.000677557 -1.60112e-06
0 0.0322923 0.000126396 -1.10319e-06 3.15301e-06 -9.46762e-08
0 -0.0322923 0.000126368 0.00171532 -0.00430341 -1.47557e-07
-1.35525e-20 0.0323016 2.23509e-09 0 0 0
0 -0.0323016 2.23359e-09 0 0 0
0 -0.0322106 0.00262564 0 0 0
-1.35525e-20 0.0322106 0.00262563 0 0 0
1.35525e-20 -0.0322719 0.00254337 0.00158108 -0.00448924 -8.81268e-05
-1.35525e-20 0.0322719 0.00254337 -0.000101491 0.000312478 -1.10734e-06
1.35525e-20 -0.032418 2.33105e-09 0 0 0
1.35525e-20 0.032418 2.33258e-09 0 0 0
6.77626e-21 -0.0324263 0.000612636 0.00665811 -0.0174432 5.63803e-05
0 0.0324263 0.000612628 -0.000248065 0.00070783 9.01171e-07
-4.51751e-21 0.0324222 0.00112458 -0.000542539 0.00155213 6.03155e-06
-4.51751e-21 -0.0324222 0.0011246 0.00963005 -0.0255598 0.000148246
0 0.0324121 0.00187572 -0.000556927 0.00161719 1.21941e-05
0 -0.0324121 0.00187572 0.00823246 -0.0221782 0.000140593
0 -0.0323802 0.00265647 0 0 0
1.35525e-20 0.0323802 0.00265646 0 0 0
0 0.0324114 0.0022971 -0.000350554 0.00103206 6.51916e-06
-5.64689e-22 -0.0324114 0.0022971 0.00514759 -0.0142112 5.51441e-06
0 -0.032547 2.20758e-09 0 0 0
0 0.032547 2.20888e-09 0 0 0
0 -0.0325489 0.000125731 0.00180838 -0.00458042 1.50802e-05
1.35525e-20 0.0325489 0.000125761 -1.36363e-06 3.05805e-06 4.57511e-08
-1.35525e-20 0.0326034 0.00269726 0 0 0
6.77626e-21 -0.0326035 0.00269726 0 0 0
0 -0.032737 0.000308379 0.00410403 -0.0105986 3.49951e-05
-2.71051e-20 0.032737 0.000308371 -3.14248e-06 7.32982e-06 -6.05465e-07
2.25875e-21 -0.0327282 0.00154847 0.010528 -0.0282214 0.000268812
0 0.0327282 0.00154846 -0.000679875 0.00196201 1.26932e-05
0 0.0326738 0.00254252 -0.000185755 0.000566423 9.02223e-06
-4.51751e-21 -0.0326738 0.00254252 0.00268105 -0.00758287 6.15256e-05
9.03502e-21 0.0327075 0.00206802 -0.000548781 0.00160727 1.39266e-05
-4.51751e-21 -0.0327075 0.00206803 0.00809044 -0.0218646 0.000174535
2.71051e-20 -0.0327081 0.00271619 0 0 0
0 0.0327081 0.00271619 0 0 0
4.51751e-21 0.0328421 0.000917798 -0.000499694 0.00144296 3.7343e-06
0 -0.0328421 0.00091781 0.00960748 -0.0253576 0.000125876
-1.35525e-20 -0.0328866 1.93643e-09 0 0 0
0 0.0328867 1.93676e-09 0 0 0
1.35525e-20 -0.032889 0.000149431 0.00214925 -0.00544381 1.79228e-05
1.35525e-20 0.032889 0.00014945 -1.6205e-06 3.63409e-06 5.43691e-08
1.93608e-21 0.0329824 0.000542139 -0.000177037 0.000516185 -3.8469e-08
-1.93608e-20 -0.0329825 0.000542161 0.00614816 -0.016065 6.48775e-05
-2.71051e-20 -0.0330372 1.79015e-09 0 0 0
0 0.0330372 1.79024e-09 0 0 0
0 0.0329464 0.00275986 0 0 0
0 -0.0329464 0.00275986 0 0 0
-2.25875e-22 -0.0329866 0.00235418 0.00603705 -0.01654 7.1729e-05
1.01644e-21 0.0329866 0.00235417 -0.000424161 0.00123864 6.27214e-06
-2.71051e-20 0.0330505 0.0012313 -0.000642095 0.00187821 4.74217e-06
2.71051e-20 -0.0330505 0.00123132 0.0107972 -0.0287069 0.000134831
0 0.03302 0.00190093 -0.000644345 0.00188774 7.31972e-06
0 -0.03302 0.00190094 0.00930127 -0.0250333 6.99922e-05
0 -0.0332006 2.02157e-09 0 0 0
0 0.0332007 2.02156e-09 0 0 0
-6.77626e-21 -0.0333521 0.000302632 0.00408527 -0.010604 3.17918e-05
-4.51751e-21 0.0333521 0.00030262 -5.4522e-05 0.000159048 -2.10594e-09
6.77626e-21 0.0333579 0.000916518 -0.000535099 0.00154963 -2.69486e-07
9.03502e-21 -0.0333579 0.000916545 0.0103526 -0.0270836 0.000117037
-3.38813e-21 0.0332515 0.00281589 0 0 0
0 -0.0332516 0.00281589 0 0 0
0 -0.0333432 0.00156301 0.0116984 -0.0310902 0.000185132
0 0.0333432 0.00156299 -0.000762792 0.00222183 8.85959e-06
0 0.0332953 0.00276465 -7.52263e-05 0.000220774 1.88986e-06
0 -0.0332954 0.0027646 0.00103961 -0.00290911 3.82467e-05
-3.72694e-20 0.0333124 0.00282716 0 0 0
0 -0.0333125 0.00282717 0 0 0
1.12938e-20 0.03334 0.00259894 -0.000286465 0.000836712 5.52507e-06
-3.38813e-21 -0.03334 0.00259895 0.00397772 -0.0110799 0.000118467
2.25875e-21 0.0333776 0.00214933 -0.000620619 0.00185207 1.03076e-06
-9.03502e-21 -0.0333776 0.00214934 0.00881069 -0.0241286 5.4601e-05
0 -0.0334909 2.97183e-09 0 0 0
-1.35525e-20 0.0334909 2.97138e-09 0 0 0
0 -0.0336619 3.20036e-09 0 0 0
2.71051e-20 0.033662 3.19979e-09 0 0 0
0 0.0336674 0.000602348 -0.000293239 0.000855141 -2.55039e-06
2.71051e-20 -0.0336674 0.000602386 0.00776065 -0.0202935 2.2613e-05
0 0.0336288 0.00191783 -0.000735914 0.00217839 6.13628e-06
0 -0.0336288 0.00191785 0.0103775 -0.0279151 -3.28984e-05
2.71051e-20 0.0336642 0.00123333 -0.000711687 0.00208466 2.5256e-06
0 -0.0336642 0.00123337 0.01183 -0.0313069 4.42203e-05
-2.71051e-20 0.0335882 0.00287788 0 0 0
2.71051e-20 -0.0335883 0.00287789 0 0 0
2.71051e-20 0.0336882 0.00242285 -0.00050038 0.00148367 9.30895e-07
2.71051e-20 -0.0336882 0.00242286 0.00670522 -0.0183696 -5.21336e-06
0 -0.0338384 2.82135e-09 0 0 0
0 0.0338384 2.82081e-09 0 0 0
-1.35525e-20 0.0338118 0.00291884 0 0 0
0 -0.0338119 0.00291885 0 0 0
-6.77626e-21 -0.0339781 0.000302716 0.00437936 -0.0113179 -1.91906e-05
2.25875e-21 0.0339781 0.000302698 -5.84982e-05 0.0001697 -2.87949e-07
1.12938e-20 -0.0339808 0.000914846 0.0111978 -0.0291794 1.03113e-05
-4.51751e-21 0.0339808 0.000914783 -0.000579797 0.00169498 -2.61157e-06
-1.12938e-20 0.0339744 0.00155885 -0.000844628 0.00248669 6.19886e-06
6.77626e-21 -0.0339744 0.0015589 0.0128099 -0.0338581 3.30857e-05
-2.03288e-21 0.0339479 0.0026773 -0.000345789 0.000961144 6.48762e-06
-1.12938e-21 -0.033948 0.00267731 0.00461525 -0.0124224 0.000212484
-2.25875e-21 0.0339878 0.00215892 -0.000740034 0.00218068 6.99718e-06
-4.51751e-21 -0.0339878 0.00215894 0.0102564 -0.0275515 7.78085e-05
-1.35525e-20 0.0341105 1.81896e-09 0 0 0
0 -0.0341105 1.81909e-09 0 0 0
0 0.034033 0.00295946 0 0 0
-6.77626e-21 -0.0340333 0.00295951 0 0 0
0 -0.0342884 1.43974e-09 0 0 0
2.71051e-20 0.0342884 1.43965e-09 0 0 0
2.71051e-20 -0.0342943 0.000599028 0.00831833 -0.0215788 -2.45298e-05
0 0.0342944 0.000598959 -0.000317521 0.000923146 -2.13635e-06
4.06576e-20 0.0342165 0.00299309 0 0 0
0 -0.0342167 0.00299313 0 0 0
2.71051e-20 0.0342949 0.00244902 -0.000590316 0.00175339 8.15511e-06
-2.71051e-20 -0.0342949 0.00244904 0.00763359 -0.0207687 -4.2759e-05
1.74247e-20 -0.034362 0.00129523 0.0133195 -0.0349903 -5.13014e-05
-1.16165e-20 0.034362 0.00129516 -0.000846933 0.00248728 8.13498e-06
0 -0.0343655 0.00179195 0.0128474 -0.0340907 -5.14604e-05
-9.68038e-21 0.0343655 0.00179189 -0.00089723 0.00265627 1.36768e-05
0 0.0343332 0.00301467 0 0 0
0 -0.0343333 0.00301469 0 0 0
-1.35525e-20 -0.0344682 1.2841e-09 0 0 0
2.71051e-20 0.0344682 1.284e-09 0 0 0
9.03502e-21 -0.0345084 0.000909543 0.0118697 -0.0308026 -2.29435e-05
4.51751e-21 0.0345085 0.000909463 -0.000620817 0.0018107 -5.00643e-06
-9.03502e-21 0.0345181 0.00215903 -0.000831791 0.00247113 1.37481e-05
-9.03502e-21 -0.0345181 0.00215907 0.0111658 -0.0299003 -6.20046e-05
-2.25875e-21 -0.0346072 0.000300839 0.00464202 -0.0118719 -6.83555e-06
-4.51751e-21 0.0346072 0.000300792 -6.54273e-05 0.000189177 3.87767e-07
0 0.0346152 0.0015431 -0.000969109 0.00285807 1.48912e-05
2.71051e-20 -0.0346152 0.00154318 0.0142332 -0.0374672 -4.95722e-05
-4.51751e-22 0.0345577 0.00272973 -0.000437545 0.00125935 6.472e-06
7.90564e-22 -0.0345578 0.00272972 0.00550388 -0.015213 0.000159341
-6.77626e-21 0.0345982 0.00306315 0 0 0
0 -0.0345983 0.00306318 0 0 0
-1.35525e-20 0.0347357 9.21209e-10 0 0 0
-1.35525e-20 -0.0347357 9.21261e-10 0 0 0
6.77626e-21 0.0346817 0.0030786 0 0 0
6.77626e-21 -0.0346818 0.00307861 0 0 0
0 -0.0349166 7.64663e-10 0 0 0
0 0.0349166 7.64607e-10 0 0 0
-9.03502e-21 -0.0349264 0.000691229 0.0104584 -0.026969 -5.35982e-05
1.807e-20 0.0349264 0.000691147 -0.000474552 0.0013856 -9.84453e-06
6.77626e-21 0.0349292 0.00121456 -0.000841719 0.00247866 -9.785e-07
1.12938e-20 -0.0349292 0.00121466 0.0137743 -0.0359347 -0.000114801
4.51751e-21 0.0349324 0.00185908 -0.000969874 0.00288519 1.77615e-05
-2.25875e-21 -0.0349324 0.00185915 0.0133881 -0.0354535 -0.000137344
-3.04932e-20 0.0348918 0.00311689 0 0 0
-1.69407e-20 -0.0348919 0.00311691 0 0 0
-6.77626e-21 0.0349974 0.00246603 -0.000715161 0.00215171 1.35212e-05
-4.51751e-21 -0.0349975 0.00246603 0.00892438 -0.0242542 -7.6604e-05
-1.35525e-20 -0.0350985 7.00968e-10 0 0 0
-2.71051e-20 0.0350985 7.00918e-10 0 0 0
0 0.0350013 0.00286026 -0.000349129 0.00110072 -4.27833e-06
-9.03502e-21 -0.0350014 0.00286027 0.00413402 -0.0122289 -7.88784e-07
0 -0.0352407 0.000295921 0.00486725 -0.0123474 2.48776e-06
4.51751e-21 0.0352407 0.000295875 -7.31246e-05 0.000211323 9.32595e-07
0 0.0352487 0.000893704 -0.000698126 0.00204077 -2.14551e-05
0 -0.0352487 0.000893811 0.0132776 -0.034283 -0.00010121
3.38813e-20 0.0351346 0.00316138 0 0 0
2.71051e-20 -0.0351347 0.0031614 0 0 0
-2.71051e-20 0.0352503 0.00152796 -0.00104527 0.003114 1.03967e-05
2.71051e-20 -0.0352503 0.00152806 0.015144 -0.0397354 -0.000271971
0 0.0351466 0.00316358 0 0 0
1.69407e-21 -0.0351467 0.00316359 0 0 0
0 0.0351792 0.00281931 -0.0004331 0.0013408 1.1376e-06
-6.77626e-21 -0.0351793 0.00281934 0.00519348 -0.014973 -6.69748e-05
1.69407e-21 0.0351514 0.0031503 -1.87333e-05 5.85545e-05 9.61541e-08
0 -0.0351514 0.00315042 0.00023111 -0.000697794 -4.48645e-06
0 0.0352563 0.002173 -0.00100487 0.0030061 3.15883e-05
0 -0.0352563 0.00217304 0.0128383 -0.0341202 -0.000118742
-3.38813e-21 -0.0352266 0.00317815 0 0 0
-8.47033e-22 0.0352273 0.00317828 0 0 0
-1.35525e-20 0.0353735 5.21769e-10 0 0 0
0 -0.0353735 5.21782e-10 0 0 0
6.77626e-21 0.0353094 0.00290198 -0.000381633 0.00119118 6.32699e-07
0 -0.0353094 0.00290197 0.00448765 -0.0132042 -0.000104941
-2.71051e-20 -0.0355533 4.57347e-10 0 0 0
-2.71051e-20 0.0355533 4.57338e-10 0 0 0
6.77626e-21 0.0355671 0.001196 -0.000890919 0.00264345 -1.09969e-06
-2.25875e-21 -0.0355671 0.00119611 0.0144811 -0.0377484 -0.000261851
-2.25875e-21 0.0355696 0.00184888 -0.00106235 0.00319651 2.21877e-05
-2.25875e-21 -0.0355696 0.00184895 0.0142947 -0.0377809 -0.000324155
-2.25875e-21 -0.0356125 0.00062238 0.00973466 -0.025108 -7.93844e-05
-4.51751e-21 0.0356125 0.0006223 -0.000400987 0.00116713 -8.21671e-06
1.12938e-20 0.0355744 0.00250526 -0.000810491 0.002443 2.23238e-05
-2.25875e-21 -0.0355744 0.00250527 0.00967763 -0.0259566 -0.00018592
3.38813e-21 -0.0355282 0.00323309 0 0 0
-6.77626e-21 0.0355283 0.0032331 0 0 0
0 -0.0355416 0.00321424 0.000351238 -0.00106548 -1.47366e-05
0 0.0355417 0.00321429 -3.14412e-05 9.93681e-05 -5.02949e-07
4.51751e-21 0.0355809 0.00287392 -0.000481375 0.00146224 1.14151e-05
4.51751e-21 -0.0355809 0.00287394 0.00556852 -0.0155966 -6.74377e-05
-3.38813e-21 0.0355739 0.00316255 -0.000109004 0.000334154 2.67813e-06
0 -0.0355739 0.00316239 0.00120837 -0.00338361 -1.98914e-05
0 -0.035567 0.00324017 0 0 0
6.77626e-21 0.035567 0.00324016 0 0 0
0 -0.0357313 4.0682e-10 0 0 0
2.71051e-20 0.0357313 4.06801e-10 0 0 0
0 0.0356067 0.00321938 -4.30477e-05 0.000134982 3.14781e-06
0 -0.0356068 0.00321934 0.000450179 -0.00129967 1.84831e-05
0 0.03562 0.00324983 0 0 0
3.38813e-21 -0.0356201 0.00324986 0 0 0
0 -0.0358767 0.000193584 0.00312045 -0.00814462 1.10733e-05
-9.03502e-21 0.0358767 0.000193565 -2.24328e-06 4.77404e-06 1.06983e-06
2.71051e-20 0.035885 0.00087563 -0.000730858 0.00212416 -8.76113e-06
0 -0.035885 0.000875722 0.0138623 -0.0356804 -0.000171198
2.71051e-20 0.0358905 0.00150745 -0.00110136 0.00333503 1.70124e-05
-2.71051e-20 -0.0358906 0.00150754 0.0157763 -0.0416382 -0.000496043
2.71051e-20 0.035888 0.00216762 -0.00110766 0.00336377 3.07964e-05
2.71051e-20 -0.035888 0.00216765 0.0135909 -0.0360665 -0.000403832
0 0.0358662 0.00295245 -0.000482581 0.00144068 1.9947e-05
6.77626e-21 -0.0358662 0.00295244 0.0053735 -0.0147884 -1.74261e-05
1.35525e-20 0.0360202 2.4784e-10 0 0 0
1.35525e-20 -0.0360202 2.47859e-10 0 0 0
6.77626e-21 -0.036024 0.00332348 0 0 0
0 0.0360241 0.0033235 0 0 0
0 -0.0361958 1.9684e-10 0 0 0
-2.71051e-20 0.0361958 1.96811e-10 0 0 0
2.25875e-21 -0.0362011 0.000563602 0.00940093 -0.0242638 -0.00010991
0 0.0362011 0.00056354 -0.000361107 0.00105886 1.55779e-07
0 -0.03606 0.00326909 0.000976695 -0.00281972 4.01004e-05
-2.71051e-20 0.03606 0.00326916 -9.35192e-05 0.000293244 6.83848e-06
9.03502e-21 0.036206 0.00117906 -0.000941923 0.00279479 1.01608e-05
6.77626e-21 -0.036206 0.00117914 0.0150869 -0.0393679 -0.000434934
0 0.0362044 0.00184432 -0.00115558 0.00347734 2.55161e-05
0 -0.0362045 0.00184436 0.0149516 -0.0394709 -0.000632108
6.77626e-21 0.0361886 0.0025326 -0.0009205 0.00276524 2.42816e-05
4.51751e-21 -0.0361886 0.0025326 0.0104676 -0.0276681 -0.00046425
0 0.0361316 0.00334311 0 0 0
1.35525e-20 -0.0361316 0.00334312 0 0 0
-4.51751e-21 0.0361686 0.00293576 -0.000578398 0.00170669 1.55017e-05
4.51751e-21 -0.0361686 0.00293578 0.00626969 -0.0169535 -0.000126799
-1.35525e-20 0.0361566 0.00314793 -0.000290576 0.000867499 9.12233e-06
0 -0.0361566 0.00314776 0.00305917 -0.0082684 -6.6902e-05
2.71051e-20 -0.0363723 1.67552e-10 0 0 0
-2.71051e-20 0.0363723 1.67523e-10 0 0 0
0 0.0362561 0.00328629 -0.00013245 0.000401775 5.43507e-06
0 -0.0362563 0.00328624 0.00133262 -0.00367651 3.95651e-05
-6.77626e-21 0.0363064 0.00337495 0 0 0
0 -0.0363066 0.003375 0 0 0
9.03502e-21 -0.0365138 0.000190574 0.00318673 -0.00815096 4.25655e-05
-9.03502e-21 0.0365138 0.000190566 -1.49725e-06 5.35392e-06 -1.30732e-06
0 0.0365218 0.000862039 -0.000748277 0.00221795 1.10545e-05
0 -0.0365218 0.000862105 0.0144665 -0.0373263 -0.000319293
0 0.0365244 0.00149871 -0.00120183 0.00354969 2.25931e-05
-2.71051e-20 -0.0365244 0.00149876 0.0163933 -0.0431953 -0.000752444
2.71051e-20 0.0365144 0.00218215 -0.0012206 0.00368786 3.2346e-05
2.71051e-20 -0.0365144 0.00218218 0.0141791 -0.0373051 -0.000874383
4.06576e-20 0.0364787 0.00289846 -0.000726838 0.00212689 8.51515e-06
-1.35525e-20 -0.0364787 0.00289841 0.00745514 -0.0198373 -0.000387349
-1.35525e-20 0.0366527 8.42396e-11 0 0 0
1.35525e-20 -0.0366527 8.42454e-11 0 0 0
-8.13152e-21 0.036569 0.00323497 -0.000326666 0.000953727 8.22319e-06
-8.13152e-21 -0.036569 0.00323494 0.00333648 -0.00916259 4.78453e-05
-1.35525e-20 -0.0365533 0.00341997 0 0 0
2.71051e-20 0.0365534 0.00341998 0 0 0
6.77626e-21 0.0367898 0.00059899 -0.000419362 0.00125319 1.18309e-05
4.51751e-21 -0.0367898 0.000599027 0.0103392 -0.0266393 -0.000218144
-2.71051e-20 -0.0368341 5.55828e-11 0 0 0
-2.71051e-20 0.0368341 5.55766e-11 0 0 0
-4.51751e-21 0.0368407 0.00116982 -0.0010037 0.00295877 2.21561e-05
9.03502e-21 -0.0368407 0.00116987 0.0156411 -0.0408425 -0.000672924
-2.25875e-21 0.0368347 0.0018451 -0.00127323 0.00377913 2.91405e-05
4.51751e-21 -0.0368347 0.00184514 0.0156173 -0.0409938 -0.00102371
-2.25875e-21 0.0368044 0.00255426 -0.00103955 0.00312625 2.44794e-05
6.77626e-21 -0.0368045 0.00255425 0.0111953 -0.0292625 -0.000857705
-2.71051e-20 0.0367776 0.00346083 0 0 0
0 -0.0367778 0.00346085 0 0 0
5.87276e-21 -0.0368391 0.00303501 0.00649347 -0.0173137 -0.000295823
-4.06576e-21 0.0368391 0.00303502 -0.000631868 0.00189735 1.27969e-05
-1.35525e-20 -0.0370199 4.78266e-11 0 0 0
-2.71051e-20 0.0370199 4.78194e-11 0 0 0
4.51751e-21 -0.0371489 0.000281532 0.00538059 -0.0133359 -3.6388e-07
-2.25875e-21 0.0371489 0.000281513 -8.17588e-05 0.000247353 -1.46147e-06
0 0.0371548 0.000855733 -0.000772936 0.00232475 3.59111e-05
0 -0.0371548 0.000855772 0.0148734 -0.0385996 -0.000513021
2.71051e-20 0.0371549 0.00149544 -0.00131222 0.00380463 1.99661e-05
0 -0.0371549 0.00149548 0.0170039 -0.0446607 -0.00111447
0 0.037144 0.00218136 -0.00136506 0.00409065 4.17888e-05
0 -0.0371441 0.00218137 0.0149901 -0.0390329 -0.00134742
-3.38813e-20 0.0370561 0.00351158 0 0 0
2.37169e-20 -0.0370564 0.00351163 0 0 0
1.35525e-20 -0.03727 2.98601e-11 0 0 0
0 0.0372701 2.98577e-11 0 0 0
-2.71051e-20 0.0371711 0.00278346 -0.00101399 0.00304966 2.46249e-05
0 -0.0371712 0.00278344 0.0103211 -0.0264975 -0.000847941
2.03288e-20 -0.0371161 0.00352251 0 0 0
-1.01644e-20 0.0371162 0.00352254 0 0 0
-4.51751e-21 0.0371348 0.00333234 -0.000324573 0.000946037 1.18532e-05
0 -0.0371348 0.00333228 0.00315555 -0.00847844 5.87526e-05
0 -0.0374605 2.2222e-11 0 0 0
-2.71051e-20 0.0374606 2.22185e-11 0 0 0
-4.51751e-21 -0.0374674 0.000637921 0.0117307 -0.0304436 -0.000401088
-9.03502e-21 0.0374674 0.000637907 -0.000525343 0.00158935 2.85577e-05
2.25875e-21 0.0374702 0.00116479 -0.0010685 0.00314222 3.4485e-05
4.51751e-21 -0.0374702 0.00116482 0.0160711 -0.0421319 -0.000941479
0 0.0374664 0.00184005 -0.00139644 0.00411541 3.76581e-05
-3.38813e-21 -0.0374664 0.00184006 0.0162821 -0.0425557 -0.00145303
3.38813e-21 0.0374681 0.0024973 -0.00124965 0.00375292 4.25471e-05
1.12938e-21 -0.0374682 0.00249729 0.0129913 -0.0334141 -0.00132096
-6.77626e-21 0.0374674 0.00307432 -0.000751542 0.00223221 2.495e-05
5.64689e-21 -0.0374674 0.00307432 0.00742326 -0.0190178 -0.00055512
0 0.0374247 0.00357873 0 0 0
1.35525e-20 -0.0374247 0.00357874 0 0 0
1.35525e-20 -0.0376529 1.86798e-11 0 0 0
-1.35525e-20 0.0376529 1.86765e-11 0 0 0
-9.03502e-21 -0.0377742 0.000280176 0.00558069 -0.0139071 2.23849e-05
4.51751e-21 0.0377742 0.000280173 -8.35301e-05 0.000254095 -1.84923e-06
2.71051e-20 -0.0377819 0.000851964 0.0150392 -0.0396091 -0.000690903
-2.71051e-20 0.0377819 0.000851941 -0.000804437 0.00243815 4.9723e-05
0 0.0377837 0.0014916 -0.00141193 0.0040808 3.39889e-05
2.71051e-20 -0.0377837 0.00149162 0.017553 -0.0461021 -0.00146774
0 -0.03766 0.00362143 0 0 0
0 0.0376601 0.00362145 0 0 0
0 0.0377819 0.00216984 -0.00150349 0.00450053 5.46952e-05
0 -0.0377819 0.00216984 0.0156299 -0.0405197 -0.00189043
0 0.0377772 0.00279747 -0.00116875 0.00352518 5.00206e-05
0 -0.0377773 0.00279747 0.0115166 -0.0288327 -0.00131405
-1.35525e-20 -0.0378849 1.07515e-11 0 0 0
4.06576e-20 0.0378849 1.07501e-11 0 0 0
-6.77626e-21 0.0377229 0.00353539 -0.000182834 0.000501779 4.54082e-06
0 -0.0377229 0.00353515 0.00167746 -0.00410178 -6.8085e-05
1.12938e-21 -0.0377798 0.00335648 0.00491318 -0.0121468 -0.000259286
5.64689e-21 0.0377798 0.00335651 -0.000527439 0.00147897 1.49502e-05
6.77626e-21 0.0377787 0.00364282 0 0 0
0 -0.0377788 0.00364285 0 0 0
-2.71051e-20 -0.0380777 7.23339e-12 0 0 0
0 0.0380777 7.23213e-12 0 0 0
-4.51751e-21 -0.0380891 0.000630768 0.0118073 -0.031097 -0.000521139
0 0.0380891 0.000630766 -0.000544249 0.00164754 3.14444e-05
-4.51751e-21 -0.0380959 0.00115845 0.0163968 -0.0433394 -0.00121985
0 0.0380959 0.00115844 -0.00112909 0.00333013 4.27724e-05
7.90564e-21 0.0380968 0.00183414 -0.00151392 0.00445863 5.02261e-05
9.03502e-21 -0.0380968 0.00183414 0.0168626 -0.0439891 -0.00193451
0 -0.0379953 0.00368205 0 0 0
2.71051e-20 0.0379953 0.00368205 0 0 0
0 0.0380943 0.00250914 -0.00139853 0.00418953 5.22538e-05
2.25875e-21 -0.0380943 0.00250913 0.0138013 -0.0350604 -0.00193869
0 0.0380786 0.00304222 -0.000990349 0.00296399 3.63134e-05
0 -0.0380786 0.00304218 0.00934511 -0.0231286 -0.0012964
1.35525e-20 -0.0382651 6.08614e-12 0 0 0