# UMean  POINT_DATA 26828
# x  y  z  UMean_x  UMean_y  UMean_z
0.0106418 -1.35525e-20 6.54156e-08 0 0 0
-0.0106418 1.35525e-20 6.54156e-08 0 0 0
-0.0106418 1.69407e-21 0.000314268 0 0 0
0.0106418 -5.0822e-21 0.000314344 0 0 0
-0.0106418 1.69407e-21 0.000346265 0 0 0
0.0106418 6.77626e-21 0.000346349 0 0 0
-0.0106418 1.35525e-20 0.000664313 0 0 0
0.0106418 2.71051e-20 0.000664474 0 0 0
0.0106696 -1.69407e-21 0.000329749 -3.3874e-07 1.27412e-06 -2.88663e-07
-0.0106696 0 0.000329666 0.000140603 -0.00035794 -9.53528e-06
-0.0106418 0 0.000994725 0 0 0
0.0106418 -1.86347e-20 0.000994893 0 0 0
-0.0106418 0 0.00102871 0 0 0
0.0106418 0 0.00102888 0 0 0
-0.0106651 0 0.00100861 0.000236249 -0.000621391 -5.2859e-06
0.0106651 -6.77626e-21 0.00100878 -2.99612e-05 7.73611e-05 6.25267e-07
-0.0106418 0 0.00135928 0 0 0
0.0106418 0 0.00135945 0 0 0
-0.0106418 0 0.00170832 0 0 0
0.0106418 -8.47033e-21 0.00170841 0 0 0
-0.0106418 0 0.00174301 0 0 0
0.0106418 0 0.00174309 0 0 0
-0.0106634 1.69407e-21 0.0017166 0.000209416 -0.000549901 4.90604e-06
0.0106634 -1.35525e-20 0.00171669 -3.09421e-05 7.75545e-05 -8.12769e-07
0.0106417 0 0.002087 0 0 0
-0.0106417 0 0.002087 0 0 0
0.0108523 -4.06576e-20 6.90498e-08 0 0 0
-0.0108523 -2.71051e-20 6.90496e-08 0 0 0
-0.0108538 -4.51751e-21 0.000983453 0.00205889 -0.00542633 -4.11433e-05
0.0108538 -4.51751e-21 0.000983665 -0.000261468 0.000677574 5.43565e-06
-0.0109302 1.12938e-21 0.000328472 0.00125598 -0.00323954 -6.17359e-05
0.0109302 -1.01644e-20 0.000328579 -2.8022e-05 7.99619e-05 -1.2796e-06
-0.010876 6.77626e-21 0.00165245 0.00218998 -0.00580203 5.2441e-05
0.010876 -4.51751e-21 0.0016526 -0.000322851 0.00082949 -4.62755e-06
-0.0110233 0 5.24962e-08 0 0 0
0.0110233 -6.77626e-21 5.24948e-08 0 0 0
-0.0108444 6.77626e-21 0.00218791 0 0 0
0.0108444 -1.35525e-20 0.00218792 0 0 0
-0.010932 -6.77626e-21 0.00223158 0 0 0
0.0109321 0 0.0022316 0 0 0
-0.0109511 -1.35525e-20 0.00214941 0.000693627 -0.00193221 1.73979e-05
0.0109511 -6.77626e-21 0.00214943 -0.000104237 0.000293316 2.28105e-07
-0.0111742 -1.35525e-20 4.6956e-08 0 0 0
0.0111742 0 4.69546e-08 0 0 0
-0.0111378 2.25875e-21 0.00125156 0.00392276 -0.0105197 5.59906e-05
0.0111378 9.03502e-21 0.00125179 -0.000526186 0.00145873 1.04968e-05
-0.0111894 2.25875e-21 0.000675217 0.00304473 -0.00813961 9.83205e-06
0.0111894 -1.12938e-21 0.000675418 -0.000275013 0.000765364 7.1244e-06
0.0112788 0 0.000114353 -2.78527e-06 8.18379e-06 -1.97749e-06
-0.0112788 0 0.000114331 0.000856046 -0.00235562 8.38753e-06
0.0112885 -1.35525e-20 3.37062e-08 0 0 0
-0.0112886 1.35525e-20 3.37058e-08 0 0 0
-0.0111945 -6.77626e-21 0.00167213 0.00403598 -0.0109913 8.44282e-05
0.0111945 0 0.00167231 -0.000585231 0.00165367 1.01092e-05
-0.011163 -1.12938e-21 0.00198697 0.00263665 -0.00727971 6.05243e-05
0.011163 6.77626e-21 0.00198706 -0.000398985 0.00111883 2.67691e-06
-0.011131 0 0.00233069 0 0 0
0.0111311 -2.71051e-20 0.00233071 0 0 0
0.0114369 0 0.000317029 -6.95889e-06 2.01571e-05 -3.52086e-06
-0.0114369 2.71051e-20 0.000316923 0.00232128 -0.00630332 6.29171e-06
-0.011421 0 0.000929721 0.00534021 -0.014283 8.11668e-05
0.011421 0 0.000929939 -0.000648021 0.00186265 2.12899e-05
-0.0114038 0 0.0015068 0.00571852 -0.0154881 0.000120225
0.0114039 -2.71051e-20 0.00150698 -0.000816492 0.00233149 2.09153e-05
-0.0113457 -6.77626e-21 0.00243757 0 0 0
0.0113458 -6.77626e-21 0.00243761 0 0 0
0.0116363 -1.35525e-20 1.34764e-08 0 0 0
-0.0116364 0 1.34773e-08 0 0 0
0.0116375 -1.35525e-20 9.54413e-05 -2.32501e-06 6.83145e-06 -1.65072e-06
-0.0116375 1.35525e-20 9.54289e-05 0.000714629 -0.00196648 7.00194e-06
-0.0114304 6.77626e-21 0.00247976 0 0 0
0.0114304 6.77626e-21 0.00247975 0 0 0
-0.0115075 -7.90564e-21 0.00225285 0.00278342 -0.00743847 -9.49301e-05
0.0115075 1.12938e-21 0.00225289 -0.000473317 0.00121136 -1.67687e-05
0.01173 0 3.26074e-09 0 0 0
-0.0117301 0 3.25931e-09 0 0 0
-0.0117195 -2.25875e-21 0.000610218 0.00450125 -0.0118108 4.41225e-05
0.0117195 2.25875e-21 0.000610384 -0.000408387 0.00115307 4.05253e-06
-0.0117028 6.77626e-21 0.00122422 0.00666379 -0.0177269 0.00014985
0.0117029 -4.51751e-21 0.00122442 -0.000938919 0.00265158 1.77315e-05
0.0118194 0 8.96942e-05 -7.53161e-06 2.03736e-05 9.58868e-09
-0.0118195 1.35525e-20 8.96941e-05 0.000923025 -0.00230554 6.11252e-06
0.0118199 -1.35525e-20 3.03241e-09 0 0 0
-0.01182 1.35525e-20 3.03105e-09 0 0 0
-0.0116772 -2.25875e-21 0.0018372 0.00551247 -0.014963 0.000111292
0.0116772 2.25875e-21 0.00183732 -0.000875688 0.00247587 9.78329e-06
-0.0116033 0 0.0025659 0 0 0
0.0116034 0 0.00256591 0 0 0
0.0120204 0 0.000307092 -2.43414e-05 6.54245e-05 -1.79191e-08
-0.0120205 0 0.000307025 0.00308155 -0.0077105 6.34577e-06
-0.0117486 -1.35525e-20 0.00263818 0 0 0
0.0117487 1.35525e-20 0.00263823 0 0 0
-0.0120156 -2.71051e-20 0.000916995 0.00740698 -0.0193337 8.87113e-05
0.0120156 0 0.000917127 -0.000982371 0.00274632 2.01726e-07
-0.0118319 -3.01167e-21 0.00229967 0.00388813 -0.0107898 -1.53971e-05
0.011832 -7.52918e-21 0.00229972 -0.000661462 0.00186239 -7.6591e-06
-0.0117787 0 0.00256194 0.00109245 -0.00318939 3.51135e-05
0.0117789 0 0.00256195 -0.000189917 0.00056128 4.09925e-06
-0.0119887 -2.71051e-20 0.00155402 0.00826599 -0.022018 0.000314359
0.0119887 0 0.00155414 -0.00132217 0.00370926 2.94426e-05
-0.012032 -5.42101e-20 0.00210266 0.00612985 -0.0170194 0.000111828
0.0120321 0 0.00210273 -0.00104129 0.00304332 8.10302e-07
0.0122392 1.35525e-20 1.95038e-09 0 0 0
-0.0122392 1.35525e-20 1.9503e-09 0 0 0
0.0122409 0 8.16586e-05 -6.85693e-06 1.85486e-05 8.72973e-09
-0.012241 -1.35525e-20 8.16739e-05 0.000840499 -0.0020994 5.56601e-06
-0.0119871 2.71051e-20 0.00253932 0.00259234 -0.00750263 9.81596e-06
0.0119872 0 0.00253936 -0.000437679 0.00129451 4.10576e-07
0.012321 0 1.7426e-09 0 0 0
-0.0123211 -1.35525e-20 1.74255e-09 0 0 0
-0.0120125 0 0.00276933 0 0 0
0.0120125 0 0.00276934 0 0 0
-0.0123328 -6.77626e-21 0.000603507 0.00571881 -0.0145734 2.11083e-05
0.0123328 4.51751e-21 0.000603593 -0.00056988 0.00160593 5.62579e-07
-0.0120726 -2.71051e-20 0.00270723 0.00110131 -0.00321525 3.53982e-05
0.0120726 0 0.00270723 -0.000191424 0.000565733 4.13178e-06
-0.0123288 4.51751e-21 0.00123238 0.00878207 -0.0228332 0.000104988
0.0123288 0 0.00123249 -0.00134321 0.00378825 1.12179e-05
0.0124027 -1.35525e-20 1.58622e-09 0 0 0
-0.0124028 0 1.58612e-09 0 0 0
0.012405 1.35525e-20 7.77801e-05 -1.27543e-05 3.5649e-05 2.55896e-07
-0.0124051 0 7.78041e-05 0.000915601 -0.00224975 2.20618e-06
-0.0123347 -1.12938e-21 0.00185416 0.00830212 -0.0221373 0.000131072
0.0123347 -5.64689e-21 0.00185424 -0.00145075 0.00413313 1.45885e-05
-0.0121506 -1.35525e-20 0.00283805 0 0 0
0.0121507 -1.35525e-20 0.00283809 0 0 0
-0.0123065 0 0.0024016 0.00514484 -0.014173 9.36897e-05
0.0123065 1.12938e-21 0.00240165 -0.000949685 0.00271983 5.13859e-06
-0.0122685 0 0.00289771 0 0 0
0.0122687 -2.71051e-20 0.00289778 0 0 0
-0.0123168 1.35525e-20 0.00277206 0.00179831 -0.00507302 8.34916e-05
0.012317 0 0.00277207 -0.000366933 0.00102256 2.51485e-06
0.0126427 -2.71051e-20 0.000300463 -4.62576e-05 0.000129859 4.06788e-07
-0.0126427 0 0.00030044 0.00344742 -0.0085307 -6.60389e-06
-0.0126591 0 0.000913397 0.00907695 -0.0230782 -1.37427e-06
0.0126591 2.71051e-20 0.000913462 -0.00125604 0.00356521 2.06722e-06
-0.0126619 2.71051e-20 0.00155273 0.0104207 -0.0270112 2.18134e-05
0.0126619 2.71051e-20 0.00155279 -0.00182417 0.00516598 1.39229e-05
-0.0125265 0 0.00271714 0.00376684 -0.0105236 0.000185767
0.0125266 0 0.00271717 -0.000757199 0.00208826 5.537e-06
0.012467 1.35525e-20 0.00299777 0 0 0
-0.012467 0 0.0029978 0 0 0
-0.0126644 2.71051e-20 0.00218642 0.00857867 -0.0229491 7.78508e-05
0.0126645 5.42101e-20 0.00218646 -0.00165321 0.00471617 1.52442e-05
-0.0128706 6.77626e-21 4.59712e-10 0 0 0
0.0128706 0 4.5966e-10 0 0 0
-0.0128741 -6.77626e-21 6.76228e-05 0.000795798 -0.00195538 1.91751e-06
0.0128742 0 6.7603e-05 -1.10856e-05 3.09849e-05 2.22416e-07
-0.0125737 1.35525e-20 0.00289896 0.00182989 -0.00516212 8.49579e-05
0.0125738 1.35525e-20 0.00289883 -0.00037362 0.00104119 2.56068e-06
0.0129417 0 3.22157e-10 0 0 0
-0.0129417 -1.35525e-20 3.22157e-10 0 0 0
-0.0126 0 0.00306523 0 0 0
0.0126002 2.71051e-20 0.00306527 0 0 0
-0.0129729 -1.12938e-21 0.00059327 0.00655301 -0.0164933 -5.63107e-05
0.0129729 -2.25875e-21 0.000593302 -0.000706923 0.00201647 5.17074e-06
0.0130096 6.77626e-21 3.00396e-10 0 0 0
-0.0130097 6.77626e-21 3.00386e-10 0 0 0
0.0130125 1.35525e-20 6.19132e-05 -1.4306e-05 4.25587e-05 -9.17919e-07
-0.0130126 6.77626e-21 6.19358e-05 0.000815164 -0.00196471 6.5227e-06
-0.0129929 -4.51751e-21 0.00122118 0.0103537 -0.0265089 -0.000172891
0.0129929 -3.38813e-21 0.00122122 -0.00172363 0.00488944 1.83468e-05
-0.0127134 1.35525e-20 0.00312239 0 0 0
0.0127137 1.35525e-20 0.00312249 0 0 0
-0.01275 0 0.00301608 0.00147582 -0.00426718 -2.52738e-05
0.0127503 0 0.00301608 -0.000372383 0.000995523 -1.01354e-05
-0.0129974 2.25875e-21 0.0018788 0.010199 -0.0266584 -0.000184045
0.0129974 -4.51751e-21 0.00187883 -0.0020269 0.00577676 3.26832e-05
-0.0129624 2.71051e-21 0.00258482 0.00614724 -0.0167584 -8.31268e-05
0.0129624 9.03502e-22 0.00258484 -0.00136908 0.00392512 1.12762e-05
-0.0129341 0 0.00296493 0.00315565 -0.00926121 -5.19483e-05
0.0129342 0 0.00296496 -0.00075814 0.0021044 -2.05919e-05
0.0132745 2.71051e-20 0.0002907 -6.42419e-05 0.000190319 -4.57653e-06
-0.0132746 -2.71051e-20 0.000290689 0.00372864 -0.00904576 1.91103e-05
-0.0133098 0 0.000892095 0.0101089 -0.0257029 -0.000238852
0.0133098 0 0.000892117 -0.0014938 0.00427308 2.33334e-05
-0.012963 -1.35525e-20 0.00324868 0 0 0
0.012963 6.77626e-21 0.00324866 0 0 0
-0.013014 0 0.00319464 0.000943624 -0.0027284 -1.61599e-05
0.013014 0 0.00319458 -0.000238062 0.000636433 -6.47949e-06
-0.0133312 0 0.00153426 0.0118358 -0.0303176 -0.000470109
0.0133312 0 0.00153429 -0.00233068 0.00658205 3.4434e-05
-0.0130336 -1.35525e-20 0.0032843 0 0 0
0.0130336 -1.35525e-20 0.00328432 0 0 0
-0.0133255 0 0.00221292 0.010035 -0.0265275 -0.000372215
0.0133255 2.71051e-20 0.00221294 -0.00231341 0.00668175 6.77643e-05
-0.0130971 -1.35525e-20 0.00331613 0 0 0
0.0130973 0 0.00331619 0 0 0
-0.0131128 -1.35525e-20 0.00327471 0.000542096 -0.00165911 2.77389e-05
0.013113 -1.35525e-20 0.00327473 -0.000146923 0.000440831 2.50822e-06
-0.0135215 6.77626e-21 4.3748e-11 0 0 0
0.0135215 0 4.37385e-11 0 0 0
-0.013525 6.77626e-21 4.46932e-05 0.000588228 -0.00141775 4.70683e-06
0.013525 0 4.46658e-05 -1.03207e-05 3.07031e-05 -6.62213e-07
-0.0132202 -7.52918e-22 0.00300115 0.00392847 -0.0112897 -9.2084e-05
0.0132202 1.50584e-21 0.00300118 -0.000986632 0.00288403 -1.11068e-05
0.0135708 0 2.74197e-11 0 0 0
-0.0135708 0 2.74177e-11 0 0 0
0.0136155 0 2.60842e-11 0 0 0
-0.0136156 0 2.60813e-11 0 0 0
0.0136174 0 3.86608e-05 -1.46262e-05 3.23344e-05 -4.4397e-07
-0.0136174 -6.77626e-21 3.8686e-05 0.0005564 -0.00132447 1.12769e-05
0.0136131 0 0.000567022 -0.000824238 0.00233821 2.31481e-05
-0.0136131 2.25875e-21 0.000567013 0.00699265 -0.0175843 -0.000206736
-0.0133844 0 0.00278358 0.00631734 -0.0174028 -0.000277615
0.0133844 2.71051e-20 0.0027836 -0.00160272 0.00473489 -3.94007e-06
-0.0136536 -1.12938e-21 0.00118311 0.0112315 -0.0287869 -0.000691458
0.0136536 1.69407e-21 0.00118312 -0.00207317 0.00586736 4.44257e-05
-0.013358 -5.42101e-20 0.00322889 0.0024078 -0.00744779 4.99524e-05
0.0133581 0 0.00322892 -0.000629822 0.00189338 -9.61925e-06
-0.0136672 2.25875e-21 0.00185452 0.0113682 -0.0294085 -0.00103518
0.0136672 0 0.00185453 -0.00263336 0.00750607 5.11853e-05
-0.0134205 0 0.00347805 0 0 0
0.0134205 0 0.00347806 0 0 0
-0.0134524 1.35525e-20 0.00343732 0.000623665 -0.00190875 3.19127e-05
0.0134524 0 0.0034373 -0.000168987 0.00050703 2.88487e-06
0.0139 5.42101e-20 0.000270261 -9.84913e-05 0.000208951 -3.09206e-06
-0.0139 -2.71051e-20 0.000270258 0.0038201 -0.00903598 7.00218e-05
-0.0136757 -1.69407e-21 0.00251333 0.00889865 -0.0231599 -0.00100308
0.0136758 5.64689e-22 0.00251333 -0.00235016 0.00680048 3.62578e-05
-0.0134923 0 0.00351398 0 0 0
0.0134924 0 0.00351402 0 0 0
0.0139532 0 0.000842552 -0.00167966 0.00479342 7.78602e-05
-0.0139533 2.71051e-20 0.000842543 0.0104919 -0.0270145 -0.00068687
-0.0136464 3.38813e-21 0.00307167 0.00503994 -0.0134408 -0.000421256
0.0136464 -1.69407e-21 0.00307169 -0.00140681 0.00407134 4.90538e-06
-0.0135604 6.77626e-21 0.00354803 0 0 0
0.0135605 0 0.00354808 0 0 0
-0.013594 -2.71051e-20 0.00346729 0.00110017 -0.00290867 -3.71026e-05
0.0135942 0 0.00346729 -0.000334336 0.000945795 4.15562e-06
-0.0139955 5.42101e-20 0.00147861 0.0125234 -0.0321891 -0.0013623
0.0139955 0 0.00147861 -0.00280001 0.00785312 4.18954e-05
-0.0139995 0 0.00216677 0.0110867 -0.0286272 -0.00191915
0.0139995 0 0.00216677 -0.00308427 0.00889085 6.08363e-05
0.0141777 0 1.47672e-12 0 0 0
-0.0141778 0 1.47736e-12 0 0 0
0.0141788 0 1.24877e-05 -4.72437e-06 1.04442e-05 -1.43405e-07
-0.0141788 0 1.25188e-05 0.000180051 -0.0004286 3.64922e-06
0.0141923 -1.69407e-21 1.02421e-12 0 0 0
-0.0141924 -1.69407e-21 1.02371e-12 0 0 0
0.0142041 1.69407e-21 9.46673e-06 -2.77017e-06 4.2899e-06 -2.01912e-06
-0.0142042 1.69407e-21 9.49024e-06 0.000122875 -0.000356545 1.50841e-06
0.0142051 1.69407e-21 1.00933e-12 0 0 0
-0.0142052 1.69407e-21 1.0088e-12 0 0 0
0.0142399 6.21157e-22 0.000511 -0.000855775 0.00240689 6.83704e-05
-0.01424 -2.25875e-22 0.000510993 0.00649493 -0.0171216 -0.000421388
-0.0138496 -2.71051e-20 0.00338143 0.00351594 -0.0093748 -3.56742e-05
0.0138496 -2.71051e-20 0.00338145 -0.00106055 0.00296043 1.04403e-05
-0.0139916 -2.71051e-20 0.00283636 0.00846752 -0.0208181 -0.00153889
0.0139916 0 0.00283638 -0.00249356 0.00715838 2.54604e-05
0.0138218 0 0.0036788 0 0 0
-0.0138218 0 0.0036788 0 0 0
0.0143091 2.82344e-22 0.00109617 -0.00229329 0.00655712 0.000103318
-0.0143102 0 0.00109467 0.0110519 -0.0294984 -0.00142905
0.0143533 0 7.65942e-13 0 0 0
-0.0138932 1.35525e-20 0.003605 0.00123525 -0.00326581 -4.16581e-05
0.0138932 2.71051e-20 0.00360498 -0.00037528 0.00106162 4.66452e-06
-0.0143537 1.69407e-21 7.6493e-13 0 0 0
-0.0139058 1.35525e-20 0.00372075 0 0 0
0.0139058 0 0.00372076 0 0 0
-0.0143406 1.69407e-21 0.0017773 0.0119022 -0.031363 -0.0024698
0.0143406 -8.47033e-22 0.0017773 -0.00321365 0.00920809 6.06862e-05
0.014476 0 0.000224596 -5.19713e-05 8.12268e-05 -4.73337e-05
-0.014476 0 0.000224595 0.00295512 -0.00824468 1.06518e-05
-0.0139821 0 0.00376078 0 0 0
0.0139821 0 0.0037608 0 0 0
-0.0140113 1.35525e-20 0.00368378 0.00118929 -0.00279544 -0.000300636
0.0140114 0 0.00368378 -0.000377101 0.00103784 -1.8454e-06
-0.0143224 0 0.0024986 0.010381 -0.0258832 -0.0028763
0.0143224 5.64689e-22 0.0024986 -0.00322203 0.0092606 7.46349e-05
0.0145821 -5.42101e-20 0.000746673 -0.00168547 0.00480087 0.000249884
-0.0145821 0 0.000746674 0.00925682 -0.0253695 -0.00109486
-0.014272 9.03502e-22 0.00323782 0.00636555 -0.0149766 -0.00181773
0.014272 1.12938e-21 0.00323783 -0.0019914 0.00573629 2.66243e-05
-0.0142274 0 0.00361851 0.00334834 -0.00817693 -0.000805031
0.0142274 2.71051e-20 0.00361852 -0.00103498 0.00295513 -1.94305e-05
0.0146963 3.76459e-22 0.000425142 -0.000768405 0.00223129 8.75505e-05
-0.0146963 -7.52918e-22 0.000425143 0.00523649 -0.0152449 -0.000576536
0.0146847 -2.71051e-20 0.00134649 -0.00306867 0.00893894 3.6112e-05
-0.0146847 -5.42101e-20 0.00134648 0.0121775 -0.0338384 -0.00256173
0.0147679 6.77626e-21 2.54299e-05 -4.37969e-06 6.94797e-06 -5.29707e-06
-0.014768 6.77626e-21 2.54068e-05 0.000339452 -0.000911522 -1.53435e-06
0.0147705 0 9.11081e-14 0 0 0
-0.0147705 -6.77626e-21 9.09544e-14 0 0 0
0.0148059 -6.77626e-21 6.68338e-15 0 0 0
-0.0148059 0 6.6647e-15 0 0 0
0.014659 5.42101e-20 0.00210817 -0.00387266 0.0110869 9.87826e-05
-0.014659 -2.71051e-20 0.00210817 0.0117886 -0.0308372 -0.00399502
0.0142867 0 0.00391566 0 0 0
-0.0142867 0 0.00391568 0 0 0
0.0143137 6.77626e-21 0.00388599 -0.000178041 0.000489992 -8.71269e-07
-0.0143137 6.77626e-21 0.00388604 0.000560961 -0.00131854 -0.000141803
-0.0148347 6.77626e-21 4.55241e-05 0.000518065 -0.00175914 -9.7993e-05
0.0148347 -6.77626e-21 4.55572e-05 -8.4027e-05 0.00025968 5.3119e-06
-0.0148462 6.77626e-21 5.73722e-15 0 0 0
0.0148462 0 5.75032e-15 0 0 0
0.0143218 6.77626e-21 0.00393378 0 0 0
-0.0143218 -6.77626e-21 0.00393377 0 0 0
-0.014352 6.77626e-21 0.00395515 0 0 0
0.014352 0 0.00395518 0 0 0
-0.0143641 0 0.00393216 0.00038197 -0.000826567 -0.000103166
0.0143642 0 0.00393215 -0.000115708 0.000338872 3.48199e-06
-0.0146351 2.71051e-20 0.00283847 0.0102656 -0.0235841 -0.00410069
0.0146351 -2.71051e-20 0.00283847 -0.00347439 0.0100087 0.000114126
0.0144996 0 0.0036695 -0.00138694 0.00405202 -1.01677e-05
-0.0144996 0 0.0036695 0.00452215 -0.0100295 -0.00154722
0.0145103 0 0.00366655 -0.00139732 0.00408665 -9.33592e-06
-0.0145087 -8.47033e-22 0.0036755 0.00455967 -0.0100864 -0.00157203
0.0150122 -2.71051e-20 0.00033015 -0.000614072 0.00193874 6.73721e-05
-0.0150123 0 0.000330154 0.00369898 -0.0126387 -0.000676942
-0.0145871 -8.47033e-22 0.00370013 0.00489273 -0.0104315 -0.00186739
0.0145874 8.47033e-22 0.00370026 -0.00146907 0.00429836 -4.23799e-06
-0.0146767 -2.71051e-20 0.00345539 0.00735656 -0.0155528 -0.00302338
0.0146767 0 0.00345539 -0.0022742 0.00670758 1.77854e-05
-0.0150078 4.51751e-22 0.00170826 0.0116798 -0.0329905 -0.00395096
0.0150078 1.12938e-22 0.00170826 -0.00368665 0.010622 4.64818e-05
0.0150925 -1.807e-21 0.000854675 -0.00198224 0.00574706 5.74831e-05
-0.0150925 -1.807e-21 0.000854681 0.00799977 -0.0250774 -0.00191109
0.0146273 2.71051e-20 0.00391102 -0.000897251 0.0026286 -2.82844e-05
-0.0146273 -2.71051e-20 0.00391104 0.00300157 -0.0065942 -0.000892717
-0.0149891 -4.51751e-22 0.00242101 0.0114153 -0.0286838 -0.0051224
0.0149891 -7.90564e-22 0.00242101 -0.00398027 0.0114395 9.84538e-05
-0.0149587 -2.82344e-22 0.00315968 0.0102427 -0.0218847 -0.00520763
0.0149587 -1.69407e-21 0.00315968 -0.00335483 0.00969519 9.16572e-05
0.0147021 6.77626e-21 0.00420296 0 0 0
-0.0147022 0 0.00420304 0 0 0
0.0152975 6.77626e-21 8.17497e-05 -0.000150781 0.00046598 9.53188e-06
-0.0152975 0 8.17234e-05 0.000930014 -0.00315796 -0.000175914
0.0147325 0 0.00417583 -0.00017788 0.000520954 5.35293e-06
-0.0147325 0 0.00417593 0.000587638 -0.00127162 -0.000158715
0.015314 0 2.17543e-15 0 0 0
-0.015314 6.77626e-21 2.16401e-15 0 0 0
0.0147476 0 0.00423512 0 0 0
-0.0147477 -1.35525e-20 0.00423519 0 0 0
0.0147781 -6.77626e-21 0.0042567 0 0 0
-0.0147782 0 0.00425676 0 0 0
0.0147931 0 0.00422599 -0.000156289 0.000462498 -5.46809e-06
-0.0147932 6.77626e-21 0.00422607 0.000655537 -0.0011265 -0.000369927
-0.0153882 0 1.37339e-16 0 0 0
0.0153882 0 1.36947e-16 0 0 0
-0.0154218 0 0.000114883 0.00116977 -0.00493734 -0.000433819
0.0154219 0 0.000114923 -0.000306205 0.000861316 -1.26145e-05
0.0149639 1.50584e-21 0.00384032 -0.00178665 0.00522836 2.52685e-05
-0.0149639 9.41148e-22 0.00384035 0.00640365 -0.0118516 -0.00327286
-0.0154554 -6.77626e-21 2.28913e-16 0 0 0
0.0154555 0 2.27201e-16 0 0 0
0.0148469 -6.77626e-21 0.00430538 0 0 0
-0.014847 0 0.00430541 0 0 0
0.0154606 0 0.00140662 -0.00369147 0.0106394 -3.35647e-05
-0.0154606 0 0.00140663 0.0108715 -0.035463 -0.0040998
-0.0152778 2.71051e-20 0.00281389 0.0122867 -0.0279017 -0.00750669
0.0152778 -2.71051e-20 0.00281389 -0.00445633 0.0128237 0.000121257
0.0154333 0 0.00193357 -0.004458 0.0128278 6.41572e-05
-0.0154334 -2.71051e-20 0.00193357 0.0116093 -0.0343751 -0.00578691
0.0156222 0 0.000480035 -0.00131453 0.00375404 -3.80661e-05
-0.0156222 2.71051e-20 0.000480033 0.00470428 -0.0211242 -0.00175687
0.0152556 -2.71051e-20 0.00350081 -0.00350832 0.0100778 0.000133463
-0.0152556 2.71051e-20 0.00350083 0.011892 -0.0215754 -0.00690426
0.0150547 -6.77626e-21 0.00445243 0 0 0
-0.0150548 1.35525e-20 0.00445248 0 0 0
-0.0157277 -6.77626e-21 1.66304e-16 0 0 0
0.0157278 6.77626e-21 1.64963e-16 0 0 0
0.0151605 -2.82344e-22 0.00422314 -0.00109977 0.00339259 -3.89775e-06
-0.0151606 5.64689e-22 0.00422318 0.00463141 -0.00812901 -0.00241093
0.0156637 2.71051e-20 0.00166709 -0.00425997 0.0122374 1.55771e-05
-0.0156638 -1.35525e-20 0.00166709 0.0109475 -0.0358357 -0.00532994
0.0156161 1.46819e-21 0.00242548 -0.00481366 0.0138665 0.000119851
-0.0156161 1.58113e-21 0.00242548 0.0123614 -0.0326995 -0.00755896
0.0157781 -5.64689e-22 0.000921688 -0.00251684 0.00718363 -5.67946e-05
-0.0157781 -2.63521e-21 0.000921689 0.00707193 -0.0276824 -0.00306307
0.0155829 0 0.00315322 -0.00450366 0.0130125 0.000158961
-0.0155829 1.12938e-21 0.00315322 0.0133882 -0.0279923 -0.008679
0.0152442 6.77626e-21 0.00458652 0 0 0
-0.0152443 -1.35525e-20 0.00458661 0 0 0
0.0159534 0 3.82779e-05 -0.00011191 0.000330553 -1.15968e-07
-0.0159534 6.77626e-21 3.82942e-05 0.000338622 -0.00178377 -0.000129006
0.015843 2.71051e-20 0.00192286 -0.00482804 0.0139234 8.54754e-05
-0.015843 -2.71051e-20 0.00192287 0.0114381 -0.0369913 -0.00650238
0.0159594 6.77626e-21 2.87967e-17 0 0 0
-0.0159594 0 2.85098e-17 0 0 0
0.0159064 0 0.00142306 -0.0040714 0.0116125 -4.29051e-05
-0.0159064 0 0.00142306 0.00979564 -0.0367506 -0.00488456
0.0155142 0 0.0038846 -0.00295502 0.00857766 0.000102517
-0.0155143 -1.12938e-21 0.00388461 0.0112207 -0.0186816 -0.00696583
0.0153266 0 0.00464484 0 0 0
-0.0153267 0 0.00464492 0 0 0
0.01535 1.35525e-20 0.00461636 -0.000192408 0.000551888 -1.81397e-05
-0.0153501 0 0.00461645 0.000980443 -0.00131281 -0.000592535
0.0153665 0 0.00467311 0 0 0
-0.0153666 0 0.00467318 0 0 0
0.0160927 2.71051e-20 0.000505095 -0.00154872 0.00438992 -8.80601e-05
-0.0160927 -2.71051e-20 0.000505084 0.00427046 -0.0228931 -0.00222929
0.0154309 0 0.00471865 0 0 0
-0.015431 0 0.00471871 0 0 0
-0.0161373 1.35525e-20 9.1179e-18 0 0 0
0.0161375 0 9.37167e-18 0 0 0
0.0154621 1.35525e-20 0.00464665 -0.000395194 0.00117316 2.40696e-05
-0.0154622 1.35525e-20 0.00464672 0.00240675 -0.00267293 -0.00148728
0.0155559 7.05861e-23 0.004333 -0.00180668 0.00527462 3.59295e-05
-0.0155559 -1.41172e-22 0.00433301 0.00841299 -0.0119203 -0.0051962
0.015933 2.71051e-20 0.00276856 -0.00540601 0.0156156 0.000176301
-0.015933 -5.42101e-20 0.00276856 0.0135781 -0.0339181 -0.00976589
0.015876 2.71051e-20 0.003495 -0.00467412 0.013616 0.000204452
-0.0158761 -2.71051e-20 0.003495 0.0157156 -0.0287801 -0.0105247
0.0163022 1.41172e-22 0.00169287 -0.00470163 0.0134841 3.40881e-05
-0.0163022 -2.82344e-22 0.00169287 0.0100671 -0.0382946 -0.00549049
0.0158806 2.71051e-20 0.00413138 -0.00336713 0.00970681 0.000141454
-0.0158806 0 0.00413139 0.0148638 -0.0213208 -0.00955973
0.0157465 0 0.00463069 -0.00129625 0.00381343 5.33936e-05
-0.0157465 -2.71051e-20 0.00463071 0.0076217 -0.00858793 -0.00467617
-0.0156845 0 0.00489813 0 0 0
0.0156845 -1.35525e-20 0.00489813 0 0 0
-0.0164402 0 0.000192225 0.00159895 -0.00862752 -0.000919332
0.0164404 2.71051e-20 0.000191942 -0.000598195 0.00167199 -4.50735e-05
-0.0164598 0 2.18491e-18 0 0 0
0.01646 1.35525e-20 2.26278e-18 0 0 0
0.0163055 3.38813e-21 0.0022924 -0.00545939 0.0157168 0.000142291
-0.0163055 -3.38813e-21 0.0022924 0.0122967 -0.0374884 -0.00803342
-0.0157621 0 0.00483924 0.00291141 -0.0032334 -0.00179914
0.0157621 0 0.00483928 -0.000477746 0.00141823 2.90975e-05
0.0164587 6.77626e-21 0.00103728 -0.00304253 0.00873746 -2.73493e-05
-0.0164587 -6.77626e-21 0.00103727 0.00655234 -0.0312859 -0.00326799
0.0162201 1.12938e-22 0.00310508 -0.00555366 0.0160509 0.000210627
-0.0162201 4.51751e-22 0.00310507 0.0151057 -0.034573 -0.0102004
-0.0157673 -1.35525e-20 0.00495672 0 0 0
0.0157673 0 0.0049567 0 0 0
-0.0165551 -1.35525e-20 1.82789e-18 0 0 0
0.0165551 1.35525e-20 1.92031e-18 0 0 0
0.0158425 0 0.00500992 0 0 0
-0.0158425 0 0.00500996 0 0 0
0.0158774 -1.35525e-20 0.00492682 -0.000508924 0.00146496 1.34124e-05
-0.0158774 0 0.00492681 0.00361926 -0.00396323 -0.00239364
0.0161859 -1.69407e-21 0.00381857 -0.00467364 0.013557 0.000225119
-0.0161859 -5.64689e-22 0.00381858 0.0172069 -0.0288547 -0.0109159
0.0166927 1.35525e-20 0.00010156 -0.000332787 0.000945243 -8.64158e-06
-0.016693 0 0.000101746 0.000692301 -0.00491373 -0.000218176
0.0166939 -1.35525e-20 -1.9608e-18 0 0 0
-0.0166942 -1.35525e-20 -2.00258e-18 0 0 0
0.0161388 0 0.00451634 -0.0026677 0.00781342 0.000120787
-0.0161388 -2.25875e-21 0.00451636 0.0137971 -0.0178021 -0.00861164
-0.0165511 0 0.00276281 0.0138177 -0.0390472 -0.00951618
0.0165511 -5.42101e-20 0.00276281 -0.0061881 0.0177631 0.000199699
0.0160804 0 0.00488846 -0.00130791 0.00385566 9.36302e-06
-0.0160804 0 0.00488847 0.00943935 -0.0102153 -0.0064045
-0.0165195 -2.71051e-20 0.00345967 0.0178936 -0.0357364 -0.011462
0.0165195 2.71051e-20 0.00345967 -0.005939 0.0172029 0.000276041
-0.0160928 6.77626e-21 0.00518707 0 0 0
0.0160929 6.77626e-21 0.00518708 0 0 0
-0.0161329 -6.77626e-21 0.00514907 0.00222546 -0.00243697 -0.00147183
0.0161329 6.77626e-21 0.0051491 -0.000312882 0.000900641 8.24581e-06
0.0161377 6.77626e-21 0.0052188 0 0 0
-0.0161377 6.77626e-21 0.00521882 0 0 0
0.0164853 2.71051e-20 0.00415086 -0.00481249 0.0139871 0.000283327
-0.0164853 0 0.00415087 0.0204405 -0.0301286 -0.012184
0.0161812 6.77626e-21 0.00524954 0 0 0
-0.0161812 0 0.00524959 0 0 0
0.0162 0 0.00521528 -0.000217529 0.000664066 1.15931e-05
-0.0162 6.77626e-21 0.0052153 0.00187883 -0.00166012 -0.00113073
0.0169483 0 0.00175217 -0.00523052 0.0150365 8.02474e-05
-0.0169483 0 0.00175218 0.00898617 -0.0414138 -0.00499869
0.0168947 -1.41172e-22 0.00247213 -0.00626184 0.017907 0.00022944
-0.0168959 2.82344e-22 0.00247499 0.0126298 -0.0406594 -0.00748022
0.0170685 -1.0842e-19 0.00054239 -0.00170994 0.00509612 -1.59193e-05
-0.0170686 1.0842e-19 0.000542388 0.00308505 -0.0261661 -0.00094615
0.0163681 4.23516e-22 0.00495113 -0.00190475 0.00569912 5.87534e-05
-0.0163681 7.05861e-22 0.00495117 0.0130617 -0.0140823 -0.00815235
0.0168537 2.82344e-22 0.00309993 -0.00652238 0.0186853 0.000313332
-0.0168537 -5.64689e-22 0.00309993 0.0156591 -0.0391241 -0.00910015
0.0165271 -2.71051e-20 0.00473652 -0.00308206 0.00923461 0.000155528
-0.0165271 2.71051e-20 0.00473653 0.0184766 -0.0218815 -0.0113172
0.0168198 1.69407e-21 0.00379491 -0.00603694 0.01742 0.000356907
-0.0168198 -5.64689e-22 0.00379491 0.0195603 -0.0355245 -0.0106395
0.0164532 0 0.00518912 -0.00119447 0.00358059 -1.58861e-05
-0.0164532 0 0.00518915 0.0103236 -0.00914782 -0.00653504
0.0164986 1.35525e-20 0.00547422 0 0 0
-0.0164987 -1.35525e-20 0.00547423 0 0 0
0.0168074 5.64689e-22 0.00445444 -0.00468718 0.0137296 0.000317977
-0.0168075 -1.69407e-21 0.00445445 0.0213018 -0.029567 -0.011334
0.0165401 0 0.00543898 -0.000295219 0.000901234 1.57335e-05
-0.0165402 0 0.00543895 0.00255063 -0.00225373 -0.00153504
0.0171982 -2.71051e-20 0.00274291 -0.00689544 0.0196067 0.000332317
-0.0171982 0 0.00274291 0.0132341 -0.0419202 -0.00681956
0.0165561 0 0.00551492 0 0 0
-0.0165563 0 0.00551497 0 0 0
0.0171475 -2.71051e-20 0.00343444 -0.00704462 0.0201101 0.000442782
-0.0171475 -2.71051e-20 0.00343445 0.0176702 -0.0397269 -0.00863121
0.0165953 0 0.0055426 0 0 0
-0.0165954 0 0.00554269 0 0 0
0.0166161 0 0.00550297 -0.000254223 0.000818341 2.02251e-06
-0.0166163 0 0.00550301 0.00273198 -0.00250779 -0.00164601
-0.0168033 3.13716e-22 0.0051158 0.0166198 -0.0182409 -0.00912068
0.0168033 -3.13716e-22 0.00511579 -0.00248821 0.00752835 0.000157094
0.0166836 -6.77626e-21 0.00560513 0 0 0
-0.0166839 6.77626e-21 0.00560526 0 0 0
0.0171381 0 0.00410855 -0.00633764 0.018334 0.000425421
-0.0171381 -5.42101e-20 0.00410855 0.0221768 -0.0364341 -0.0102664
0.0176356 0 5.15824e-05 -0.000169022 0.000480088 -4.38904e-06
-0.0176356 6.77626e-21 5.15782e-05 0.000350949 -0.00249093 -0.000110601
0.0176365 0 -8.77031e-19 0 0 0
-0.0176365 0 -8.88931e-19 0 0 0
0.0176257 1.12938e-21 0.00114318 -0.00368047 0.0105501 5.65763e-05
-0.0176257 -1.12938e-21 0.00114318 0.00517913 -0.034577 -0.00191816
0.017701 0 -1.21685e-20 0 0 0
-0.017701 -6.77626e-21 -1.22039e-20 0 0 0
-0.0177564 0 5.70417e-05 0.000141823 -0.00272739 -3.53578e-06
0.0177564 0 5.70455e-05 -0.000191727 0.000565611 -3.77438e-06
-0.0174948 -7.05861e-22 0.00304301 0.01472 -0.0409821 -0.0059942
0.0174948 3.5293e-22 0.00304301 -0.00717835 0.0203142 0.000423846
0.0171005 -2.71051e-20 0.0047873 -0.00475158 0.0140288 0.000429229
-0.0171005 0 0.00478732 0.0244401 -0.0309027 -0.0114725
-0.01776 6.77626e-21 -1.01849e-20 0 0 0
0.01776 6.77626e-21 -1.01509e-20 0 0 0
-0.0176226 0 0.00231708 0.0112647 -0.0419789 -0.00420044
0.0176226 -2.82344e-22 0.00231708 -0.00658731 0.0185924 0.00030523
0.0168649 6.77626e-21 0.00573339 0 0 0
-0.0168651 -2.03288e-20 0.00573345 0 0 0
0.0169917 0 0.00554745 -0.00134293 0.00439977 8.31209e-05
-0.0169917 0 0.00554751 0.013204 -0.0125292 -0.00713008
0.0175403 0 0.00368249 -0.00722082 0.0206207 0.000545085
-0.0175404 0 0.0036825 0.0192271 -0.0385627 -0.00678506
0.0174309 -1.69407e-21 0.00445118 -0.00628003 0.0183141 0.000571092
-0.0174309 0 0.00445119 0.0232235 -0.035325 -0.00832557
0.0170276 1.35525e-20 0.00584853 0 0 0
-0.0170277 1.35525e-20 0.00584855 0 0 0
0.0173593 -5.64689e-21 0.00515918 -0.00401477 0.0121258 0.000430021
-0.0173594 1.12938e-21 0.00515919 0.022387 -0.0271608 -0.00896646
0.0171314 0 0.00592202 0 0 0
-0.0171315 0 0.00592208 0 0 0
0.0171627 1.35525e-20 0.00588617 -0.000321237 0.000986418 -1.91942e-05
-0.0171628 0 0.00588621 0.0036503 -0.00316999 -0.00218532
0.017182 0 0.0059579 0 0 0
-0.0171821 1.35525e-20 0.00595797 0 0 0
0.017769 0 0.00410416 -0.00766166 0.0220134 0.000718626
-0.017769 -2.71051e-20 0.00410417 0.0208871 -0.0379886 -0.00480079
0.0182634 5.42101e-20 0.000578938 -0.0019568 0.00578046 -3.2733e-05
-0.0182635 0 0.000578947 0.00135577 -0.0275898 0.000134308
0.0173971 2.82344e-22 0.00561051 -0.00241416 0.00753331 0.000268371
-0.0173983 0 0.00561204 0.0191916 -0.0199551 -0.00869583
0.0172647 0 0.00601703 0 0 0
-0.0172648 1.35525e-20 0.00601711 0 0 0
0.0173075 0 0.00592612 -0.000664593 0.00214082 9.63603e-05
-0.0173076 0 0.00592617 0.00695906 -0.00651571 -0.00337776
0.0182204 -1.0842e-19 0.00175681 -0.00594494 0.0166147 0.000196442
-0.0182204 -1.0842e-19 0.0017568 0.00753775 -0.0436163 -0.00202457
0.0177285 -2.71051e-20 0.00478171 -0.00637563 0.0188879 0.000710155