# Moment      
# CofR        : (0.000000e+00 0.000000e+00 0.000000e+00)
#
# Time        	(total_x total_y total_z)	(pressure_x pressure_y pressure_z)	(viscous_x viscous_y viscous_z)
0.000600024   	(4.910603e-01 -1.509916e+00 -4.570627e-02)	(4.910603e-01 -1.509916e+00 -4.570627e-02)	(1.051583e-10 3.074072e-10 -1.246013e-10)
0.00132009    	(4.912420e-01 -1.509924e+00 -4.582428e-02)	(4.912419e-01 -1.509924e+00 -4.582472e-02)	(9.962767e-08 -3.329378e-10 4.473949e-07)
0.00216091    	(4.913041e-01 -1.509941e+00 -4.596059e-02)	(4.913039e-01 -1.509941e+00 -4.596110e-02)	(2.199153e-07 -4.289956e-09 5.099961e-07)
0.00270081    	(4.955288e-01 -1.510258e+00 -4.888621e-02)	(4.955310e-01 -1.510258e+00 -4.887996e-02)	(-2.161345e-06 2.622577e-08 -6.249725e-06)
0.00280174    	(6.044639e-01 -1.518451e+00 -1.248941e-01)	(6.044696e-01 -1.518451e+00 -1.248717e-01)	(-5.751315e-06 1.612871e-08 -2.237380e-05)
0.00282805    	(2.559233e+00 -1.669654e+00 -1.496217e+00)	(2.559288e+00 -1.669654e+00 -1.496062e+00)	(-5.492394e-05 6.447924e-07 -1.546511e-04)
0.00283485    	(2.439047e+01 -3.361687e+00 -1.721310e+01)	(2.439061e+01 -3.361688e+00 -1.721258e+01)	(-1.477481e-04 1.113319e-06 -5.249899e-04)
0.00283643    	(5.254501e+02 -4.146840e+01 -3.624948e+02)	(5.254509e+02 -4.146841e+01 -3.624921e+02)	(-7.984988e-04 6.761438e-06 -2.685061e-03)
0.00283688    	(5.697782e+03 -4.487618e+02 -4.145353e+03)	(5.697784e+03 -4.487618e+02 -4.145345e+03)	(-1.820721e-03 6.465615e-06 -7.651378e-03)
0.00283697    	(1.425834e+05 -1.087136e+04 -9.856425e+04)	(1.425834e+05 -1.087136e+04 -9.856421e+04)	(-1.296697e-02 1.106991e-04 -4.330553e-02)
0.002837      	(1.521245e+06 -1.169046e+05 -1.088056e+06)	(1.521245e+06 -1.169046e+05 -1.088056e+06)	(-3.545850e-02 2.574095e-04 -1.322756e-01)
0.00283701    	(3.644077e+07 -2.756948e+06 -2.503563e+07)	(3.644077e+07 -2.756948e+06 -2.503563e+07)	(-1.941868e-01 1.230402e-03 -7.282872e-01)
0.00283701    	(4.001972e+08 -3.069750e+07 -2.859230e+08)	(4.001972e+08 -3.069750e+07 -2.859230e+08)	(-6.047101e-01 4.915030e-03 -2.215812e+00)
0.00283701    	(9.382660e+09 -7.101715e+08 -6.455645e+09)	(9.382660e+09 -7.101715e+08 -6.455645e+09)	(-3.273836e+00 2.280665e-02 -1.207692e+01)
0.00283701    	(1.067247e+11 -8.168766e+09 -7.609092e+10)	(1.067247e+11 -8.168766e+09 -7.609092e+10)	(-9.902665e+00 8.238267e-02 -3.627413e+01)
0.00283701    	(2.486758e+12 -1.884598e+11 -1.713269e+12)	(2.486758e+12 -1.884598e+11 -1.713269e+12)	(-5.366857e+01 3.699451e-01 -1.985557e+02)
0.00283701    	(2.898155e+13 -2.216709e+12 -2.063243e+13)	(2.898155e+13 -2.216709e+12 -2.063243e+13)	(-1.635396e+02 1.415535e+00 -5.901100e+02)
0.00283701    	(6.575796e+14 -4.974612e+13 -4.527378e+14)	(6.575796e+14 -4.974612e+13 -4.527378e+14)	(-8.959207e+02 6.689509e+00 -3.247460e+03)
0.00283701    	(7.902241e+15 -6.024933e+14 -5.608777e+15)	(7.902241e+15 -6.024933e+14 -5.608777e+15)	(-2.726423e+03 2.436761e+01 -9.760305e+03)
0.00283701    	(1.744376e+17 -1.317946e+16 -1.200010e+17)	(1.744376e+17 -1.317946e+16 -1.200010e+17)	(-1.487844e+04 1.129971e+02 -5.388906e+04)
0.00283701    	(2.127464e+18 -1.623435e+17 -1.509475e+18)	(2.127464e+18 -1.623435e+17 -1.509475e+18)	(-4.519937e+04 4.210122e+02 -1.584181e+05)
0.00283701    	(4.566507e+19 -3.453282e+18 -3.144708e+19)	(4.566507e+19 -3.453282e+18 -3.144708e+19)	(-2.471904e+05 1.975040e+03 -8.795869e+05)
0.00283701    	(5.706559e+20 -4.358143e+19 -4.049518e+20)	(5.706559e+20 -4.358143e+19 -4.049518e+20)	(-7.261971e+05 6.516073e+03 -2.578496e+06)
0.00283701    	(1.204290e+22 -9.107236e+20 -8.294884e+21)	(1.204290e+22 -9.107236e+20 -8.294884e+21)	(-4.056125e+06 3.321571e+04 -1.429171e+07)
0.00283701    	(1.518300e+23 -1.160222e+22 -1.077642e+23)	(1.518300e+23 -1.160222e+22 -1.077642e+23)	(-1.177859e+07 1.052946e+05 -4.180332e+07)
0.00283701    	(3.174232e+24 -2.400596e+23 -2.186876e+24)	(3.174232e+24 -2.400596e+23 -2.186876e+24)	(-6.607637e+07 5.428939e+05 -2.324934e+08)
0.00283701    	(4.037106e+25 -3.084688e+24 -2.864569e+25)	(4.037106e+25 -3.084688e+24 -2.864569e+25)	(-1.906449e+08 1.688986e+06 -6.785063e+08)
0.00283701    	(8.376141e+26 -6.334876e+25 -5.771762e+26)	(8.376141e+26 -6.334876e+25 -5.771762e+26)	(-1.080185e+09 8.959310e+06 -3.788315e+09)
0.00283701    	(1.072101e+28 -8.189632e+26 -7.604466e+27)	(1.072101e+28 -8.189632e+26 -7.604466e+27)	(-3.092432e+09 2.720200e+07 -1.103555e+10)
0.00283701    	(2.211668e+29 -1.672724e+28 -1.524198e+29)	(2.211668e+29 -1.672724e+28 -1.524198e+29)	(-1.763404e+10 1.473499e+08 -6.168123e+10)
0.00283701    	(2.844056e+30 -2.172250e+29 -2.016892e+30)	(2.844056e+30 -2.172250e+29 -2.016892e+30)	(-5.017458e+10 4.380059e+08 -1.795639e+11)
0.00283701    	(5.845261e+31 -4.420856e+30 -4.028623e+31)	(5.845261e+31 -4.420856e+30 -4.028623e+31)	(-2.877855e+11 2.420893e+09 -1.004143e+12)
0.00283701    	(7.539809e+32 -5.758140e+31 -5.346064e+32)	(7.539809e+32 -5.758140e+31 -5.346064e+32)	(-8.155529e+11 7.085083e+09 -2.924106e+12)
0.00283701    	(1.545632e+34 -1.169058e+33 -1.065375e+34)	(1.545632e+34 -1.169058e+33 -1.065375e+34)	(-4.696797e+12 3.975640e+10 -1.634971e+13)
0.00283701    	(1.997896e+35 -1.525685e+34 -1.416451e+35)	(1.997896e+35 -1.525685e+34 -1.416451e+35)	(-1.328928e+13 1.154245e+11 -4.764736e+13)
0.00283701    	(4.090749e+36 -3.093949e+35 -2.819617e+36)	(4.090749e+36 -3.093949e+35 -2.819617e+36)	(-7.669773e+13 6.534711e+11 -2.663124e+14)
0.00283701    	(5.292486e+37 -4.040944e+36 -3.751606e+37)	(5.292486e+37 -4.040944e+36 -3.751606e+37)	(-2.168876e+14 1.890227e+12 -7.766723e+14)
0.00283701    	(1.082791e+39 -8.188887e+37 -7.462986e+38)	(1.082791e+39 -8.188887e+37 -7.462986e+38)	(-1.252877e+15 1.075216e+13 -4.338824e+15)
0.00283701    	(1.401467e+40 -1.069969e+39 -9.933529e+39)	(1.401467e+40 -1.069969e+39 -9.933529e+39)	(-3.546933e+15 3.115317e+13 -1.266419e+16)
0.00283701    	(2.867517e+41 -2.168383e+40 -1.976212e+41)	(2.867517e+41 -2.168383e+40 -1.976212e+41)	(-2.049061e+16 1.774874e+14 -7.070845e+16)
0.00283701    	(3.712001e+42 -2.833324e+41 -2.630518e+42)	(3.712001e+42 -2.833324e+41 -2.630518e+42)	(-5.815672e+16 5.177299e+14 -2.065785e+17)
0.00283701    	(7.598384e+43 -5.744007e+42 -5.235200e+43)	(7.598384e+43 -5.744007e+42 -5.235200e+43)	(-3.356006e+17 2.940072e+15 -1.153176e+18)
0.00283701    	(9.833488e+44 -7.502966e+43 -6.966328e+44)	(9.833488e+44 -7.502966e+43 -6.966328e+44)	(-9.567121e+17 8.682793e+15 -3.373381e+18)
0.00283701    	(2.013669e+46 -1.521516e+45 -1.386847e+46)	(2.013669e+46 -1.521516e+45 -1.386847e+46)	(-5.506230e+18 4.891616e+16 -1.883012e+19)
0.00283701    	(2.606850e+47 -1.987858e+46 -1.845787e+47)	(2.606850e+47 -1.987858e+46 -1.845787e+47)	(-1.578911e+19 1.468685e+17 -5.516768e+19)
0.00283701    	(5.328533e+48 -4.024422e+47 -3.668499e+48)	(5.328533e+48 -4.024422e+47 -3.668499e+48)	(-8.991669e+19 8.050741e+17 -3.070599e+20)
0.00283701    	(6.896144e+49 -5.256427e+48 -4.881058e+49)	(6.896144e+49 -5.256427e+48 -4.881058e+49)	(-2.571212e+20 2.400807e+18 -8.982123e+20)
0.00283701    	(1.410474e+51 -1.064903e+50 -9.707751e+50)	(1.410474e+51 -1.064903e+50 -9.707751e+50)	(-1.465516e+21 1.316343e+19 -5.001680e+21)
0.00283701    	(1.826268e+52 -1.391666e+51 -1.292297e+52)	(1.826268e+52 -1.391666e+51 -1.292297e+52)	(-4.192366e+21 3.933363e+19 -1.462330e+22)
0.00283701    	(3.734234e+53 -2.818773e+52 -2.569711e+53)	(3.734234e+53 -2.818773e+52 -2.569711e+53)	(-2.387962e+22 2.150887e+20 -8.143414e+22)
0.00283701    	(4.836463e+54 -3.684887e+53 -3.421797e+54)	(4.836463e+54 -3.684887e+53 -3.421797e+54)	(-6.833676e+22 6.436134e+20 -2.380279e+23)
0.00283701    	(9.884066e+55 -7.460051e+54 -6.801097e+55)	(9.884066e+55 -7.460051e+54 -6.801097e+55)	(-3.889892e+23 3.511920e+21 -1.325502e+24)
0.00283701    	(1.280827e+57 -9.757690e+55 -9.060944e+56)	(1.280827e+57 -9.757690e+55 -9.060944e+56)	(-1.113009e+24 1.050042e+22 -3.874453e+24)
0.00283701    	(2.616354e+58 -1.974545e+57 -1.800170e+58)	(2.616354e+58 -1.974545e+57 -1.800170e+58)	(-6.334310e+24 5.729661e+22 -2.157001e+25)
0.00283701    	(3.391020e+59 -2.583240e+58 -2.398783e+59)	(3.391020e+59 -2.583240e+58 -2.398783e+59)	(-1.812131e+25 1.711583e+23 -6.305350e+25)
0.00283701    	(6.924690e+60 -5.225874e+59 -4.764429e+60)	(6.924690e+60 -5.225874e+59 -4.764429e+60)	(-1.031025e+26 9.336870e+23 -3.509285e+26)
0.00283701    	(8.978139e+61 -6.839267e+60 -6.350865e+61)	(8.978139e+61 -6.839267e+60 -6.350865e+61)	(-2.949069e+26 2.786027e+24 -1.026038e+27)
0.00283701    	(1.833039e+63 -1.383318e+62 -1.261180e+63)	(1.833039e+63 -1.383318e+62 -1.261180e+63)	(-1.677763e+27 1.520359e+25 -5.708995e+27)
0.00283701    	(2.376428e+64 -1.810262e+63 -1.680997e+64)	(2.376428e+64 -1.810262e+63 -1.680997e+64)	(-4.798827e+27 4.535213e+25 -1.669296e+28)
0.00283701    	(4.851428e+65 -3.661225e+64 -3.337969e+65)	(4.851428e+65 -3.661225e+64 -3.337969e+65)	(-2.729398e+28 2.473552e+26 -9.286646e+28)
0.00283701    	(6.291000e+66 -4.792209e+65 -4.449989e+66)	(6.291000e+66 -4.792209e+65 -4.449989e+66)	(-7.806520e+28 7.375070e+26 -2.715838e+29)
0.00283701    	(1.284167e+68 -9.691272e+66 -8.835616e+67)	(1.284167e+68 -9.691272e+66 -8.835616e+67)	(-4.439781e+29 4.023110e+27 -1.510645e+30)
0.00283701    	(1.664838e+69 -1.268207e+68 -1.177652e+69)	(1.664838e+69 -1.268207e+68 -1.177652e+69)	(-1.269822e+30 1.199479e+28 -4.417830e+30)
0.00283701    	(3.398421e+70 -2.564784e+69 -2.338329e+70)	(3.398421e+70 -2.564784e+69 -2.338329e+70)	(-7.220730e+30 6.539662e+28 -2.457285e+31)
0.00283701    	(4.406715e+71 -3.356914e+70 -3.117200e+71)	(4.406715e+71 -3.356914e+70 -3.117200e+71)	(-2.065154e+31 1.949588e+29 -7.186460e+31)
0.00283701    	(8.994845e+72 -6.788539e+71 -6.189129e+72)	(8.994845e+72 -6.788539e+71 -6.189129e+72)	(-1.174331e+32 1.062878e+30 -3.997344e+32)
0.00283701    	(1.166130e+74 -8.883482e+72 -8.249165e+73)	(1.166130e+74 -8.883482e+72 -8.249165e+73)	(-3.358207e+32 3.168646e+30 -1.168831e+33)
0.00283701    	(2.380294e+75 -1.796518e+74 -1.637884e+75)	(2.380294e+75 -1.796518e+74 -1.637884e+75)	(-1.909769e+33 1.727328e+31 -6.502211e+33)
0.00283701    	(3.086756e+76 -2.351533e+75 -2.183604e+76)	(3.086756e+76 -2.351533e+75 -2.183604e+76)	(-5.460572e+33 5.146987e+31 -1.901310e+34)
0.00283701    	(6.299964e+77 -4.754963e+76 -4.335084e+77)	(6.299964e+77 -4.754963e+76 -4.335084e+77)	(-3.106041e+34 2.807980e+32 -1.057695e+35)
0.00283701    	(8.168060e+78 -6.222766e+77 -5.778407e+78)	(8.168060e+78 -6.222766e+77 -5.778407e+78)	(-8.878321e+34 8.360112e+32 -3.092548e+35)
0.00283701    	(1.667147e+80 -1.258353e+79 -1.147231e+80)	(1.667147e+80 -1.258353e+79 -1.147231e+80)	(-5.051296e+35 4.564116e+33 -1.720357e+36)
0.00283701    	(2.162027e+81 -1.647185e+80 -1.529546e+81)	(2.162027e+81 -1.647185e+80 -1.529546e+81)	(-1.443679e+36 1.357944e+34 -5.030726e+36)
0.00283701    	(4.412561e+82 -3.330654e+81 -3.036516e+82)	(4.412561e+82 -3.330654e+81 -3.036516e+82)	(-8.215069e+36 7.418365e+34 -2.798456e+37)
0.00283701    	(5.720671e+83 -4.358576e+82 -4.047322e+83)	(5.720671e+83 -4.358576e+82 -4.047322e+83)	(-2.347280e+37 2.205752e+35 -8.182614e+37)
0.00283701    	(1.167685e+85 -8.814258e+83 -8.035805e+84)	(1.167685e+85 -8.814258e+83 -8.035805e+84)	(-1.336023e+38 1.205932e+36 -4.551575e+38)
0.00283701    	(1.514159e+86 -1.153686e+85 -1.071289e+86)	(1.514159e+86 -1.153686e+85 -1.071289e+86)	(-3.817225e+38 3.583946e+36 -1.331094e+39)
0.00283701    	(3.090576e+87 -2.332981e+86 -2.126923e+87)	(3.090576e+87 -2.332981e+86 -2.126923e+87)	(-2.172662e+39 1.959532e+37 -7.404072e+39)
0.00283701    	(4.006364e+88 -3.052695e+87 -2.834683e+88)	(4.006364e+88 -3.052695e+87 -2.834683e+88)	(-6.206654e+39 5.822444e+37 -2.165020e+40)
0.00283701    	(8.178161e+89 -6.173716e+88 -5.628402e+89)	(8.178161e+89 -6.173716e+88 -5.628402e+89)	(-3.533713e+40 3.186574e+38 -1.204224e+41)
0.00283701    	(1.060338e+91 -8.079758e+89 -7.502659e+90)	(1.060338e+91 -8.079758e+89 -7.502659e+90)	(-1.009334e+41 9.458963e+38 -3.522115e+41)
0.00283701    	(2.164511e+92 -1.634039e+91 -1.489695e+92)	(2.164511e+92 -1.634039e+91 -1.489695e+92)	(-5.746616e+41 5.178508e+39 -1.958828e+42)
0.00283701    	(2.805400e+93 -2.137808e+92 -1.985124e+93)	(2.805400e+93 -2.137808e+92 -1.985124e+93)	(-1.641164e+42 1.536692e+40 -5.728848e+42)
0.00283701    	(5.727664e+94 -4.324140e+93 -3.942138e+94)	(5.727664e+94 -4.324140e+93 -3.942138e+94)	(-9.346473e+42 8.421702e+40 -3.185785e+43)
0.00283701    	(7.424158e+95 -5.657748e+94 -5.253628e+95)	(7.424158e+95 -5.657748e+94 -5.253628e+95)	(-2.669036e+43 2.497002e+41 -9.319777e+43)
0.00283701    	(1.515900e+97 -1.144476e+96 -1.043360e+97)	(1.515900e+97 -1.144476e+96 -1.043360e+97)	(-1.519889e+44 1.368512e+42 -5.181948e+44)
0.00283701    	(1.964170e+98 -1.496914e+97 -1.389999e+98)	(1.964170e+98 -1.496914e+97 -1.389999e+98)	(-4.340071e+44 4.057419e+42 -1.515888e+45)
0.00283701    	(4.011242e+99 -3.028544e+98 -2.760949e+99)	(4.011242e+99 -3.028544e+98 -2.760949e+99)	(-2.472006e+45 2.225673e+43 -8.427800e+45)
0.00283701    	(5.197445e+100 -3.961244e+99 -3.678294e+100)	(5.197445e+100 -3.961244e+99 -3.678294e+100)	(-7.058355e+45 6.593510e+43 -2.466036e+46)
0.00283701    	(1.061591e+102 -8.015434e+100 -7.307128e+101)	(1.061591e+102 -8.015434e+100 -7.307128e+101)	(-4.019870e+46 3.616948e+44 -1.370799e+47)
0.00283701    	(1.374989e+103 -1.048009e+102 -9.731538e+102)	(1.374989e+103 -1.048009e+102 -9.731538e+102)	(-1.147766e+47 1.071402e+45 -4.011151e+47)
0.00283701    	(2.809081e+104 -2.121059e+103 -1.933609e+104)	(2.809081e+104 -2.121059e+103 -1.933609e+104)	(-6.537846e+47 5.882206e+45 -2.229353e+48)
0.00283701    	(3.637886e+105 -2.772938e+104 -2.574875e+105)	(3.637886e+105 -2.772938e+104 -2.574875e+105)	(-1.866610e+48 1.741230e+46 -6.525008e+48)
0.00283701    	(7.434153e+106 -5.613607e+105 -5.117430e+106)	(7.434153e+106 -5.613607e+105 -5.117430e+106)	(-1.063016e+49 9.555802e+46 -3.625829e+49)
0.00283701    	(9.624210e+107 -7.336333e+106 -6.812344e+107)	(9.624210e+107 -7.336333e+106 -6.812344e+107)	(-3.035750e+49 2.831417e+47 -1.061203e+50)
0.00283701    	(1.967155e+109 -1.485500e+108 -1.354184e+109)	(1.967155e+109 -1.485500e+108 -1.354184e+109)	(-1.728512e+50 1.552753e+48 -5.897063e+50)
0.00283701    	(2.546245e+110 -1.941063e+109 -1.802425e+110)	(2.546245e+110 -1.941063e+109 -1.802425e+110)	(-4.936971e+50 4.602898e+48 -1.726004e+51)
0.00283701    	(5.205102e+111 -3.930866e+110 -3.583349e+111)	(5.205102e+111 -3.930866e+110 -3.583349e+111)	(-2.810618e+51 2.523285e+49 -9.590527e+51)
0.00283701    	(6.736040e+112 -5.135384e+111 -4.768602e+112)	(6.736040e+112 -5.135384e+111 -4.768602e+112)	(-8.028386e+51 7.482980e+49 -2.806957e+52)
0.00283701    	(1.377150e+114 -1.040098e+113 -9.481341e+113)	(1.377150e+114 -1.040098e+113 -9.481341e+113)	(-4.569446e+52 4.097994e+50 -1.559750e+53)
0.00283701    	(1.781896e+115 -1.358572e+114 -1.261542e+115)	(1.781896e+115 -1.358572e+114 -1.261542e+115)	(-1.305414e+53 1.216597e+51 -4.563989e+53)
0.00283701    	(3.642430e+116 -2.751226e+115 -2.507944e+116)	(3.642430e+116 -2.751226e+115 -2.507944e+116)	(-7.428498e+53 6.654165e+51 -2.536819e+54)
0.00283701    	(4.712438e+117 -3.593285e+116 -3.336669e+117)	(4.712438e+117 -3.593285e+116 -3.336669e+117)	(-2.121830e+54 1.976450e+52 -7.419624e+54)
0.00283701    	(9.632050e+118 -7.276418e+117 -6.632898e+118)	(9.632050e+118 -7.276418e+117 -6.632898e+118)	(-1.207539e+55 1.080489e+53 -4.125152e+55)
0.00283701    	(1.246205e+120 -9.503888e+118 -8.825179e+119)	(1.246205e+120 -9.503888e+118 -8.825179e+119)	(-3.449879e+55 3.215281e+53 -1.205901e+56)
0.00283701    	(2.546352e+121 -1.923959e+120 -1.753779e+121)	(2.546352e+121 -1.923959e+120 -1.753779e+121)	(-1.963371e+56 1.755179e+54 -6.709333e+56)
0.00283701    	(3.295238e+122 -2.513469e+121 -2.333968e+122)	(3.295238e+122 -2.513469e+121 -2.333968e+122)	(-5.607667e+56 5.225085e+54 -1.960137e+57)
0.00283701    	(6.731696e+123 -5.087215e+122 -4.637189e+123)	(6.731696e+123 -5.087215e+122 -4.637189e+123)	(-3.193383e+57 2.857095e+55 -1.090699e+58)
0.00283701    	(8.715389e+124 -6.648954e+123 -6.174060e+124)	(8.715389e+124 -6.648954e+123 -6.174060e+124)	(-9.121988e+57 8.513402e+55 -3.185554e+58)
0.00283701    	(1.779651e+126 -1.345096e+125 -1.226102e+126)	(1.779651e+126 -1.345096e+125 -1.226102e+126)	(-5.193586e+58 4.647276e+56 -1.773616e+59)
0.00283701    	(2.305022e+127 -1.758853e+126 -1.633198e+127)	(2.305022e+127 -1.758853e+126 -1.633198e+127)	(-1.483864e+59 1.384079e+57 -5.182355e+59)
0.00283701    	(4.705137e+128 -3.556465e+127 -3.241873e+128)	(4.705137e+128 -3.556465e+127 -3.241873e+128)	(-8.476860e+59 7.662826e+57 -2.881991e+60)
0.00283701    	(6.089778e+129 -4.647039e+128 -4.315351e+129)	(6.089778e+129 -4.647039e+128 -4.315351e+129)	(-2.422677e+60 2.285716e+58 -8.420938e+60)
0.00283701    	(1.244685e+131 -9.412169e+129 -8.578563e+130)	(1.244685e+131 -9.412169e+129 -8.578563e+130)	(-1.373601e+61 1.217711e+59 -4.706662e+61)
0.00283701    	(1.617158e+132 -1.233403e+131 -1.145234e+132)	(1.617158e+132 -1.233403e+131 -1.145234e+132)	(-3.963881e+61 3.826474e+59 -1.363603e+62)
0.00283701    	(3.279146e+133 -2.478452e+132 -2.259510e+133)	(3.279146e+133 -2.478452e+132 -2.259510e+133)	(-2.234918e+62 1.994793e+60 -7.645748e+62)
0.00283701    	(4.292343e+134 -3.274685e+133 -3.040034e+134)	(4.292343e+134 -3.274685e+133 -3.040034e+134)	(-6.388527e+62 5.964409e+60 -2.231715e+63)
0.00283701    	(8.665880e+135 -6.548362e+134 -5.970525e+135)	(8.665880e+135 -6.548362e+134 -5.970525e+135)	(-3.662431e+63 3.349532e+61 -1.239826e+64)
0.00283701    	(1.128012e+137 -8.603406e+135 -7.989978e+136)	(1.128012e+137 -8.603406e+135 -7.989978e+136)	(-1.045432e+64 9.992885e+61 -3.618375e+64)
0.00283701    	(2.312975e+138 -1.749396e+137 -1.594258e+138)	(2.312975e+138 -1.749396e+137 -1.594258e+138)	(-5.899919e+64 5.138252e+62 -2.037507e+65)
0.00283701    	(3.006164e+139 -2.289541e+138 -2.125975e+139)	(3.006164e+139 -2.289541e+138 -2.125975e+139)	(-1.706607e+65 1.667040e+63 -5.849686e+65)
0.00283701    	(6.035709e+140 -4.558184e+139 -4.157170e+140)	(6.035709e+140 -4.558184e+139 -4.157170e+140)	(-9.690837e+65 8.850216e+63 -3.291224e+66)
0.00283701    	(7.921798e+141 -6.039746e+140 -5.608868e+141)	(7.921798e+141 -6.039746e+140 -5.608868e+141)	(-2.750773e+66 2.607361e+64 -9.569992e+66)
0.00283701    	(1.603693e+143 -1.212375e+142 -1.105308e+143)	(1.603693e+143 -1.212375e+142 -1.105308e+143)	(-1.576726e+67 1.419725e+65 -5.381264e+67)
0.00283701    	(2.098159e+144 -1.600034e+143 -1.485430e+144)	(2.098159e+144 -1.600034e+143 -1.485430e+144)	(-4.554063e+67 4.507107e+65 -1.550450e+68)
0.00283701    	(4.222171e+145 -3.191222e+144 -2.909883e+145)	(4.222171e+145 -3.191222e+144 -2.909883e+145)	(-2.579484e+68 2.371568e+66 -8.732807e+68)
0.00283701    	(5.548619e+146 -4.232451e+145 -3.929083e+146)	(5.548619e+146 -4.232451e+145 -3.929083e+146)	(-7.279028e+68 6.807988e+66 -2.544692e+69)
0.00283701    	(1.117310e+148 -8.444835e+146 -7.700203e+147)	(1.117310e+148 -8.444835e+146 -7.700203e+147)	(-4.244882e+69 4.036710e+67 -1.414153e+70)
0.00283701    	(1.459644e+149 -1.113252e+148 -1.033655e+149)	(1.459644e+149 -1.113252e+148 -1.033655e+149)	(-1.200705e+70 1.166508e+68 -4.127746e+70)
0.00283701    	(2.961382e+150 -2.240478e+149 -2.042119e+150)	(2.961382e+150 -2.240478e+149 -2.042119e+150)	(-6.761921e+70 6.041337e+68 -2.312685e+71)
0.00283701    	(3.862617e+151 -2.946455e+150 -2.735389e+151)	(3.862617e+151 -2.946455e+150 -2.735389e+151)	(-1.959683e+71 1.956763e+69 -6.640015e+71)
0.00283701    	(7.771893e+152 -5.875549e+151 -5.357459e+152)	(7.771893e+152 -5.875549e+151 -5.357459e+152)	(-1.112987e+72 1.037410e+70 -3.745262e+72)
0.00283701    	(1.024257e+154 -7.814702e+152 -7.253450e+153)	(1.024257e+154 -7.814702e+152 -7.253450e+153)	(-3.126796e+72 2.875044e+70 -1.100094e+73)
0.00283701    	(2.065396e+155 -1.560858e+154 -1.423054e+155)	(2.065396e+155 -1.560858e+154 -1.423054e+155)	(-1.823479e+73 1.725366e+71 -6.083027e+73)
0.00283701    	(2.684901e+156 -2.046863e+155 -1.900654e+156)	(2.684901e+156 -2.046863e+155 -1.900654e+156)	(-5.185099e+73 5.115006e+71 -1.769229e+74)
0.00283701    	(5.449686e+157 -4.122130e+156 -3.757362e+157)	(5.449686e+157 -4.122130e+156 -3.757362e+157)	(-2.903259e+74 2.612305e+72 -9.902606e+74)
0.00283701    	(7.102041e+158 -5.414501e+157 -5.027468e+158)	(7.102041e+158 -5.414501e+157 -5.027468e+158)	(-8.336021e+74 8.133736e+72 -2.858728e+75)
0.00283701    	(1.436839e+160 -1.085770e+159 -9.900585e+159)	(1.436839e+160 -1.085770e+159 -9.900585e+159)	(-4.766062e+75 4.430171e+73 -1.605242e+76)
0.00283701    	(1.879406e+161 -1.432534e+160 -1.330236e+161)	(1.879406e+161 -1.432534e+160 -1.330236e+161)	(-1.353099e+76 1.300852e+74 -4.675798e+76)
0.00283701    	(3.800125e+162 -2.872226e+161 -2.618754e+162)	(3.800125e+162 -2.872226e+161 -2.618754e+162)	(-7.737642e+76 7.163168e+74 -2.608624e+77)
0.00283701    	(4.959969e+163 -3.780829e+162 -3.510833e+163)	(4.959969e+163 -3.780829e+162 -3.510833e+163)	(-2.206144e+77 2.149691e+75 -7.572331e+77)
0.00283701    	(1.004531e+165 -7.593136e+163 -6.923076e+164)	(1.004531e+165 -7.593136e+163 -6.923076e+164)	(-1.250551e+78 1.139551e+76 -4.245936e+78)
0.00283701    	(1.312501e+166 -1.000728e+165 -9.291754e+165)	(1.312501e+166 -1.000728e+165 -9.291754e+165)	(-3.589029e+78 3.498805e+76 -1.231010e+79)
0.00283701    	(2.652540e+167 -2.004315e+166 -1.827630e+167)	(2.652540e+167 -2.004315e+166 -1.827630e+167)	(-2.046862e+79 1.905545e+77 -6.885719e+79)
0.00283701    	(3.467115e+168 -2.643088e+167 -2.454434e+168)	(3.467115e+168 -2.643088e+167 -2.454434e+168)	(-5.794242e+79 5.516993e+77 -2.010960e+80)
0.00283701    	(7.026135e+169 -5.310488e+168 -4.841856e+169)	(7.026135e+169 -5.310488e+168 -4.841856e+169)	(-3.322347e+80 3.066912e+78 -1.121301e+81)
0.00283701    	(9.157737e+170 -6.979878e+169 -6.481843e+170)	(9.157737e+170 -6.979878e+169 -6.481843e+170)	(-9.506977e+80 9.311433e+78 -3.255817e+81)
0.00283701    	(1.856068e+172 -1.403025e+171 -1.279217e+172)	(1.856068e+172 -1.403025e+171 -1.279217e+172)	(-5.374465e+81 4.898333e+79 -1.824499e+82)
0.00283701    	(2.424366e+173 -1.848372e+172 -1.716279e+173)	(2.424366e+173 -1.848372e+172 -1.716279e+173)	(-1.541250e+82 1.495669e+80 -5.298013e+82)
0.00283701    	(4.904598e+174 -3.705811e+173 -3.379197e+174)	(4.904598e+174 -3.705811e+173 -3.379197e+174)	(-8.804067e+82 8.215241e+80 -2.958354e+83)
0.00283701    	(6.402863e+175 -4.880782e+174 -4.532732e+175)	(6.402863e+175 -4.880782e+174 -4.532732e+175)	(-2.494698e+83 2.383966e+81 -8.645352e+83)
0.00283701    	(1.299358e+177 -9.820086e+175 -8.953697e+176)	(1.299358e+177 -9.820086e+175 -8.953697e+176)	(-1.423716e+84 1.306299e+82 -4.818327e+84)
0.00283701    	(1.693011e+178 -1.290760e+177 -1.198601e+178)	(1.693011e+178 -1.290760e+177 -1.198601e+178)	(-4.076139e+84 3.948488e+82 -1.402592e+85)
0.00283701    	(3.433735e+179 -2.594419e+178 -2.365681e+179)	(3.433735e+179 -2.594419e+178 -2.365681e+179)	(-2.324226e+85 2.167037e+83 -7.810563e+85)
0.00283701    	(4.472035e+180 -3.408631e+179 -3.165818e+180)	(4.472035e+180 -3.408631e+179 -3.165818e+180)	(-6.596112e+85 6.296988e+83 -2.287093e+86)
0.00283701    	(9.099254e+181 -6.875221e+180 -6.268757e+181)	(9.099254e+181 -6.875221e+180 -6.268757e+181)	(-3.754031e+86 3.436950e+84 -1.271770e+87)
0.00283701    	(1.182661e+183 -9.015850e+181 -8.372812e+182)	(1.182661e+183 -9.015850e+181 -8.372812e+182)	(-1.075389e+87 1.032725e+85 -3.716043e+87)
0.00283701    	(2.406370e+184 -1.817602e+183 -1.657368e+184)	(2.406370e+184 -1.817602e+183 -1.657368e+184)	(-6.136116e+87 5.725212e+85 -2.061215e+88)
0.00283701    	(3.120236e+185 -2.377734e+184 -2.208722e+185)	(3.120236e+185 -2.377734e+184 -2.208722e+185)	(-1.744291e+88 1.664886e+86 -6.051705e+88)
0.00283701    	(6.375426e+186 -4.816427e+185 -4.391418e+186)	(6.375426e+186 -4.816427e+185 -4.391418e+186)	(-9.891632e+88 9.021244e+86 -3.356191e+89)
0.00283701    	(8.250500e+187 -6.288118e+186 -5.840729e+187)	(8.250500e+187 -6.288118e+186 -5.840729e+187)	(-2.840405e+89 2.728213e+87 -9.820960e+89)
0.00283701    	(1.685971e+189 -1.273446e+188 -1.161115e+189)	(1.685971e+189 -1.273446e+188 -1.161115e+189)	(-1.616060e+90 1.493969e+88 -5.450584e+90)
0.00283701    	(2.180986e+190 -1.661621e+189 -1.543545e+190)	(2.180986e+190 -1.661621e+189 -1.543545e+190)	(-4.634850e+90 4.484471e+88 -1.597441e+91)
0.00283701    	(4.461747e+191 -3.370270e+190 -3.072718e+191)	(4.461747e+191 -3.370270e+190 -3.072718e+191)	(-2.617127e+91 2.393144e+89 -8.865951e+91)
0.00283701    	(5.766251e+192 -4.392760e+191 -4.080676e+192)	(5.766251e+192 -4.392760e+191 -4.080676e+192)	(-7.522803e+91 7.289529e+89 -2.590562e+92)
0.00283701    	(1.179940e+194 -8.911581e+192 -8.125261e+193)	(1.179940e+194 -8.911581e+192 -8.125261e+193)	(-4.254741e+92 3.885005e+90 -1.442687e+93)
0.00283701    	(1.526665e+195 -1.162753e+194 -1.080156e+195)	(1.526665e+195 -1.162753e+194 -1.080156e+195)	(-1.224269e+93 1.188886e+91 -4.212394e+93)
0.00283701    	(3.118936e+196 -2.355414e+195 -2.147655e+196)	(3.118936e+196 -2.355414e+195 -2.147655e+196)	(-6.917523e+93 6.310700e+91 -2.346852e+94)
0.00283701    	(4.040004e+197 -3.076887e+196 -2.858247e+197)	(4.040004e+197 -3.076887e+196 -2.858247e+197)	(-1.989826e+94 1.932430e+92 -6.846063e+94)
0.00283701    	(8.244196e+198 -6.225486e+197 -5.676591e+198)	(8.244196e+198 -6.225486e+197 -5.676591e+198)	(-1.124896e+95 1.025957e+93 -3.817271e+95)
0.00283701    	(1.069204e+200 -8.142791e+198 -7.563997e+199)	(1.069204e+200 -8.142791e+198 -7.563997e+199)	(-3.233059e+95 3.135024e+93 -1.113096e+96)
0.00283701    	(2.179522e+201 -1.645738e+200 -1.500684e+201)	(2.179522e+201 -1.645738e+200 -1.500684e+201)	(-1.830614e+96 1.672610e+94 -6.207600e+96)
0.00283701    	(2.828210e+202 -2.153579e+201 -2.000575e+202)	(2.828210e+202 -2.153579e+201 -2.000575e+202)	(-5.249713e+96 5.081725e+94 -1.809461e+97)
