# Wall shear stress
# Time        	patch         	min           	max           
5             	obstacle	(-7.498215e-03 -8.826800e-03 -6.331690e-03)	(3.700807e-03 7.781129e-03 3.128010e-03)
10            	obstacle	(-9.320651e-03 -1.089191e-02 -8.202045e-03)	(4.436442e-03 9.733001e-03 4.238506e-03)
15            	obstacle	(-1.267042e-02 -1.983722e-02 -1.542463e-02)	(6.433725e-03 1.089505e-02 6.345345e-03)
20            	obstacle	(-2.699463e-02 -3.450575e-02 -1.702598e-02)	(9.354415e-03 1.087422e-02 1.208900e-02)
25            	obstacle	(-2.333516e-02 -3.262660e-02 -2.717043e-02)	(1.897732e-02 1.119502e-02 1.064983e-02)
