# Probe 0 (-1 0.395 0)
# Probe 1 (1 0.395 0)
#       Probe             0             1
#        Time
  0.000600024        541.81       566.222
   0.00132009        541.77       566.225
   0.00218416       541.785       566.216
   0.00322139       541.796       566.217
   0.00446581       541.805       566.216
   0.00592983        541.82       566.219
   0.00767076        541.84       566.222
   0.00973811       541.867       566.227
    0.0122076       541.907       566.233
    0.0151739       541.959        566.24
    0.0187293       541.998       566.245
    0.0228009       542.078       566.254
    0.0274104       542.163       566.264
    0.0326114       542.259       566.277
     0.038439       542.367       566.289
     0.044936       542.476       566.298
    0.0519073       542.603       566.306
    0.0593143       542.738       566.321
    0.0674237       542.915       566.329
    0.0764778       543.045       566.334
    0.0866264       543.188       566.344
    0.0931974       543.332       566.349
     0.100948       543.374       566.344
     0.110029       543.439       566.346
     0.120499       543.559        566.35
     0.132547       543.714       566.363
     0.146316         543.9       566.384
     0.161838       544.005       566.413
     0.178943       544.119       566.428
     0.196049       544.164       566.444
      0.20562       544.149       566.459
     0.215307       544.149       566.465
     0.226359       544.139       566.476
     0.236152       544.123       566.481
     0.247064       544.103        566.49
     0.258829       544.076       566.495
     0.270783       544.052       566.497
     0.280772       544.034       566.498
     0.290362       544.009       566.501
     0.299016       544.005       566.499
     0.306892       543.995       566.498
     0.314426        543.99       566.498
     0.322129        543.98       566.497
     0.329921       543.969       566.495
     0.337049       543.963       566.491
     0.343679       543.958       566.489
     0.350661       543.952        566.49
     0.357355       543.945       566.487
     0.363656       543.942       566.485
     0.369494       543.941       566.483
     0.375123        543.94       566.482
     0.380557       543.937       566.481
     0.385897       543.936       566.479
      0.39148       543.934       566.478
     0.397063       543.931       566.476
     0.402494       543.932       566.474
     0.408079       543.934       566.473
     0.413509       543.937       566.471
     0.419042       543.943        566.47
     0.424682       543.949       566.468
     0.430214       543.959       566.466
     0.435746       543.971       566.465
     0.441624       543.988       566.465
     0.446794       544.002        566.46
     0.450188       544.015       566.449
     0.452578       544.035        566.45
      0.45416       544.065       566.448
     0.455469       544.092       566.455
     0.456851        544.09       566.463
     0.458255       544.084       566.463
     0.459583       544.083        566.46
     0.460723       544.087       566.456
     0.461722       544.094       566.455
     0.462438       544.112       566.449
     0.463195       544.116       566.459
     0.463746       544.135       566.451
     0.464373       544.128       566.461
     0.465076       544.117       566.462
     0.465855       544.106       566.461
     0.466723       544.099       566.461
     0.467103       544.127       566.427
     0.467282       544.269        566.42
      0.46747       544.276       566.456
     0.467634       544.309       566.464
     0.467819       544.271       566.469
     0.468005       544.259       566.465
      0.46819       544.251       566.463
     0.468346       544.276        566.46
     0.468481       544.302       566.458
      0.46855        544.53        566.45
     0.468579       545.154       566.438
     0.468612       544.979       566.455
     0.468649       544.825       566.459
     0.468691       544.702       566.459
     0.468737       544.594       566.458
      0.46879         544.5       566.457
     0.468852        544.41       566.456
     0.468925       544.334       566.455
     0.469009       544.277       566.455
     0.469106       544.235       566.454
     0.469201       544.223       566.452
     0.469257       544.328       566.437
     0.469289       544.503       566.417
     0.469327       544.405       566.432
     0.469372       544.321        566.44
     0.469427       544.256       566.444
     0.469492       544.206       566.447
     0.469571       544.169       566.449
     0.469665        544.14        566.45
     0.469772       544.121        566.45
     0.469843       544.147       566.439
     0.469922       544.129       566.443
     0.470011       544.113       566.446
     0.470113       544.098       566.448
      0.47023       544.087        566.45
     0.470368       544.078       566.451
     0.470531        544.07       566.452
     0.470723       544.067       566.454
      0.47095       544.065       566.454
     0.471218       544.063       566.454
     0.471531       544.064       566.455
     0.471897       544.065       566.454
     0.472324       544.065       566.454
     0.472818       544.065       566.453
     0.473389       544.066       566.453
     0.474043       544.069       566.452
     0.474791       544.073       566.452
     0.475646       544.082       566.452
     0.476621       544.098       566.452
     0.477728       544.117       566.452
     0.478983       544.134       566.452
     0.480403       544.157       566.452
     0.482006       544.186       566.452
     0.483811        544.22       566.453
     0.485843       544.263       566.454
     0.488119       544.308       566.456
     0.490334       544.336       566.453
      0.49256       544.382       566.455
     0.494899       544.445       566.459
     0.497104       544.494       566.458
     0.499191       544.552        566.46
     0.501218       544.604       566.463
     0.503238       544.673       566.465
     0.505141       544.711       566.465
     0.507059       544.792       566.468
     0.509015       544.859        566.47
     0.510889       544.924       566.469
     0.512862       545.027       566.473
     0.514764       545.102       566.472
     0.516893       545.252       566.478
     0.519171       545.401       566.479
     0.521676       545.606       566.482
     0.524457       545.859       566.486
     0.527565       546.186        566.49
     0.531039       546.597       566.494
     0.534914       547.118       566.499
      0.53903        547.74       566.503
     0.543463       548.517       566.511
     0.548028        549.44       566.518
      0.55264       550.536       566.526
     0.557252       551.783       566.537
     0.561912       553.309       566.549
     0.566166       554.937        566.56
     0.570039       556.695       566.573
     0.573622        558.71       566.588
     0.577033       561.085       566.604
     0.580417       563.861       566.622
     0.583774       567.204       566.641
     0.587103       570.969       566.662
     0.590433       574.965       566.686
     0.593763       579.295       566.712
     0.597039       583.553       566.739
     0.600263       587.357       566.771
     0.603486       590.903       566.809
     0.606684       594.207       566.849
     0.609831       596.695       566.893
     0.612832       598.388       566.937
     0.615743       600.025       566.988
     0.618589       601.701       567.044
     0.621373        603.04       567.103
     0.624117       604.264        567.17
     0.626802        605.94       567.241
     0.629506       607.495       567.326
     0.632251       609.112       567.421
     0.635037       611.117       567.529
     0.637888       612.749       567.654
     0.640611       614.223       567.775
     0.643354       616.035       567.927
     0.646119       617.547       568.097
     0.648841       618.924        568.28
     0.651842       620.629       568.543
     0.654896       622.171       568.814
     0.658034       623.462        569.14
      0.66123       625.006       569.522
     0.664796       626.756        570.06
     0.668562       628.994       570.714
     0.671876       630.838        571.35
     0.675093       633.092       572.145
     0.678443       635.692       573.203
       0.6819       638.754       574.647
     0.685396       642.289       576.508
     0.689097       646.603       579.249
     0.692712         651.4       582.907
     0.696703       657.494       588.835
     0.700694        664.34       596.652
     0.704851       672.077       606.523
      0.70895       680.357       615.921
     0.713294       690.042       625.197
     0.718073        701.47       634.506
     0.723293       714.776       645.763
     0.728615       728.952       660.417
     0.734389       745.086       676.987
     0.740713       763.049       694.057
     0.747721       782.637       709.583
     0.755604       804.068       723.116
     0.764032       825.976       733.975
     0.772169        846.24        743.26
     0.780931       867.566       750.628
     0.790059        888.17       759.588
     0.799602       909.007       772.154
     0.810149       930.329       792.205
     0.820697       950.923        812.66
     0.831903       971.079       834.855
     0.842409       989.599       848.219
     0.852259        1005.4       858.397
     0.861492       1018.77       864.532
     0.870726       1029.28       870.419
      0.88067        1038.6       883.866
     0.891519       1046.31       903.224
     0.902367       1052.93       924.571
     0.914571       1057.31       959.593
     0.926775       1060.38       995.873
     0.938979       1060.63       1042.86
     0.951183       1056.16        1092.4
     0.963387       1046.98       1140.69
     0.975592       1031.41       1179.79
     0.987796       1010.32       1206.91
            1        986.26       1225.66
      1.00862       954.763       1253.33
      1.01717       934.864       1261.95
      1.02536       915.673       1267.43
      1.03297       898.345       1269.12
      1.04047       884.651       1264.21
      1.04827       876.491       1250.24
      1.05582       868.229        1233.4
      1.06292       863.345       1212.53
      1.07002       863.179       1184.56
      1.07671       863.748       1156.31
      1.08304       866.103       1126.93
      1.08919       869.544       1097.64
      1.09518        874.21       1069.66
      1.10094       879.266       1045.02
      1.10706       885.679       1020.69
      1.11383       892.833       999.139
      1.12086       899.708       983.146
      1.12831       906.422       971.577
      1.13602       912.458        963.52
      1.14374        917.92       959.459
      1.15174       923.344       957.789
       1.1599       928.383       957.704
      1.16813       932.997       959.442
      1.17727       938.551       957.549
      1.18652       942.904       956.824
      1.19598       947.673       954.854
      1.20501       952.062       953.217
      1.21356       956.158       952.002
      1.22184       960.331        948.87
      1.22986       964.426        944.98
      1.23741       968.157       941.557
      1.24474       972.072        937.34
      1.25194       975.797       931.733
      1.25844       978.766       927.801
      1.26428       981.491         923.3
      1.26994       984.225       917.134
      1.27578       986.864       910.262
      1.28153       989.294        903.88
      1.28701       991.486       899.146
      1.29233       993.568       894.014
      1.29765       995.392       887.623
      1.30278       997.036        880.91
      1.30769       998.501       874.304
      1.31243        999.85       867.184
      1.31702       1001.04       860.303
      1.32145       1002.05       853.129
      1.32575        1002.9         845.3
      1.32991       1003.69        837.45
      1.33394       1004.36       829.932
      1.33789       1004.95       821.899
      1.34171       1005.45       814.375
      1.34545       1005.88       806.085
      1.34911       1006.25       797.937
      1.35269       1006.54       790.179
      1.35618       1006.79       783.038
      1.35963       1006.97       776.781
        1.363       1007.12       769.983
      1.36632       1007.22       763.169
      1.36958       1007.26       756.107
       1.3728       1007.28       748.706
      1.37597       1007.28       740.913
       1.3791       1007.24       732.912
      1.38221       1007.18       724.881
      1.38528       1007.13        717.58
      1.38832       1007.01       710.579
      1.39134       1006.88       704.052
      1.39433       1006.73       697.682
       1.3973       1006.57       691.177
      1.40026       1006.43       684.637
       1.4032       1006.25       678.132
      1.40612       1006.06       671.865
      1.40905       1005.87       665.451
      1.41196       1005.67        659.11
      1.41487       1005.46       652.998
      1.41778       1005.27       647.083
      1.42069       1005.06       641.359
       1.4236       1004.84       635.585
      1.42652       1004.62       629.885
      1.42944       1004.42       624.195
      1.43238        1004.2       618.518
      1.43532          1004       612.942
      1.43828        1003.8       607.398
      1.44127        1003.6        601.93
      1.44427       1003.41       596.496
      1.44721       1003.22         591.1
      1.45009       1003.05       585.857
      1.45293       1002.89       580.844
      1.45572       1002.75       575.968
      1.45847       1002.61       571.238
      1.46119       1002.47       566.619
      1.46387       1002.35       562.084
      1.46654       1002.24       557.577
      1.46918       1002.15       553.083
      1.47179       1002.07       548.913
      1.47439       1001.99       544.784
      1.47698       1001.92       540.726
      1.47957       1001.86       536.737
      1.48216       1001.82       532.796
      1.48475       1001.78       528.927
      1.48735       1001.74       525.114
      1.48997       1001.72       521.317
       1.4926       1001.73        517.57
      1.49525       1001.72       513.838
      1.49795       1001.72       510.103
      1.50068       1001.74       506.367
      1.50345       1001.78       502.625
      1.50629       1001.81       498.855
       1.5092       1001.86       495.061
      1.51217       1001.91       491.243
      1.51522       1001.96       487.379
      1.51835       1002.02       483.486
      1.52156       1002.11       479.527
      1.52486        1002.2       475.533
      1.52825       1002.29       471.461
      1.53175       1002.39       467.354
      1.53535       1002.51        463.17
      1.53904       1002.62       458.958
      1.54285       1002.75       454.668
      1.54675       1002.87       450.269
       1.5508       1002.99        445.74
      1.55496       1003.11        441.17
      1.55928        1003.2       436.697
      1.56373       1003.29       432.141
      1.56837       1003.37       427.475
      1.57322        1003.4        422.73
      1.57824       1003.41       417.879
      1.58345       1003.37       412.988
      1.58893       1003.29        407.98
      1.59464       1003.15       402.889
      1.60069       1002.95       397.621
      1.60713       1002.68        392.21
      1.61402       1002.32       386.612
      1.62145       1001.89        380.74
      1.62968       1001.34       374.423
      1.63849       1000.77       367.846
      1.64753       1000.18       361.322
      1.65634       999.632       355.149
      1.66493       999.178       349.322
      1.67353       998.856        343.58
       1.6819       998.666       338.347
      1.69027       998.626       333.356
      1.69864       998.817       328.517
      1.70701        999.17       323.865
      1.71538       999.681       319.405
      1.72287       1000.39       315.577
      1.72963       1001.19       312.269
      1.73577       1002.03       309.385
      1.74152        1002.9       306.774
      1.74679       1003.76       304.443
      1.75176       1004.61       302.291
      1.75653       1005.47       300.254
      1.76113       1006.33        298.35
      1.76555       1007.18       296.558
      1.76989       1008.02       294.875
      1.77415       1008.87       293.244
      1.77834       1009.71       291.655
      1.78244       1010.55       290.105
      1.78647       1011.38       288.642
       1.7905       1012.21       287.245
      1.79445       1013.02       285.862
       1.7984       1013.84       284.491
      1.80228       1014.63       283.175
      1.80616       1015.42       281.885
      1.81003        1016.2       280.655
      1.81383       1016.96       279.441
      1.81763        1017.7       278.262
      1.82143       1018.43       277.101
      1.82523       1019.15       275.965
      1.82903       1019.84       274.856
      1.83283       1020.51       273.781
      1.83663       1021.16       272.727
      1.84043        1021.8       271.701
      1.84423        1022.4       270.706
      1.84803       1022.98       269.744
      1.85183       1023.54       268.804
      1.85553       1024.06       267.925
      1.85924       1024.55       267.072
      1.86284          1025       266.277
      1.86645       1025.43         265.5
      1.86997       1025.83       264.785
      1.87348        1026.2       264.063
        1.877       1026.54        263.38
      1.88051       1026.86       262.733
      1.88403       1027.16       262.115
      1.88754       1027.45       261.519
      1.89105        1027.7       260.949
      1.89457       1027.93       260.397
      1.89808       1028.15       259.857
       1.9016       1028.35       259.354
      1.90511       1028.51       258.877
      1.90863       1028.67       258.418
      1.91214       1028.82       257.981
      1.91566       1028.95        257.58
      1.91917       1029.05       257.216
      1.92268       1029.14       256.889
       1.9262       1029.25        256.61
      1.92971       1029.32       256.356
      1.93323        1029.3       256.102
      1.93674       1029.34       255.866
      1.94026       1029.38       255.648
      1.94377       1029.39       255.461
      1.94728       1029.37       255.315
       1.9508       1029.37       255.173
      1.95431       1029.35        255.05
      1.95783       1029.32       254.915
      1.96134        1029.3       254.808
      1.96486       1029.21       254.699
      1.96837       1029.13       254.633
      1.97189       1029.05       254.588
       1.9754       1028.96       254.572
      1.97891       1028.88       254.556
      1.98243       1028.78       254.557
      1.98594       1028.65         254.6
      1.98946       1028.53       254.644
      1.99297        1028.4       254.626
      1.99649       1028.27       254.636
            2       1028.13         254.7
      2.00365       1027.97       254.763
      2.00731       1027.85       254.857
      2.01099       1027.74       254.976
      2.01468        1027.6       255.112
      2.01838       1027.45       255.269
       2.0221        1027.3       255.441
      2.02583       1027.16       255.646
      2.02957       1027.02       255.871
      2.03331       1026.88         256.1
      2.03708       1026.74       256.359
      2.04084       1026.61       256.615
       2.0446       1026.51       256.876
      2.04837       1026.39        257.19
      2.05215        1026.3       257.543
      2.05594       1026.22       257.946
      2.05973       1026.13        258.46
      2.06352       1026.09        259.08
      2.06732       1026.05       259.934
      2.07111       1026.01       261.213
       2.0749       1025.99       263.059
      2.07869       1025.96       265.592
      2.08248       1026.02       268.452
      2.08627       1026.03       271.131
      2.09006       1026.07       274.474
      2.09386       1026.12       277.638
      2.09765       1026.17       281.018
      2.10142       1026.27       284.981
       2.1052       1026.36       288.164
      2.10897       1026.47       290.939
      2.11275       1026.55       292.939
      2.11651       1026.74        294.24
      2.12027        1026.9       294.805
      2.12403       1027.06       294.977
      2.12779       1027.24       295.069
      2.13153       1027.45       293.691
      2.13527       1027.69       291.463
      2.13902       1027.91       288.196
      2.14276       1028.15       283.632
       2.1465       1028.36       278.849
      2.15025       1028.65       274.848
      2.15399       1028.92       271.718
      2.15773       1029.24       268.512
      2.16148       1029.64       266.099
      2.16522        1029.8       264.244
      2.16897       1029.92       263.821
      2.17271       1030.25       263.723
      2.17645       1030.55       264.396
       2.1802       1030.87       264.946
      2.18394        1031.2        265.43
      2.18768       1031.51       265.992
      2.19144        1031.8       266.665
       2.1952       1032.13       267.473
      2.19896       1032.48       268.661
      2.20273       1032.83       269.683
      2.20649        1033.2       270.889
      2.21026       1033.56       271.929
      2.21404       1033.94       272.916
      2.21782       1034.35       273.958
       2.2216       1034.72       275.111
      2.22538       1035.14       276.307
      2.22918       1035.56        277.37
      2.23297       1036.02       278.595
      2.23677       1036.49       279.823
      2.24057       1036.95       281.124
      2.24436        1037.4       282.431
      2.24816       1037.87       283.837
      2.25196       1038.38       285.332
      2.25576       1038.88       286.893
      2.25955       1039.36       288.487
      2.26335       1039.85       290.198
      2.26715       1040.37       292.085
      2.27094       1040.84       294.025
      2.27474       1041.36       296.013
      2.27854       1041.87       298.073
      2.28236       1042.34       300.189
      2.28617       1042.82       302.377
      2.28999       1043.27       304.644
      2.29381       1043.76       306.967
      2.29763       1044.25       309.315
      2.30144       1044.67       311.571
      2.30526        1045.1       313.689
       2.3091       1045.47        315.82
      2.31294       1045.89       318.018
      2.31678       1046.32       320.268
      2.32061       1046.71       322.547
      2.32445       1047.06        324.92
      2.32831        1047.4       327.314
      2.33217       1047.74       329.696
      2.33603        1048.1       332.101
      2.33992       1048.46       334.438
       2.3438       1048.79        336.75
      2.34768       1049.16       339.067
      2.35159       1049.47       341.266
      2.35549       1049.82       343.333
       2.3594       1050.18        345.51
      2.36333       1050.59       347.632
      2.36726       1050.98       349.863
      2.37119       1051.36       352.172
      2.37514       1051.76        354.44
       2.3791       1052.17        356.88
      2.38305       1052.64       359.558
      2.38703        1053.1       362.569
      2.39101       1053.54       365.723
      2.39499       1054.01       369.221
        2.399       1054.48       373.067
      2.40301       1055.05       377.453
      2.40704       1055.57       382.532
      2.41108       1056.09       388.578
      2.41511       1056.54       395.481
      2.41917       1057.11       403.257
      2.42323        1057.7       412.094
      2.42732       1058.22       422.088
      2.43141       1058.81        432.56
      2.43553       1059.26       443.629
      2.43965       1059.73       454.736
      2.44377       1060.26       465.693
      2.44793       1060.86       476.631
      2.45208        1061.4       486.482
      2.45626       1061.98       495.705
      2.46044       1062.46       503.794
      2.46466       1063.02       511.034
      2.46887       1063.61       517.615
      2.47309       1064.23       523.425
      2.47734       1064.82       528.474
      2.48159       1065.46       532.565
      2.48587       1066.06       536.032
      2.49015       1066.74       538.588
      2.49448       1067.45       540.564
       2.4988       1068.14       541.967
      2.50315       1068.91       543.024
      2.50751       1069.66       543.643
      2.51187       1070.48       544.102
      2.51627       1071.34       544.227
      2.52067       1072.26       544.235
       2.5251       1073.19       544.083
      2.52954       1074.17       543.829
      2.53402       1075.24       543.662
       2.5385       1076.33       543.674
      2.54303       1077.53       543.931
      2.54755       1078.76       544.153
      2.55208        1080.1       544.573
      2.55665       1081.38       545.299
      2.56122       1082.81       546.231
      2.56584       1084.28       547.466
      2.57046       1085.79       548.869
      2.57507       1087.38       550.564
      2.57974       1089.07       552.527
      2.58441        1090.8       554.558
      2.58908       1092.45        556.82
      2.59381       1094.27       559.258
      2.59853       1095.95       561.767
      2.60325       1097.78       564.327
      2.60803       1099.56       567.139
      2.61281       1101.48       570.022
      2.61759       1103.52        573.08
      2.62243       1105.54       576.418
      2.62727       1107.38       579.811
      2.63212       1109.39       583.305
      2.63696       1111.45       586.885
       2.6418        1113.5       590.413
       2.6467       1115.67       594.164
      2.65161       1117.83       598.066
      2.65652       1119.94       602.207
      2.66142       1122.15       606.537
      2.66633       1124.42       610.996
      2.67124       1126.68       615.608
      2.67614       1128.87       620.299
      2.68105       1131.18        625.12
      2.68603       1133.18       630.135
      2.69102       1135.54       635.303
        2.696       1137.98       640.576
      2.70099       1140.44        645.91
      2.70597        1142.9       651.357
      2.71095       1145.37       656.922
      2.71594       1147.86       662.779
      2.72092        1150.4       668.794
       2.7259          1153       674.969
      2.73089        1155.6       681.307
      2.73587       1158.19       687.751
      2.74085       1160.87       694.586
      2.74584       1163.52       701.651
      2.75082       1166.24       708.889
       2.7558       1168.99       716.437
      2.76069       1171.69       724.056
      2.76557       1174.42       731.908
      2.77046        1177.2       740.003
      2.77534       1180.02       748.581
      2.78022       1182.86       757.499
      2.78511       1185.77       766.525
      2.78999       1188.74       775.959
      2.79488       1191.76       785.737
      2.79976       1194.83       795.753
      2.80464       1197.94       806.165
      2.80953       1201.24       816.828
      2.81441       1204.55       827.775
       2.8193       1207.96       839.098
      2.82418       1211.41       850.704
      2.82893       1214.81       862.474
      2.83368       1218.73       874.218
      2.83844       1221.83       886.065
      2.84319       1225.46       898.195
      2.84794       1229.11       910.471
      2.85269       1233.05       922.804
      2.85744       1237.07       935.134
      2.86219       1241.14        947.38
      2.86695       1245.08       959.613
       2.8717       1249.32       971.671
      2.87645       1253.51       983.541
       2.8812       1257.86       995.184
      2.88577       1262.07       1006.71
      2.89034       1266.44       1017.28
      2.89491       1270.72       1027.53
      2.89948       1275.16       1037.24
      2.90405       1279.59       1046.74
      2.90862       1284.03       1055.76
      2.91319       1288.47       1064.48
      2.91776       1293.06       1072.57
      2.92232       1297.53       1080.48
      2.92689       1302.16       1087.88
      2.93146       1306.78       1094.97
      2.93603       1311.43       1101.89
       2.9406       1316.22       1108.29
      2.94517       1320.92       1114.85
      2.94974       1325.65       1120.82
      2.95431       1330.46       1126.89
      2.95888       1335.35        1132.5
      2.96345       1340.14       1138.14
      2.96802       1344.99       1143.43
      2.97259       1349.82       1148.66
      2.97715       1354.73       1153.87
      2.98172       1359.68       1159.03
      2.98629       1364.45       1164.19
      2.99086       1369.61       1169.47
      2.99543       1374.56       1174.73
            3       1379.38       1180.13
      3.00433       1383.87       1186.24
      3.00866       1388.82       1191.51
      3.01297       1393.54       1196.84
      3.01728       1398.21       1202.21
      3.02157       1402.83       1207.83
      3.02586       1407.49       1212.94
      3.03015       1412.09       1218.44
      3.03442       1416.87       1223.63
       3.0387       1421.41       1228.97
      3.04295       1425.91       1234.26
       3.0472       1430.42       1239.41
      3.05146       1434.89       1244.52
      3.05569       1439.56       1249.65
      3.05993       1443.98       1254.78
      3.06414       1448.34       1259.96
      3.06836       1452.55       1265.08
      3.07257       1457.16       1270.27
      3.07677       1461.34       1275.52
      3.08097       1465.57       1280.74
      3.08516       1469.79       1285.98
      3.08934       1473.93       1291.35