# k  POINT_DATA 14232
# x  y  z  k
0 -0.0115468 6.39774e-08 1.84711e-06
0 0.0115468 6.39774e-08 8.51261e-10
0 -0.0115468 0.000159933 1.80155e-06
6.77626e-21 0.0115468 0.000159966 8.44244e-10
1.35525e-20 -0.0115468 0.000505149 2.09742e-06
0 0.0115468 0.000505252 9.66879e-10
0 -0.0115468 0.000661354 2.38967e-06
0 0.0115468 0.00066149 1.073e-09
-6.77626e-21 -0.0115468 0.000824682 2.59023e-06
0 0.0115468 0.000824823 1.16658e-09
6.77626e-21 -0.0115467 0.00119323 2.75867e-06
-6.77626e-21 0.0115467 0.00119337 1.29913e-09
0 0.0116176 9.48413e-05 8.54866e-10
0 -0.0116176 9.48284e-05 1.84448e-06
0 0.0116191 6.70002e-08 8.54699e-10
0 -0.0116191 6.70007e-08 1.8438e-06
0 -0.0115467 0.00135636 2.68981e-06
0 0.0115467 0.0013565 1.30461e-09
0 -0.0116144 0.000567788 2.24536e-06
0 0.0116144 0.000567904 1.02136e-09
-1.35525e-20 -0.0116106 0.000748384 2.53848e-06
0 0.0116106 0.000748514 1.14026e-09
0 -0.0115467 0.00152899 2.48204e-06
6.77626e-21 0.0115467 0.00152911 1.26467e-09
-1.35525e-20 -0.0116105 0.00124699 2.7664e-06
1.35525e-20 0.0116105 0.00124712 1.31958e-09
0 -0.0116054 0.00142615 2.59475e-06
-1.35525e-20 0.0116054 0.00142627 1.29734e-09
6.77626e-21 -0.0115467 0.00190899 2.58624e-06
0 0.0115467 0.00190902 1.32888e-09
1.35525e-20 0.0117276 6.6334e-08 1.54984e-09
-1.35525e-20 -0.0117276 6.63364e-08 2.77081e-06
-6.77626e-21 -0.0117103 0.000650495 2.58388e-06
2.03288e-20 0.0117103 0.000650588 1.29114e-09
-1.35525e-20 0.0115467 0.002087 1.52391e-09
1.35525e-20 -0.0115467 0.002087 3.03107e-06
0 -0.011609 0.00193563 2.74312e-06
0 0.011609 0.00193565 1.38649e-09
-6.77626e-21 -0.0117025 0.00130867 2.28626e-06
6.77626e-21 0.0117025 0.00130876 1.11221e-09
0 0.0116004 0.00211165 1.51861e-09
-1.35525e-20 -0.0116004 0.00211165 3.251e-06
0 0.0116425 0.00204727 1.50876e-09
-1.35525e-20 -0.0116425 0.00204727 3.18189e-06
1.35525e-20 0.0116584 0.00213829 1.69513e-09
-1.35525e-20 -0.0116585 0.00213829 3.22252e-06
-1.35525e-20 -0.0117067 0.00192898 2.60069e-06
-1.35525e-20 0.0117067 0.00192897 1.27762e-09
4.51751e-21 -0.0118537 0.000959072 2.87253e-06
4.51751e-21 0.0118537 0.000959138 1.32609e-09
-4.51751e-21 0.0119178 0.000318651 1.52569e-09
-1.12938e-20 -0.0119179 0.00031862 2.8726e-06
1.35525e-20 0.011932 7.04551e-08 1.78508e-09
-1.35525e-20 -0.011932 7.04586e-08 3.14598e-06
2.71051e-21 -0.0118325 0.00163065 2.5083e-06
0 0.0118325 0.00163068 1.33174e-09
-1.35525e-20 -0.0118724 0.00142181 2.18343e-06
0 0.0118724 0.00142183 1.14095e-09
-1.35525e-20 0.0117615 0.0021856 1.72091e-09
0 -0.0117616 0.0021856 3.21785e-06
-5.42101e-20 0.0118132 0.00220929 2.16174e-09
-2.71051e-20 -0.0118132 0.00220929 3.65127e-06
-3.76459e-22 0.0118989 0.00195768 1.50786e-09
-2.63521e-21 -0.0118989 0.00195769 2.96046e-06
0 -0.0119718 0.0015384 1.70223e-06
6.77626e-21 0.0119718 0.0015384 9.44416e-10
0 0.0120982 7.96187e-08 3.49056e-09
0 -0.0120983 7.96213e-08 4.82959e-06
4.06576e-21 -0.0120695 0.00085261 2.26716e-06
-2.71051e-21 0.0120694 0.000852623 1.26202e-09
0 0.0122081 0.000167123 3.92104e-09
-2.71051e-20 -0.0122082 0.000167145 5.73798e-06
0 0.012221 7.14632e-08 3.91893e-09
0 -0.012221 7.14627e-08 5.73897e-06
2.71051e-21 0.0121684 0.00122551 7.82395e-10
-1.95759e-21 -0.0121684 0.00122551 1.5074e-06
-2.71051e-20 0.012025 0.00230651 1.88451e-09
6.77626e-21 -0.0120251 0.00230652 3.02647e-06
3.22679e-21 0.0122349 0.000642359 2.56884e-09
1.29072e-21 -0.0122349 0.000642359 3.7043e-06
-1.01644e-20 0.0120594 0.00232227 1.92344e-09
0 -0.0120594 0.00232227 3.05809e-06
0 0.0122855 6.71739e-08 5.22489e-09
2.71051e-20 -0.0122856 6.71709e-08 6.47953e-06
1.97641e-21 0.0122109 0.00173628 1.06487e-09
-2.82344e-22 -0.0122109 0.0017363 1.93842e-06
-5.42101e-21 0.0121468 0.002146 1.99749e-09
8.13152e-21 -0.0121468 0.00214601 3.12205e-06
-6.77626e-21 0.0122263 0.00229071 2.077e-09
6.77626e-21 -0.0122264 0.00229075 3.2063e-06
0 0.0124605 5.58013e-08 6.81311e-09
0 -0.0124606 5.57971e-08 8.40521e-06
0 0.0125121 0.000225139 7.50267e-09
0 -0.0125121 0.00022516 8.9574e-06
0 0.0122889 0.00242764 2.36947e-09
0 -0.012289 0.00242766 3.58134e-06
0 0.0125901 0.000921782 1.10277e-09
-2.71051e-20 -0.0125902 0.000921784 1.57054e-06
-1.35525e-20 0.012401 0.00241701 2.19174e-09
0 -0.0124011 0.00241703 3.41673e-06
-6.77626e-21 0.0123956 0.00247648 2.17715e-09
-6.77626e-21 -0.0123956 0.00247647 3.43348e-06
-3.38813e-21 0.0124525 0.00218686 1.84628e-09
-1.69407e-21 -0.0124525 0.00218688 2.88845e-06
0 0.0125382 0.00209403 1.48763e-09
2.71051e-20 -0.0125382 0.00209406 2.26579e-06
1.0842e-20 0.0126447 0.00162116 6.04236e-10
2.71051e-20 -0.0126447 0.00162119 1.12222e-06
1.35525e-20 -0.012772 0.000141272 1.14155e-05
0 0.0127721 0.000141226 9.66258e-09
1.35525e-20 -0.0127747 1.51153e-08 1.14058e-05
1.35525e-20 0.0127748 1.5111e-08 9.64985e-09
-2.71051e-21 -0.0126131 0.00241882 3.7816e-06
-1.35525e-20 0.0126131 0.00241885 2.41821e-09
1.35525e-20 -0.0125862 0.00256375 3.87596e-06
-2.71051e-20 0.0125863 0.00256377 2.3886e-09
0 -0.0129279 4.53095e-09 1.26483e-05
0 0.0129279 4.5309e-09 1.07406e-08
9.03502e-21 0.0129181 0.000605376 5.99799e-09
-1.88079e-37 -0.0129182 0.000605392 7.42263e-06
-2.25875e-21 0.0129069 0.00122274 9.054e-10
0 -0.012907 0.00122277 1.49157e-06
0 -0.0127463 0.00263701 5.73907e-06
-2.71051e-20 0.0127464 0.00263706 3.67756e-09
-9.03502e-21 0.0128745 0.00194112 9.38583e-10
-4.51751e-21 -0.0128746 0.00194114 1.69793e-06
0 0.0130689 3.79654e-09 1.11833e-08
0 -0.0130689 3.79638e-09 1.373e-05
2.71051e-20 0.0130684 0.000129725 1.11751e-08
-1.35525e-20 -0.0130685 0.000129752 1.37103e-05
-4.51751e-21 0.0129105 0.00229689 2.24597e-09
-2.25875e-21 -0.0129106 0.00229692 3.71618e-06
-8.13152e-21 0.0131166 0.0016405 6.91147e-10
8.13152e-21 -0.0131166 0.00164056 1.21059e-06
0 0.013248 0.000302964 1.21734e-08
2.71051e-20 -0.013248 0.000302967 1.5298e-05
-6.77626e-21 -0.0129823 0.00274604 7.48322e-06
2.71051e-20 0.0129824 0.00274607 4.52068e-09
0 0.0132464 0.000911472 1.7193e-09
-2.71051e-20 -0.0132464 0.000911494 2.72719e-06
9.03502e-21 0.0131304 0.00262467 4.66605e-09
0 -0.0131304 0.00262473 7.70982e-06
2.71051e-20 0.0132415 0.00211425 7.15451e-10
0 -0.0132416 0.0021143 1.49213e-06
1.35525e-20 0.0131185 0.00280836 5.09014e-09
0 -0.0131186 0.00280842 8.4427e-06
-1.35525e-20 -0.013437 2.08369e-09 1.64162e-05
-1.35525e-20 0.013437 2.0834e-09 1.25536e-08
0 -0.0134397 0.000120667 1.64203e-05
-1.35525e-20 0.0134397 0.000120639 1.25573e-08
-1.35525e-20 0.0135679 1.40563e-09 1.29027e-08
0 -0.0135679 1.40572e-09 1.7038e-05
0 0.0135763 0.00059667 7.45842e-09
0 -0.0135763 0.000596688 1.01219e-05
9.03502e-21 0.0135724 0.00122413 1.20525e-09
2.25875e-21 -0.0135724 0.00122416 2.04482e-06
2.71051e-20 0.0133498 0.00291517 6.33228e-09
-2.71051e-20 -0.0133499 0.00291524 9.33648e-06
6.77626e-21 0.0134778 0.00238384 3.03481e-09
-6.77626e-21 -0.013478 0.00238391 5.09513e-06
-4.51751e-21 0.0135676 0.00185527 7.04223e-10
-6.77626e-21 -0.0135677 0.00185532 1.41923e-06
1.35525e-20 0.0136939 1.2223e-09 1.32718e-08
0 -0.013694 1.22233e-09 1.76975e-05
0 0.0136952 0.000110039 1.3267e-08
-1.35525e-20 -0.0136952 0.000110069 1.76863e-05
2.03288e-20 -0.0135431 0.00300575 1.19055e-05
3.72694e-20 0.0135431 0.00300574 8.76529e-09
0 -0.0139035 0.000294194 1.8889e-05
0 0.0139035 0.000294183 1.367e-08
1.69407e-20 0.0135877 0.0030267 8.92147e-09
-1.69407e-20 -0.013588 0.00302686 1.20669e-05
0 0.0139156 0.000900746 2.01161e-09
0 -0.0139156 0.000900767 3.29731e-06
-4.51751e-21 0.0136798 0.00276423 7.7684e-09
-4.51751e-21 -0.0136798 0.00276433 1.09041e-05
2.71051e-20 0.0139125 0.00154327 6.28887e-10
0 -0.0139126 0.00154331 1.26764e-06
-2.71051e-20 0.0138987 0.00219587 1.03224e-09
-2.71051e-20 -0.0138988 0.00219593 2.05009e-06
0 -0.0141099 3.98855e-10 1.94032e-05
-1.35525e-20 0.01411 3.98723e-10 1.39303e-08
1.35525e-20 -0.0141138 9.87932e-05 1.94043e-05
1.35525e-20 0.0141138 9.87563e-05 1.39302e-08
-1.35525e-20 0.0138003 0.00312616 8.14701e-09
-1.35525e-20 -0.0138004 0.00312625 1.07698e-05
0 -0.0142228 2.30732e-10 1.94022e-05
0 0.0142228 2.30673e-10 1.39044e-08
-2.25875e-21 0.0142415 0.000580992 8.21452e-09
-4.51751e-21 -0.0142415 0.000581005 1.17501e-05
-1.12938e-21 0.0142522 0.0012064 1.5232e-09
1.12938e-21 -0.0142522 0.00120643 2.80667e-06
-1.35525e-20 0.0143301 2.07135e-10 1.41079e-08
0 -0.0143301 2.07176e-10 1.9619e-05
0 0.0143313 8.88715e-05 1.41065e-08
0 -0.0143313 8.89061e-05 1.96181e-05
-6.77626e-21 0.013971 0.00320516 8.59742e-09
-1.35525e-20 -0.0139711 0.00320521 1.12283e-05
2.25875e-21 0.0142439 0.0018749 7.8375e-10
-1.12938e-21 -0.014244 0.00187495 1.99179e-06
0 0.0140732 0.00302489 8.29603e-09
-2.71051e-21 -0.0140733 0.003025 1.10409e-05
9.03502e-22 0.0141848 0.00260879 4.17298e-09
-9.03502e-22 -0.014185 0.00260885 6.60188e-06
6.77626e-21 0.0140966 0.0032633 8.23967e-09
0 -0.014097 0.00326346 1.10592e-05
0 0.0142071 0.00316519 7.86157e-09
-1.35525e-20 -0.0142074 0.00316541 1.09252e-05
0 -0.0145609 0.000281732 2.01528e-05
-2.71051e-20 0.0145609 0.000281727 1.43719e-08
0 0.0145815 0.000874352 2.50157e-09
0 -0.0145815 0.000874372 4.27786e-06
-1.35525e-20 0.0142355 0.00332755 7.06152e-09
2.71051e-20 -0.0142357 0.00332766 1.07721e-05
0 0.0145904 0.00151948 8.87371e-10
2.71051e-20 -0.0145905 0.00151951 2.32774e-06
0 0.0145713 0.00221296 5.87731e-10
0 -0.0145714 0.00221301 2.31301e-06
0 0.014357 0.00338361 7.03802e-09
1.35525e-20 -0.0143572 0.00338367 1.167e-05
4.51751e-21 0.0144398 0.00302856 5.34768e-09
-6.02335e-21 -0.0144401 0.00302864 8.73394e-06
-1.35525e-20 0.0143822 0.00330545 7.00487e-09
-1.35525e-20 -0.0143823 0.00330556 1.14968e-05
-1.35525e-20 -0.0147852 4.2202e-11 2.04705e-05
0 0.0147853 4.21645e-11 1.33513e-08
-1.35525e-20 -0.0147878 7.95663e-05 2.04725e-05
-1.35525e-20 0.0147879 7.95165e-05 1.33475e-08
-1.35525e-20 -0.0148815 2.04947e-11 2.0573e-05
1.35525e-20 0.0148815 2.04768e-11 1.3411e-08
2.71051e-20 0.0146213 0.00280153 1.3823e-09
0 -0.0146214 0.00280159 3.93903e-06
-2.25875e-21 -0.0149014 0.000554709 1.31772e-05
-4.51751e-21 0.0149014 0.000554705 8.47469e-09
0 0.0145853 0.00326151 6.32413e-09
-2.71051e-20 -0.0145855 0.00326159 1.12414e-05
1.12938e-21 0.014922 0.00116916 2.6647e-09
-1.12938e-21 -0.014922 0.00116918 4.60098e-06
0 0.0149733 1.85798e-11 1.1979e-08
-1.35525e-20 -0.0149733 1.85939e-11 2.07028e-05
0 0.0149737 7.37377e-05 1.19841e-08
0 -0.0149738 7.37977e-05 2.07029e-05
2.71051e-20 0.0146077 0.00349933 7.9576e-09
1.35525e-20 -0.014608 0.00349943 1.31521e-05
-1.12938e-21 0.0149197 0.00184904 1.0631e-09
0 -0.0149198 0.00184907 3.52768e-06
0 0.0146661 0.00343238 8.04047e-09
0 -0.0146663 0.00343252 1.31602e-05
0 0.0149194 0.00252068 1.0832e-09
-1.12938e-21 -0.0149195 0.00252073 3.75828e-06
2.71051e-20 0.0147321 0.00355666 8.87753e-09
0 -0.0147322 0.00355672 1.33992e-05
-2.25875e-21 0.0148879 0.00309611 5.30862e-09
0 -0.0148881 0.00309617 9.08936e-06
0 -0.0152102 0.000264579 2.10272e-05
2.71051e-20 0.0152103 0.00026457 1.09732e-08
0 -0.0152372 0.000832817 6.63661e-06
2.71051e-20 0.0152372 0.000832812 5.12061e-09
0 0.0148481 0.0036099 1.1188e-08
0 -0.0148482 0.00360994 1.51034e-05
0 0.0148927 0.003477 1.05258e-08
1.35525e-20 -0.0148928 0.00347709 1.4635e-05
-2.71051e-20 0.0152552 0.00147323 1.86707e-09
2.71051e-20 -0.0152552 0.00147325 5.05384e-06
2.71051e-20 0.0152472 0.00216851 9.03943e-10
5.42101e-20 -0.0152472 0.00216853 4.443e-06
0 -0.0154526 2.80546e-12 2.07046e-05
0 0.0154528 2.79932e-12 1.26017e-08
0 -0.0154539 6.4364e-05 2.07047e-05
0 0.0154541 6.42863e-05 1.26073e-08
-2.71051e-20 0.0150217 0.00368977 1.20865e-08
2.71051e-20 -0.0150218 0.00368985 1.57192e-05
0 0.0150964 0.00340472 1.1625e-08
2.71051e-20 -0.0150966 0.00340477 1.60088e-05
0 0.0152384 0.002848 1.43073e-09
0 -0.0152385 0.00284804 4.37363e-06
0 -0.0155344 1.12584e-12 2.08867e-05
0 0.0155345 1.12356e-12 1.42866e-08
2.71051e-20 0.015136 0.00358108 1.17393e-08
0 -0.0151361 0.00358119 1.54656e-05
0 -0.0155483 0.000512811 1.59394e-05
0 0.0155483 0.000512813 1.29087e-08
0 -0.0156089 5.68786e-05 2.06069e-05
6.77626e-21 0.0156089 5.68083e-05 1.43204e-08
0 -0.0156116 1.05395e-12 2.06113e-05
6.77626e-21 0.0156116 1.052e-12 1.42889e-08
1.35525e-20 0.0151553 0.00375102 1.12234e-08
-1.35525e-20 -0.0151554 0.00375107 1.44778e-05
-1.12938e-21 -0.0156 0.0011003 1.11283e-05
0 0.0156 0.0011003 1.01092e-08
0 0.0155873 0.00178843 2.26903e-09
-1.12938e-21 -0.0155873 0.00178845 7.15034e-06
0 0.0152736 0.00381163 1.16333e-08
-1.35525e-20 -0.0152737 0.00381166 1.47206e-05
1.35525e-20 0.015311 0.00369351 1.14359e-08
-4.06576e-20 -0.0153111 0.00369356 1.47061e-05
3.38813e-21 0.0155683 0.00250748 1.27728e-09
2.25875e-21 -0.0155684 0.00250751 4.70785e-06
0 -0.015842 0.000233949 2.02942e-05
-5.42101e-20 0.0158421 0.000233943 1.59391e-08
-4.51751e-22 0.0155232 0.00325344 5.61901e-09
1.35525e-21 -0.0155233 0.00325348 9.41765e-06
0 -0.0158871 0.000762453 1.47927e-05
2.71051e-20 0.0158872 0.000762453 1.77933e-08
-1.35525e-20 0.0154852 0.00363865 1.09881e-08
-1.35525e-20 -0.0154853 0.00363869 1.39334e-05
6.77626e-21 0.0154927 0.00391521 1.06167e-08
0 -0.0154927 0.00391527 1.39913e-05
2.71051e-20 -0.0159268 0.00138123 1.48766e-05
0 0.0159268 0.00138123 4.46371e-09
0 0.0155593 0.00385214 1.02909e-08
1.35525e-20 -0.0155593 0.00385222 1.38462e-05
2.71051e-20 0.0158993 0.00212235 1.91709e-09
2.71051e-20 -0.0158994 0.00212237 4.75283e-06
0 0.0155754 0.0039559 9.53237e-09
0 -0.0155754 0.00395594 1.34559e-05
0 0.0158855 0.00284661 8.84301e-10
0 -0.0158856 0.00284663 5.27508e-06
6.77626e-21 0.0156482 0.00400349 9.24726e-09
1.35525e-20 -0.0156482 0.00400353 1.3966e-05
5.64689e-22 -0.0161504 0.000464681 2.69888e-05
-3.95282e-21 0.0161505 0.000464663 8.3464e-08
-1.35525e-20 0.0156709 0.00394832 9.2555e-09
0 -0.0156709 0.00394837 1.38594e-05
2.25875e-21 0.0157655 0.00368363 6.95245e-09
0 -0.0157655 0.00368367 1.09976e-05
4.23516e-21 0.0162446 7.65639e-14 1.25592e-07
0 -0.0162451 7.54652e-14 3.34434e-05
8.47033e-22 -0.0162671 1.41525e-05 3.36737e-05
0 -0.0162672 1.73772e-06 3.38705e-05
7.19978e-21 0.0162672 1.45818e-05 1.28236e-07
0 0.0162715 1.44085e-06 1.29173e-07
0 0.0159384 0.00346448 1.7546e-09
2.71051e-20 -0.0159385 0.00346452 5.73598e-06
-2.25875e-22 -0.0162375 0.00174474 1.24348e-05
3.95282e-22 0.0162375 0.00174473 6.58981e-09
2.25875e-21 -0.0163344 0.000944398 2.63263e-05
-6.77626e-21 0.0163345 0.00094441 6.62313e-08
0 0.015896 0.00392573 8.11865e-09
-2.71051e-20 -0.0158961 0.00392576 1.32825e-05
-8.87368e-22 -0.0162554 0.00244443 7.05624e-06
5.64689e-22 0.0162554 0.0024444 2.55822e-09
-1.35525e-20 -0.0159402 0.00419462 1.36046e-05
0 0.0159403 0.00419464 9.30353e-09
5.64689e-22 0.0162141 0.0031706 1.37443e-09
-5.64689e-22 -0.0162141 0.00317063 5.59936e-06
0 -0.0159991 0.00414939 1.34378e-05
0 0.0159991 0.00414944 9.31949e-09
1.35525e-20 -0.016026 0.00425069 1.29303e-05
0 0.0160261 0.00425068 9.69852e-09
9.41148e-23 -0.0166367 0.000352811 5.58411e-05
-1.8823e-22 0.0166369 0.00035298 3.09567e-07
0 0.0160816 0.0042869 9.16507e-09
-1.35525e-20 -0.0160816 0.00428693 1.22769e-05
0 0.016105 0.00423208 9.19262e-09
1.35525e-20 -0.016105 0.00423207 1.2322e-05
0 0.016226 0.00384224 5.79028e-09
1.90582e-21 -0.0162262 0.00384229 9.48938e-06
-6.35275e-22 0.0162339 0.00382556 5.6434e-09
0 -0.016234 0.00382567 9.35117e-06
1.05879e-22 0.0162401 0.00384589 5.78228e-09
5.29396e-22 -0.0162402 0.00384591 9.46933e-06
-6.77626e-21 -0.0167083 1.01691e-14 5.51093e-05
-6.77626e-21 0.0167085 1.01518e-14 2.90479e-07
2.71051e-20 -0.0166691 0.00146462 2.03387e-05
-2.71051e-20 0.0166691 0.0014646 1.14744e-08
-2.71051e-20 0.0165265 0.00282081 1.64511e-09
2.71051e-20 -0.0165265 0.00282082 5.94393e-06
-1.35525e-20 0.0161983 0.00436312 9.22116e-09
6.77626e-21 -0.0161984 0.00436321 1.21689e-05
0 0.0166645 0.00194624 7.45368e-09
0 -0.0166645 0.00194624 1.41959e-05
0 0.0165187 0.00350446 1.19102e-09
0 -0.0165187 0.00350448 5.47744e-06
1.35525e-20 -0.0169424 1.10016e-15 6.85261e-05
-1.35525e-20 0.0169426 1.10457e-15 2.48834e-07
0 0.0163499 0.0044621 9.89624e-09
1.35525e-20 -0.0163499 0.00446215 1.18102e-05
-3.10579e-21 0.0169272 0.000866318 1.27797e-07
2.82344e-22 -0.0169272 0.000866359 4.8479e-05
0 -0.0168736 0.00168495 1.84202e-05
1.35525e-20 0.0168736 0.00168495 1.15373e-08
0 0.0164548 0.00427999 1.01461e-08
0 -0.0164549 0.00428004 1.16642e-05
1.41172e-22 0.0168849 0.00243443 4.36599e-09
-4.23516e-22 -0.0168849 0.00243444 1.14303e-05
-6.77626e-21 -0.0164962 0.00455767 1.25248e-05
6.77626e-21 0.0164963 0.00455763 9.79081e-09
5.64689e-22 0.0168359 0.00316003 1.63759e-09
0 -0.0168359 0.00316005 7.14835e-06
2.03288e-20 -0.0171338 1.74503e-16 8.74278e-05
0 0.0171342 1.75422e-16 3.1635e-07
-5.42101e-20 -0.0170775 0.00142438 2.28106e-05
-2.71051e-20 0.0170775 0.00142436 1.89253e-08
0 -0.0171371 0.000271939 8.93151e-05
-8.13152e-21 0.0171374 0.000272002 3.12435e-07
-2.71051e-20 -0.0170666 0.00192551 1.71155e-05
-2.71051e-20 0.0170666 0.00192552 9.43161e-09
0 0.0167863 0.00388665 4.13511e-09
1.12938e-21 -0.0167864 0.00388666 7.85322e-06
0 0.0166207 0.00463877 9.59773e-09
1.35525e-20 -0.0166207 0.00463882 1.2855e-05
-2.71051e-20 0.0166524 0.00459992 9.71984e-09
1.35525e-20 -0.0166524 0.00459996 1.2924e-05
0 0.0166794 0.00467712 1.05381e-08
1.35525e-20 -0.0166795 0.00467717 1.36555e-05
4.70574e-23 0.0168452 0.00433528 7.6045e-09
-1.8823e-22 -0.0168452 0.00433533 1.08457e-05
0 0.0171764 0.00277493 2.70807e-09
2.71051e-20 -0.0171764 0.00277494 1.11401e-05
0 0.0174301 3.02821e-16 2.88869e-07
-1.35525e-20 -0.0174308 3.00143e-16 9.38787e-05
0 0.0168042 0.00464355 1.15005e-08
1.35525e-20 -0.0168042 0.0046436 1.46432e-05
-6.77626e-21 0.0167886 0.00474831 1.18956e-08
-1.35525e-20 -0.0167887 0.00474841 1.51708e-05
-6.77626e-21 0.017449 0.000139075 2.8523e-07
0 -0.0174496 0.000138384 9.4165e-05
0 0.0171294 0.00350658 1.05823e-09
-5.42101e-20 -0.0171294 0.00350658 6.24924e-06
6.77626e-21 0.0175668 -2.95376e-17 2.56476e-07
-6.77626e-21 -0.0175669 -2.94894e-17 9.13111e-05
-1.55289e-21 -0.0175583 0.000896637 6.67203e-05
8.47033e-22 0.0175583 0.000896566 1.45573e-07
4.23516e-22 0.0175189 0.00167533 2.02067e-08
-5.64689e-22 -0.0175189 0.00167527 2.65116e-05
0 -0.0176062 4.62633e-05 9.22492e-05
0 0.0176064 4.65549e-05 2.71024e-07
0 -0.0176089 -8.34911e-18 9.23192e-05
-6.77626e-21 0.0176091 -8.34566e-18 2.70787e-07
-5.42101e-20 0.0171399 0.00413685 2.07657e-09
2.71051e-20 -0.01714 0.00413687 6.22687e-06
0 -0.0176343 -4.66438e-18 9.39715e-05
6.77626e-21 0.0176347 -4.59267e-18 2.58535e-07
2.71051e-20 0.0170445 0.00462908 1.17073e-08
-2.71051e-20 -0.0170446 0.00462915 1.56628e-05
5.64689e-22 0.0175376 0.00228764 7.14901e-09
5.64689e-22 -0.0175376 0.00228764 1.70639e-05
1.35525e-20 0.0170023 0.00488776 1.31256e-08
1.35525e-20 -0.0170024 0.00488785 1.66056e-05
0 -0.0176972 4.73616e-05 9.86022e-05
0 0.017698 4.76654e-05 2.44031e-07
0 -0.0177005 -1.62469e-17 9.85946e-05
6.77626e-21 0.0177013 -1.6206e-17 2.44075e-07
9.03502e-22 0.0174646 0.00310785 2.67838e-09
1.91994e-21 -0.0174646 0.00310784 1.03407e-05
0 0.0171112 0.00481659 1.31524e-08
-1.35525e-20 -0.0171113 0.00481669 1.65547e-05
0 0.0171346 0.00497401 1.29797e-08
1.35525e-20 -0.0171347 0.00497414 1.60793e-05
-4.51751e-21 0.0174342 0.00383429 1.50988e-09
1.12938e-21 -0.0174342 0.0038343 7.25915e-06
-2.71051e-20 0.0172171 0.00502787 1.30031e-08
-1.35525e-20 -0.0172173 0.005028 1.57787e-05
1.35525e-20 0.0172554 0.00493142 1.30473e-08
0 -0.0172556 0.00493155 1.59015e-05
-3.76459e-22 0.0174076 0.00453333 8.03236e-09
-1.69407e-21 -0.0174076 0.00453337 1.22798e-05
-2.71051e-20 0.0177905 0.00276845 4.16749e-09
2.71051e-20 -0.0177905 0.00276845 1.21964e-05
0 0.0177573 0.00348298 1.32973e-09
-2.71051e-20 -0.0177574 0.003483 9.46748e-06
-6.77626e-21 0.017378 0.00513278 1.29256e-08
6.77626e-21 -0.0173781 0.00513291 1.66779e-05
0 0.0174497 0.00517959 1.32567e-08
6.77626e-21 -0.0174498 0.00517965 1.67435e-05
0 0.0177264 0.00417356 1.52851e-09
-2.71051e-20 -0.0177264 0.00417357 7.28417e-06
6.77626e-21 0.0175029 0.00510088 1.34845e-08
0 -0.0175029 0.005101 1.67333e-05
5.42101e-20 -0.0181611 0.00171797 3.54359e-05
0 0.0181612 0.00171798 1.63099e-08
6.77626e-21 -0.0175201 0.0052255 1.80716e-05
1.35525e-20 0.0175201 0.00522553 1.32993e-08
-5.42101e-20 -0.0182822 0.000515621 0.00012886
0 0.0182823 0.000515628 1.30491e-07
1.05879e-22 0.0181327 0.00240414 7.22452e-09
-1.2282e-20 -0.0181332 0.00240535 2.16436e-05
-1.05879e-21 -0.0181316 0.00242435 2.14286e-05
1.05879e-22 0.0181316 0.0024249 7.10482e-09
-3.01167e-21 0.0176138 0.0049468 1.31965e-08
0 -0.0176139 0.00494683 1.61669e-05
0 0.0180947 0.00311468 2.97913e-09
0 -0.0180947 0.00311469 1.37137e-05
0 0.0180563 0.00382343 1.35578e-09
2.25875e-21 -0.0180564 0.00382344 9.43201e-06
0 -0.0177083 0.00534827 2.07563e-05
0 0.0177083 0.00534827 1.30081e-08
0 -0.0177632 0.00528867 2.10117e-05
0 0.0177632 0.00528872 1.32907e-08
-4.51751e-21 0.0179883 0.0045481 5.04492e-09
-2.25875e-21 -0.0179884 0.00454809 1.20526e-05
2.71051e-20 0.0178024 0.00540967 1.49863e-08
2.71051e-20 -0.0178025 0.0054097 2.27668e-05
2.71051e-20 -0.0184402 0.00274762 2.22653e-05
0 0.0184402 0.00274761 4.74704e-09
2.25875e-21 0.0180053 0.00502464 1.0521e-08
-1.807e-21 -0.0180053 0.00502466 1.86649e-05
0 0.0183918 0.00345434 1.68479e-09
2.71051e-20 -0.0183918 0.00345433 1.11116e-05
6.77626e-21 0.0179451 0.00550277 1.79562e-08
6.77626e-21 -0.0179453 0.00550285 2.72409e-05
-2.71051e-20 0.0183611 0.00415361 8.92039e-10
0 -0.0183611 0.00415361 9.87291e-06
0 0.0188421 7.04156e-05 1.25679e-07
-1.35525e-20 -0.0188422 7.03634e-05 0.000138126
0 0.0188477 1.10464e-18 1.2568e-07
0 -0.0188477 1.06275e-18 0.000138136
1.12938e-21 -0.0188602 0.00112833 9.60307e-05
4.51751e-21 0.0188602 0.00112834 7.21383e-08
-6.77626e-21 -0.0180592 0.00557717 2.85365e-05
1.35525e-20 0.0180593 0.00557723 1.8269e-08
0 0.0181347 0.00538311 1.73213e-08
-4.51751e-21 -0.0181348 0.00538307 2.74187e-05
-1.35525e-20 -0.018942 6.21258e-19 0.000139928
-1.35525e-20 0.018942 6.17799e-19 1.25451e-07
-1.12938e-21 -0.0188166 0.00228404 3.41345e-05
-4.51751e-21 0.0188167 0.00228404 9.49164e-09
0 0.0183535 0.00480356 2.42603e-09
0 -0.0183536 0.00480356 1.255e-05
-5.64689e-22 -0.0187311 0.00307208 2.00605e-05
-1.41172e-22 0.0187311 0.00307209 3.72501e-09
0 -0.0190249 8.52317e-05 0.000142787
1.35525e-20 0.019025 8.52886e-05 1.25225e-07
0 -0.0190315 5.66653e-19 0.000142822
1.35525e-20 0.0190316 5.63374e-19 1.25208e-07
-1.35525e-20 -0.0182205 0.00568238 2.7566e-05
-1.35525e-20 0.0182205 0.00568238 1.70958e-08
-4.5881e-22 0.0187398 0.00374577 1.50733e-09
-1.76465e-22 -0.0187398 0.00374577 1.48386e-05
-1.12938e-21 0.0186713 0.00447942 1.30612e-09
-1.12938e-21 -0.0186713 0.00447942 1.38162e-05
-1.35525e-20 0.0183608 0.00577389 1.82343e-08
6.77626e-21 -0.0183608 0.00577392 2.85385e-05
1.35525e-20 0.018471 0.00561106 1.74356e-08
1.6263e-20 -0.018471 0.00561103 2.78119e-05
3.61401e-21 -0.0186129 0.00519728 2.12924e-05
2.71051e-21 0.0186129 0.00519728 8.50338e-09
0 -0.0191646 0.00284903 2.52892e-05
-2.71051e-20 0.0191646 0.00284904 4.89291e-09
-6.77626e-21 -0.0184854 0.00585516 2.86496e-05
1.35525e-20 0.0184855 0.00585524 1.76943e-08
2.71051e-20 0.0191555 0.0033016 2.53321e-09
-2.71051e-20 -0.0191555 0.00330159 2.33318e-05
-2.71051e-20 -0.0190101 0.00412452 1.64763e-05
-2.71051e-20 0.0190101 0.00412452 9.1287e-10
0 -0.0185922 0.00576694 2.84403e-05
0 0.0185922 0.00576709 1.69151e-08
0 -0.0186006 0.00593031 2.79618e-05
1.35525e-20 0.0186007 0.00593035 1.48268e-08
0 -0.0195235 0.000571337 0.000152084
0 0.0195235 0.000571339 1.20853e-07
-5.42101e-20 -0.0194631 0.0017685 6.37596e-05
0 0.0194631 0.0017685 1.62343e-08
1.69407e-21 -0.0194127 0.0024132 3.90299e-05
0 0.0194127 0.00241321 8.61717e-09
0 -0.0189749 0.00481043 1.64803e-05
-2.71051e-20 0.0189749 0.00481044 9.68193e-10
0 -0.0193686 0.00306998 2.61141e-05
0 0.0193686 0.00306998 3.79963e-09
-4.51751e-21 -0.0188275 0.00563325 2.57393e-05
1.50584e-21 0.0188275 0.00563327 1.15166e-08
2.03288e-20 0.0187165 0.00600599 1.54887e-08
-6.77626e-21 -0.0187166 0.00600601 3.11287e-05
1.35525e-20 0.018758 0.00590207 1.53078e-08
0 -0.0187581 0.00590201 3.02272e-05
-1.27055e-21 0.0193727 0.00376105 1.63937e-09
8.47033e-22 -0.0193727 0.00376105 2.35156e-05
-2.71051e-20 -0.0190128 0.00540896 1.9471e-05
-2.71051e-20 0.0190128 0.00540898 2.8523e-09
0 -0.0195979 0.00284199 3.08998e-05
0 0.0195979 0.00284199 4.95282e-09
-2.25875e-21 -0.0193152 0.00445137 2.08245e-05
-2.25875e-21 0.0193152 0.00445138 9.35234e-10
0 -0.0189326 0.00587663 3.06127e-05
0 0.0189326 0.00587667 1.43555e-08
6.77626e-21 -0.0188663 0.00610385 3.25851e-05
-2.71051e-20 0.0188665 0.006104 1.60979e-08
5.42101e-20 -0.0195614 0.00328798 2.65647e-05
2.71051e-20 0.0195614 0.00328799 2.81757e-09
0 -0.0189889 0.00604035 3.23481e-05
-2.71051e-20 0.0189891 0.00604056 1.62129e-08
0 -0.0192967 0.00511377 2.07209e-05
2.25875e-21 0.0192967 0.00511379 1.6163e-09
0 -0.0190006 0.00619146 3.04873e-05
1.35525e-20 0.0190007 0.00619154 1.5924e-08
0 0.0200621 6.76767e-05 1.16934e-07
-1.35525e-20 -0.0200621 6.76484e-05 0.000152405
-1.35525e-20 0.020064 4.17066e-20 1.16947e-07
-1.35525e-20 -0.020064 4.17839e-20 0.000152402
0 0.0196641 0.0040803 1.1238e-09
0 -0.0196641 0.0040803 2.59464e-05
0 -0.0190835 0.00626078 2.92273e-05
-1.35525e-20 0.0190836 0.0062608 1.60609e-08
0 -0.0191312 0.00616555 2.97099e-05
1.35525e-20 0.0191312 0.00616565 1.61576e-08
-6.77626e-21 0.0201001 0.00115692 6.69516e-08
1.12938e-21 -0.0201001 0.00115692 0.000112988
0 0.020134 -1.86019e-22 1.16353e-07
0 -0.020134 -2.64365e-22 0.00015232
1.8823e-21 -0.0192828 0.00579514 2.73877e-05
1.8823e-21 0.0192828 0.00579515 9.96805e-09
0 -0.0196202 0.00477317 2.4428e-05
0 0.0196202 0.00477318 7.44865e-10
0 -0.0201991 6.47227e-05 0.000152842
0 0.0201991 6.47462e-05 1.14178e-07
0 -0.020202 -1.30738e-21 0.000152847
0 0.020202 -1.26102e-21 1.14145e-07
-1.12938e-21 0.0200841 0.00236289 1.01441e-08
2.25875e-21 -0.0200841 0.00236289 5.49487e-05
2.82344e-22 0.0200029 0.003057 4.00226e-09
1.41172e-22 -0.0200038 0.00305581 3.65151e-05
-1.35525e-20 0.0192378 0.00638357 1.61673e-08
-1.35525e-20 -0.0192378 0.00638366 3.41171e-05
0 -0.0195958 0.00544032 2.28122e-05
5.42101e-20 0.0195959 0.00544034 1.77021e-09
0 -0.0193039 0.00643681 3.4819e-05
0 0.0193041 0.00643685 1.67784e-08
0 0.0200275 0.00361572 2.1667e-09
-5.64689e-22 -0.0200275 0.00361572 3.61859e-05
6.77626e-21 -0.0193634 0.00636556 3.48116e-05
0 0.0193636 0.00636543 1.71673e-08
0 -0.0193735 0.00649738 3.59551e-05
0 0.0193738 0.00649756 1.62958e-08
-1.01644e-21 -0.01996 0.00438812 3.46783e-05
1.01644e-21 0.01996 0.00438813 1.10907e-09
0 -0.0194904 0.00622237 3.40828e-05
0 0.0194905 0.00622241 1.70216e-08
2.25875e-21 -0.019924 0.00509886 3.01677e-05
0 0.019924 0.00509886 1.0191e-09
0 -0.0195415 0.00664813 4.11097e-05
-1.35525e-20 0.0195417 0.00664818 1.5309e-08
0 0.0202851 0.004065 1.4663e-09
-2.71051e-20 -0.0202851 0.004065 4.48605e-05
-2.25875e-21 -0.0198605 0.00581199 3.02222e-05
2.25875e-21 0.0198605 0.00581203 6.17763e-09
2.71051e-20 -0.0196164 0.00659812 4.0868e-05
-1.35525e-20 0.0196165 0.00659819 1.56113e-08
0 0.0207232 0.000580771 1.102e-07
5.42101e-20 -0.0207232 0.000580775 0.000153177
0 -0.0196177 0.00671647 4.03537e-05
0 0.0196179 0.00671645 1.69267e-08
-5.42101e-20 0.020698 0.00176856 1.68209e-08
0 -0.020698 0.00176856 8.0327e-05
2.71051e-20 0.020263 0.00474092 7.57732e-10
2.71051e-20 -0.020263 0.00474092 4.27417e-05
0 -0.0196919 0.00678279 3.76193e-05
0 0.019692 0.0067827 1.48069e-08
0 -0.0197373 0.00670394 3.79503e-05
-2.71051e-20 0.0197374 0.00670392 1.51723e-08
-5.42101e-20 0.0206519 0.00305779 4.12708e-09
-5.42101e-20 -0.0206519 0.0030578 5.39364e-05
-2.42009e-22 -0.0199196 0.00639126 3.64396e-05
0 0.0199197 0.00639124 1.15849e-08
0 -0.0202264 0.00542436 3.10339e-05
-2.71051e-20 0.0202264 0.00542437 7.90107e-10
0 0.0206219 0.00374923 2.14717e-09
0 -0.0206228 0.00375111 5.35968e-05
-1.35525e-20 0.0198641 0.00693674 1.44147e-08
1.35525e-20 -0.0198641 0.00693696 4.01413e-05
0 0.0205958 0.00438945 1.22583e-09
0 -0.0205958 0.00438945 5.22218e-05
2.71051e-20 -0.0202261 0.00606702 3.03512e-05
2.71051e-20 0.0202262 0.00606702 2.2061e-09
-6.77626e-21 -0.019943 0.00700755 4.01103e-05
-6.77626e-21 0.0199432 0.00700748 1.42563e-08
-6.77626e-21 -0.0200066 0.00693929 4.00161e-05
6.77626e-21 0.0200069 0.00693907 1.46308e-08
0 -0.0205707 0.00506212 4.67139e-05
0 0.0205707 0.00506212 8.01965e-10
6.77626e-21 -0.0200222 0.00707844 4.07465e-05
6.77626e-21 0.0200226 0.00707852 1.39435e-08
0 -0.0201294 0.00680929 3.94729e-05
-1.50584e-21 0.0201295 0.00680925 1.4508e-08
0 0.0212882 4.76335e-05 1.138e-07
0 -0.0212882 4.76249e-05 0.000149696
0 0.0212888 7.24532e-22 1.13776e-07
-6.77626e-21 -0.0212888 7.03329e-22 0.000149704
0 -0.0209335 0.00403737 6.17695e-05
0 0.0209335 0.00403737 1.69135e-09
0 -0.0205488 0.00572803 3.82288e-05
0 0.0205489 0.00572802 1.13269e-09
-6.77626e-21 -0.0213388 -2.81944e-23 0.000149356
0 0.0213388 -2.94246e-23 1.15059e-07
1.12938e-21 0.0213183 0.00116254 6.62403e-08
-3.38813e-21 -0.0213183 0.00116254 0.000121933
0 -0.0213864 4.64669e-05 0.000149298
-6.77626e-21 0.0213864 4.6476e-05 1.14081e-07
-6.77626e-21 -0.0213874 -2.6147e-23 0.000149299
-6.77626e-21 0.0213874 -2.73181e-23 1.14072e-07
-2.71051e-20 0.0208978 0.00471075 9.88227e-10
-2.71051e-20 -0.0208978 0.00471075 5.94402e-05
-5.64689e-22 0.0212954 0.00239197 1.10204e-08
0 -0.0212954 0.00239197 8.70516e-05
2.71051e-20 -0.0201947 0.00723274 4.39055e-05
1.35525e-20 0.020195 0.00723268 1.34483e-08
-2.25875e-21 -0.0204968 0.00642258 3.78862e-05
-9.03502e-21 0.0204969 0.00642257 5.68527e-09
1.35525e-20 -0.0202705 0.00718367 4.36217e-05
-1.35525e-20 0.0202707 0.00718366 1.37251e-08
2.71051e-20 -0.0202683 0.00729857 4.29996e-05
-2.71051e-20 0.0202686 0.00729845 1.51344e-08
-2.71051e-20 -0.0208996 0.00536218 5.30801e-05
-2.71051e-20 0.0208996 0.00536217 6.73813e-10
0 -0.0203418 0.00736426 3.95507e-05
2.71051e-20 0.020342 0.00736407 1.3252e-08
-5.64689e-23 0.0213396 0.00363556 2.94843e-09
-5.64689e-23 -0.0213396 0.00363555 7.6405e-05
1.35525e-20 -0.0203851 0.00728766 3.99717e-05
1.35525e-20 0.0203852 0.00728755 1.35584e-08
-9.41148e-22 -0.0212333 0.00436374 6.87722e-05
3.76459e-22 0.0212333 0.00436374 1.50592e-09