# k  POINT_DATA 29169
# x  y  z  k
0.0199996 0 6.27196e-08 8.10718e-10
-0.0199996 0 6.27196e-08 1.35245e-06
0.0199996 0 0.000164442 8.29699e-10
-0.0199996 0 0.00016442 1.37774e-06
0.0199996 6.77626e-21 0.000494346 9.17355e-10
-0.0199996 -3.38813e-21 0.000494294 1.57436e-06
0.0199996 -6.77626e-21 0.000661321 9.966e-10
-0.0199996 6.77626e-21 0.000661243 1.7608e-06
-0.0199996 6.77626e-21 0.000837166 2.03056e-06
0.0199996 -3.38813e-21 0.000837249 1.11977e-09
-0.0199996 6.77626e-21 0.0011807 2.12053e-06
0.0199996 3.38813e-21 0.00118076 1.20015e-09
-0.0199996 0 0.00135636 1.95092e-06
0.0199996 -6.77626e-21 0.00135644 1.17011e-09
-0.0199996 -3.38813e-21 0.00154016 1.87999e-06
0.0199996 -3.38813e-21 0.00154025 1.18684e-09
0.0200767 0 6.659e-05 8.01256e-10
-0.0200767 0 6.65901e-05 1.3401e-06
-0.0200781 0 6.52655e-08 1.34017e-06
0.0200781 0 6.52657e-08 8.01312e-10
0.0200799 -6.77626e-21 0.000590246 9.40291e-10
-0.0200799 0 0.000590204 1.65304e-06
-0.0200759 0 0.000728756 1.84847e-06
0.0200759 6.77626e-21 0.000728801 1.0273e-09
-0.0199996 -3.38813e-21 0.00190617 2.04225e-06
0.0199996 -3.38813e-21 0.00190619 1.33228e-09
0.0199996 -6.77626e-21 0.002087 1.53282e-09
-0.0199996 6.77626e-21 0.002087 2.35672e-06
-0.0200757 -6.77626e-21 0.00127189 1.99103e-06
0.0200757 -6.77626e-21 0.00127193 1.15453e-09
-0.0200724 6.77626e-21 0.00141167 1.88672e-06
0.0200724 1.35525e-20 0.00141172 1.1504e-09
-0.0201349 4.06576e-20 6.62424e-08 1.66635e-06
0.0201349 0 6.62432e-08 1.29509e-09
-0.0201347 -1.35525e-20 0.00065509 1.77001e-06
0.0201347 0 0.000655092 1.14867e-09
-0.0200697 6.77626e-21 0.00197791 2.13537e-06
0.0200697 6.77626e-21 0.00197791 1.37487e-09
-0.0201289 -2.03288e-20 0.00132685 1.69791e-06
0.0201289 2.71051e-20 0.00132685 9.95024e-10
-0.0200872 0 0.00211021 2.26859e-06
0.0200872 6.77626e-21 0.00211021 1.49689e-09
-0.0201043 0 0.00206082 2.24509e-06
0.0201043 0 0.00206081 1.4609e-09
0.0201292 0 0.00199355 1.27917e-09
-0.0201291 -6.77626e-21 0.00199358 2.01891e-06
-0.0201574 0 0.00212882 2.47389e-06
0.0201575 -6.77626e-21 0.00212883 1.65515e-09
-0.020211 6.77626e-21 0.00203552 2.38016e-06
0.020211 -6.77626e-21 0.0020355 1.40869e-09
0.0203752 1.69407e-20 7.14249e-08 9.13709e-10
-0.0203752 -1.35525e-20 7.14223e-08 1.34629e-06
0.0203552 6.77626e-22 0.000964574 1.04417e-09
-0.0203552 0 0.000964653 1.87285e-06
-0.0203848 -1.807e-21 0.00031854 1.41311e-06
0.0203848 4.51751e-22 0.000318497 1.01845e-09
0.0203485 1.8823e-22 0.00158862 9.38014e-10
-0.0203485 -9.41148e-22 0.00158869 1.47913e-06
-0.0204541 -5.0822e-21 7.18949e-08 1.82478e-06
0.0204542 1.69407e-21 7.18988e-08 1.65138e-09
0.0203479 3.38813e-21 0.0020921 1.40714e-09
-0.0203479 -6.77626e-21 0.00209212 2.61936e-06
-0.0203454 0 0.00217864 2.75705e-06
0.0203454 -1.35525e-20 0.00217865 1.59363e-09
0.0204014 0 0.00198909 1.46508e-09
-0.0204014 -1.35525e-20 0.00198912 2.6571e-06
0.0204481 -5.42101e-20 0.00220585 2.22422e-09
-0.0204481 -2.71051e-20 0.00220584 3.21237e-06
-0.0206171 6.77626e-21 7.35947e-08 3.15857e-06
0.0206171 -6.77626e-21 7.35999e-08 3.65893e-09
0.0206345 2.25875e-21 0.00124186 9.05207e-10
-0.0206345 -2.25875e-21 0.00124198 1.54678e-06
0.0206729 0 7.48669e-08 3.60286e-09
-0.0206729 6.77626e-21 7.48621e-08 3.12366e-06
0.0206741 6.77626e-21 7.00031e-05 3.59727e-09
-0.0206742 6.77626e-21 7.0039e-05 3.11999e-06
0.0206667 4.51751e-21 0.000657407 2.07165e-09
-0.0206667 -7.90564e-21 0.000657517 2.30099e-06
0.0206275 1.35525e-21 0.0016945 1.08743e-09
-0.0206275 -4.06576e-21 0.00169457 1.80581e-06
0.0205976 0 0.00224546 2.50646e-09
-0.0205976 -1.35525e-20 0.00224545 3.91522e-06
0.020822 6.77626e-21 8.13398e-08 4.40249e-09
-0.0208222 0 8.13398e-08 3.86627e-06
-0.0208462 1.35525e-20 0.000330944 4.07564e-06
0.0208462 0 0.000330924 5.16631e-09
0.0208502 2.71051e-20 0.000953835 1.32995e-09
-0.0208502 -1.35525e-20 0.000953873 2.11622e-06
0.0208443 -1.35525e-20 0.00153528 1.03851e-09
-0.0208443 2.71051e-20 0.00153531 1.62452e-06
0.0208065 -1.41172e-21 0.00198301 2.43702e-09
-0.0208065 2.82344e-22 0.00198302 4.03662e-06
0.0209014 -6.77626e-21 0.00232595 3.38451e-09
-0.0209014 6.77626e-21 0.00232594 4.38963e-06
0.0210643 -1.35525e-20 9.1532e-05 6.10177e-09
-0.0210643 0 9.15048e-05 5.14027e-06
0.021067 1.35525e-20 7.81651e-08 6.04618e-09
-0.021067 0 7.81689e-08 5.11305e-06
-0.0209629 4.06576e-20 0.00234223 4.3782e-06
0.0209629 -6.77626e-21 0.00234225 3.59355e-09
-0.0210006 -6.77626e-21 0.00235224 4.49344e-06
0.0210006 0 0.00235226 3.71478e-09
-0.0211368 1.35525e-20 7.77042e-08 5.41359e-06
0.0211368 0 7.76997e-08 5.87866e-09
-0.021129 -9.03502e-21 0.00122302 1.18967e-06
0.021129 -4.51751e-21 0.00122304 7.89065e-10
-0.0211316 -1.16165e-20 0.00168768 1.71881e-06
0.0211316 -5.80823e-21 0.00168768 1.18463e-09
-0.0210928 -3.38813e-21 0.00225831 4.51718e-06
0.0210928 3.38813e-21 0.0022583 3.73163e-09
-0.0212074 -2.25875e-21 0.000639305 3.57138e-06
0.0212074 4.51751e-21 0.000639333 3.75128e-09
-0.0212432 1.35525e-20 6.9493e-08 6.02086e-06
0.0212432 0 6.94858e-08 6.52751e-09
-0.0212484 0 0.000106497 6.08012e-06
0.0212484 -6.77626e-21 0.000106548 6.59429e-09
-0.0211906 0 0.00240258 4.68509e-06
0.0211906 0 0.00240261 4.2063e-09
0.0213439 5.64689e-21 0.0020251 3.42388e-09
-0.0213439 -4.51751e-21 0.00202507 4.10926e-06
-0.021371 0 0.00245037 4.94338e-06
0.021371 -6.77626e-21 0.00245038 4.75048e-09
-0.0213837 0 0.00242601 4.91871e-06
0.0213837 0 0.00242602 4.71791e-09
-0.0214676 -6.77626e-21 0.00151459 9.87893e-07
0.0214676 -9.03502e-21 0.00151465 7.24025e-10
-0.0215176 1.35525e-20 0.000962569 1.51592e-06
0.0215177 6.77626e-21 0.000962662 1.40148e-09
-0.0215442 1.0842e-20 0.000394958 6.66752e-06
0.0215442 -5.42101e-21 0.000395018 7.14636e-09
0.0214146 0 0.00239563 4.41944e-09
-0.0214146 0 0.00239562 4.65103e-06
0.0214166 -6.77626e-21 0.00246246 4.67726e-09
-0.0214166 -2.71051e-20 0.00246245 4.99553e-06
0.0216582 1.35525e-20 0.000128741 8.95299e-09
-0.0216582 0 0.000128718 7.93797e-06
0.0216619 -1.35525e-20 1.14562e-08 8.92958e-09
-0.021662 0 1.14549e-08 7.9114e-06
-0.0217415 -2.71051e-20 0.000612322 4.6433e-06
0.0217415 0 0.000612439 4.84729e-09
-0.021737 0 0.00121881 1.05403e-06
0.021737 0 0.00121894 7.75558e-10
0.021641 0 0.0025219 4.75101e-09
-0.021641 0 0.00252189 4.90321e-06
0.02179 1.35525e-20 2.38075e-09 9.30733e-09
-0.02179 1.35525e-20 2.38045e-09 8.35001e-06
-0.02171 -2.71051e-20 0.0018706 2.16354e-06
0.02171 -2.71051e-20 0.00187066 1.6582e-09
0.0216778 1.8823e-21 0.00229009 4.55201e-09
-0.0216778 -3.76459e-22 0.00229005 4.5692e-06
-0.0219185 0 2.30219e-09 9.29818e-06
0.0219185 -1.35525e-20 2.30245e-09 1.08385e-08
-0.0219202 1.35525e-20 0.000137029 9.38777e-06
0.0219202 0 0.000137066 1.09462e-08
-0.0218192 0 0.00256913 4.86342e-06
0.0218192 0 0.00256913 4.23015e-09
-0.0219845 5.42101e-21 0.00039594 9.14483e-06
0.0219845 5.42101e-21 0.000396027 1.0806e-08
0.0219638 0 0.00229016 3.17517e-09
-0.0219638 1.12938e-21 0.00229013 3.6314e-06
-0.022074 0 0.000916488 2.26935e-06
0.022074 -2.25875e-21 0.000916652 2.37723e-09
0.0219561 -1.35525e-20 0.0025286 3.73476e-09
-0.0219561 0 0.00252859 4.43421e-06
-0.0220578 0 0.00154542 1.03282e-06
0.0220578 -2.25875e-21 0.00154554 7.27171e-10
0.0219647 6.77626e-21 0.00260764 3.62595e-09
-0.0219647 -1.35525e-20 0.00260764 4.43955e-06
-0.0220662 4.51751e-21 0.00204922 1.98972e-06
0.0220662 -4.51751e-21 0.00204927 1.52797e-09
0.0222375 -1.35525e-20 0.000149298 1.31786e-08
-0.0222375 0 0.000149261 1.13569e-05
0.0222467 0 3.22502e-09 1.31383e-08
-0.0222467 1.35525e-20 3.22489e-09 1.13272e-05
0.0221408 1.89735e-20 0.00250166 3.71627e-09
-0.0221408 -5.42101e-21 0.00250165 4.62051e-06
-0.0221237 -1.35525e-20 0.00264976 4.76135e-06
0.0221238 0 0.00264976 3.72643e-09
-0.0223263 -1.93608e-20 0.000544368 8.35168e-06
0.0223263 7.7443e-21 0.000544521 9.43704e-09
-0.0223861 1.35525e-20 3.11769e-09 1.16728e-05
0.0223861 1.35525e-20 3.11777e-09 1.28116e-08
-0.0223888 0 0.00123026 1.35637e-06
0.0223888 2.71051e-20 0.00123046 1.14914e-09
-0.0223621 0 0.00189307 2.16769e-06
0.0223621 0 0.00189318 1.68115e-09
0.022297 0 0.00269561 5.22345e-09
-0.022297 1.35525e-20 0.00269561 6.37955e-06
0.0223597 2.11758e-22 0.00232885 3.33111e-09
-0.0223597 7.05861e-23 0.00232881 4.12143e-06
-0.0225373 -1.35525e-20 3.03035e-09 1.23892e-05
0.0225373 0 3.03039e-09 1.30606e-08
-0.0225385 0 0.000146287 1.2382e-05
0.0225385 1.35525e-20 0.000146333 1.30568e-08
-0.0227012 -2.25875e-21 0.000916023 2.99869e-06
0.0227012 6.77626e-21 0.000916234 2.99108e-09
-0.0226844 -4.51751e-21 0.00155903 1.1081e-06
0.0226844 2.25875e-21 0.00155921 8.76783e-10
-0.0227492 -9.03502e-21 0.000352645 1.19092e-05
0.0227492 4.51751e-21 0.000352762 1.20538e-08
0.0226132 -1.2282e-20 0.00277935 5.30034e-09
-0.0226133 1.82112e-20 0.00277937 7.46761e-06
-0.0226206 1.52466e-20 0.00278132 7.49335e-06
0.0226206 -9.74088e-21 0.00278132 5.31288e-09
-0.0227194 6.77626e-21 0.00213973 2.56515e-06
0.0227194 -9.03502e-21 0.00213981 1.89333e-09
-0.0226786 0 0.00257495 6.90051e-06
0.0226786 0 0.00257497 5.13165e-09
-0.0228459 1.35525e-20 3.06872e-09 1.37011e-05
0.0228459 0 3.06855e-09 1.39262e-08
-0.0230054 -2.71051e-20 2.97301e-09 1.40286e-05
0.0230055 2.71051e-20 2.97281e-09 1.43061e-08
-0.0230123 2.71051e-20 0.000601967 8.20927e-06
0.0230123 0 0.000602177 8.23941e-09
-0.023008 0 0.00123165 1.57786e-06
0.023008 0 0.0012319 1.33366e-09
-0.0229679 2.71051e-20 0.00191396 1.98126e-06
0.0229679 5.42101e-20 0.0019141 1.59446e-09
0.0229069 -2.71051e-20 0.00285715 6.7091e-09
-0.0229069 0 0.00285715 7.76195e-06
-0.0230246 -2.71051e-20 0.0024179 4.95919e-06
0.0230246 2.71051e-20 0.00241795 3.99777e-09
-0.0231706 2.71051e-20 2.61999e-09 1.47716e-05
0.0231707 -1.35525e-20 2.6198e-09 1.48253e-08
-0.0232775 -6.77626e-21 0.000961767 3.05126e-06
0.0232775 4.51751e-21 0.000962019 2.82251e-09
-0.0231303 1.35525e-20 0.00291661 9.75533e-06
0.0231303 4.06576e-20 0.00291662 7.19619e-09
-0.0233249 6.77626e-21 0.000300575 1.4026e-05
0.023325 2.25875e-21 0.000300687 1.3984e-08
-0.0233201 0 0.00155413 1.18045e-06
0.0233201 1.12938e-20 0.00155433 9.02525e-10
-0.0233275 4.51751e-21 0.00215862 2.3272e-06
0.0233275 1.58113e-20 0.00215872 1.57865e-09
-0.0232742 1.12938e-21 0.00268392 9.76103e-06
0.0232742 1.807e-21 0.00268395 6.83467e-09
-0.023471 0 1.49916e-09 1.57436e-05
0.023471 0 1.49905e-09 1.5725e-08
0.0233563 -6.77626e-21 0.0029773 7.97873e-09
-0.0233564 -6.77626e-21 0.00297732 9.98405e-06
-0.0236362 -2.71051e-20 1.14287e-09 1.573e-05
0.0236362 -2.71051e-20 1.14277e-09 1.59713e-08
-0.0236942 -6.77626e-21 0.000643529 8.49921e-06
0.0236943 0 0.000643725 8.39764e-09
-0.0235255 -5.42101e-20 0.00302244 9.56007e-06
0.0235255 1.35525e-20 0.00302244 8.57113e-09
-0.0236289 2.71051e-20 0.00246429 5.17504e-06
0.0236289 0 0.00246434 4.19734e-09
-0.0237458 -4.51751e-21 0.00121852 1.91541e-06
0.0237458 -4.51751e-21 0.00121876 1.57202e-09
0.023712 3.67854e-20 0.00179082 8.40729e-10
-0.023712 1.54886e-20 0.00179064 1.23732e-06
-0.0238007 1.35525e-20 1.02427e-09 1.62452e-05
0.0238007 1.35525e-20 1.02417e-09 1.63919e-08
-0.0236242 0 0.00304884 1.03587e-05
0.0236242 0 0.00304886 9.76381e-09
-0.0238637 8.13152e-21 0.000205193 1.6352e-05
0.0238637 1.0842e-20 0.000205258 1.64198e-08
0.0238647 0 0.00216536 1.63766e-09
-0.0238648 9.03502e-21 0.00216526 2.0988e-06
-0.0239679 -2.71051e-20 0.000897771 2.90947e-06
0.023968 0 0.00089799 2.46394e-09
-0.0239683 0 0.00153338 1.06163e-06
0.0239683 0 0.00153358 7.62213e-10
-0.0238625 -5.29396e-23 0.00276289 1.10504e-05
0.0238638 5.29396e-23 0.00276308 1.08835e-08
-0.0238739 -4.23516e-21 0.00276895 1.10571e-05
0.0238718 5.82335e-21 0.00276533 1.09368e-08
0.024114 0 6.40638e-10 1.65842e-08
-0.024114 0 6.40703e-10 1.68972e-05
-0.0241188 2.71051e-20 0.000144133 1.68872e-05
0.0241188 0 0.000144175 1.65735e-08
0.023916 0 0.00312792 1.05345e-08
-0.0239161 0 0.00312794 9.87287e-06
-0.0239647 0 0.00314097 9.53571e-06
0.0239647 0 0.00314096 1.03064e-08
-0.0242749 0 5.21808e-10 1.6604e-05
0.0242749 0 5.21745e-10 1.63138e-08
-0.0242836 -4.51751e-21 0.000580904 1.01359e-05
0.0242836 2.25875e-21 0.000581052 9.60085e-09
-0.0242888 0 0.00120234 2.21296e-06
0.0242889 1.12938e-20 0.00120253 1.74987e-09
-0.0242868 -9.03502e-21 0.00186197 1.48469e-06
0.0242869 0 0.00186211 9.50989e-10
-0.0241659 0 0.003195 8.01782e-06
0.0241661 1.69407e-21 0.00319503 9.85938e-09
0.0241862 4.23516e-22 0.00320043 9.80247e-09
-0.0241863 -4.23516e-22 0.00320044 7.89417e-06
0.0241881 5.50571e-21 0.00319265 9.8064e-09
-0.0241882 0 0.0031926 7.87226e-06
-0.0244313 2.71051e-20 0.000134539 1.70294e-05
0.0244313 0 0.00013457 1.61235e-08
-0.0244331 0 4.67599e-10 1.70417e-05
0.0244331 0 4.67535e-10 1.6125e-08
-0.0243349 2.25875e-21 0.00249839 4.33806e-06
0.0243349 -4.51751e-21 0.00249847 3.94301e-09
0.0242974 4.51751e-21 0.0029262 8.96417e-09
-0.0242974 0 0.00292619 7.6234e-06
-0.0243695 6.77626e-21 0.00315162 7.86604e-06
0.0243695 0 0.00315166 8.83696e-09
-0.0246008 -2.71051e-20 0.000284661 1.73213e-05
0.0246009 0 0.000284725 1.61872e-08
-0.0243971 -6.77626e-21 0.00325796 8.19692e-06
0.0243971 -6.77626e-21 0.00325796 8.47309e-09
-0.0246107 -2.71051e-20 0.000878458 3.36423e-06
0.0246107 2.71051e-20 0.000878612 2.76596e-09
-0.0246166 -2.71051e-20 0.00151509 1.43649e-06
0.0246166 0 0.00151523 9.36832e-10
0.0244715 -6.77626e-21 0.00314417 7.6871e-09
-0.0244715 0 0.00314413 7.35661e-06
0.024504 -6.77626e-21 0.00290416 6.77427e-09
-0.024504 -3.38813e-21 0.00290416 6.62107e-06
0.024478 -6.77626e-21 0.00323287 7.92181e-09
-0.024478 6.77626e-21 0.00323286 7.85238e-06
0.0244844 6.77626e-21 0.00328126 7.71908e-09
-0.0244844 0 0.00328126 7.84717e-06
-0.0246093 0 0.00219408 1.75981e-06
0.0246093 -5.42101e-20 0.00219416 8.59099e-10
-0.0247622 -1.35525e-20 2.5336e-10 1.7577e-05
0.0247622 0 2.5332e-10 1.62053e-08
-0.0247664 1.35525e-20 0.000132487 1.75746e-05
0.0247664 2.71051e-20 0.000132517 1.62053e-08
0.0246224 -2.03288e-20 0.00297464 6.57539e-09
-0.0246224 -6.77626e-21 0.00297462 6.70282e-06
-0.0249174 0 1.99007e-10 1.71724e-05
0.0249175 1.35525e-20 1.98966e-10 1.65658e-08
0.0247048 1.35525e-20 0.00334016 6.86284e-09
-0.0247048 0 0.00334016 7.86908e-06
-0.0249272 2.25875e-21 0.00056588 1.07679e-05
0.0249272 1.12938e-20 0.000565967 9.91714e-09
-0.0249353 9.03502e-21 0.00118332 2.69785e-06
0.0249353 2.25875e-21 0.00118344 2.29554e-09
0.0247708 -1.35525e-20 0.00325092 7.01375e-09
-0.0247708 -1.35525e-20 0.00325093 7.88901e-06
-0.0249332 -4.51751e-21 0.0018542 1.84555e-06
0.0249332 0 0.00185429 9.72638e-10
-0.0249124 1.12938e-20 0.00254742 3.43962e-06
0.0249124 1.12938e-20 0.00254746 2.64018e-09
-0.02507 0 0.000129685 1.76891e-05
0.02507 0 0.000129701 1.57152e-08
-0.0250722 0 1.71469e-10 1.76955e-05
0.0250723 0 1.71434e-10 1.57022e-08
0.0248681 0 0.00338376 8.91178e-09
-0.0248681 -5.42101e-20 0.00338375 9.52448e-06
-0.024966 -1.807e-21 0.00300203 6.1797e-06
0.024966 -1.807e-21 0.00300205 5.49192e-09
-0.0252401 -2.71051e-20 0.000277338 1.79232e-05
0.0252401 0 0.000277376 1.57406e-08
-0.0252519 0 0.000862008 3.84909e-06
0.0252519 0 0.000862093 3.88463e-09
-0.0252581 2.71051e-20 0.0015011 1.99031e-06
0.0252581 0 0.00150118 1.32498e-09
-0.025094 0 0.00344393 1.03318e-05
0.025094 2.03288e-20 0.00344395 9.21188e-09
-0.0252522 0 0.00218233 2.16103e-06
0.0252522 -5.42101e-20 0.00218237 7.36409e-10
-0.0253959 0 6.82351e-11 1.80802e-05
0.0253959 0 6.82188e-11 1.56954e-08
-0.0254017 -1.35525e-20 0.000130113 1.80834e-05
0.0254017 -1.35525e-20 0.000130131 1.57083e-08
-0.0252838 0 0.00277254 2.6221e-06
0.0252839 0 0.00277257 1.41369e-09
-0.0252273 0 0.00330818 1.00176e-05
0.0252273 0 0.00330821 8.91822e-09
-0.0252595 6.77626e-21 0.00348812 1.08466e-05
0.0252596 6.77626e-21 0.00348815 9.59477e-09
-0.0255539 0 4.13675e-11 1.76548e-05
0.0255539 2.71051e-20 4.13565e-11 1.66123e-08
-0.0255655 -2.25875e-21 0.000552596 1.14477e-05
0.0255655 2.25875e-21 0.000552632 1.045e-08
-0.0255758 2.25875e-21 0.00116683 3.42614e-06
0.0255758 -4.51751e-21 0.00116688 3.12356e-09
-0.0255762 -2.25875e-21 0.00183976 2.51406e-06
0.0255763 0 0.0018398 1.26181e-09
-0.0255827 -2.25875e-21 0.00249854 2.72592e-06
0.0255827 -4.51751e-21 0.00249856 1.18867e-09
-0.0257081 1.35525e-20 0.000131339 1.82681e-05
0.0257081 2.71051e-20 0.000131348 1.56769e-08
-0.0257119 -2.71051e-20 3.51853e-11 1.82708e-05
0.0257119 0 3.51759e-11 1.56545e-08
-0.0254803 -1.35525e-20 0.00354694 1.07708e-05
0.0254804 1.35525e-20 0.00354697 1.06465e-08
-0.0255732 -1.12938e-21 0.00306848 7.03518e-06
0.0255733 0 0.0030685 5.94204e-09
-0.0258709 2.71051e-20 0.000270934 1.84222e-05
0.0258709 2.71051e-20 0.000270944 1.56891e-08
-0.0258866 -2.71051e-20 0.000846945 4.67147e-06
0.0258867 0 0.00084698 4.83757e-09
-0.0258956 -5.42101e-20 0.00148553 2.97923e-06
0.0258957 -2.71051e-20 0.00148556 1.99609e-09
-0.025711 0 0.0036084 1.27117e-05
0.025711 -1.35525e-20 0.0036084 1.3146e-08
-0.0258953 5.42101e-20 0.00216695 2.91575e-06
0.0258954 0 0.00216699 9.70696e-10
-0.0260182 1.35525e-20 1.4385e-11 1.83721e-05
0.0260182 -1.35525e-20 1.43834e-11 1.52306e-08
-0.0257708 1.01644e-20 0.00362432 1.28098e-05
0.025771 -1.01644e-20 0.00362438 1.33242e-08
0.0260277 1.35525e-20 0.000129333 1.52342e-08
-0.0260277 1.35525e-20 0.000129319 1.83738e-05
-0.0258188 4.51751e-21 0.00342146 1.19741e-05
0.0258189 -4.51751e-21 0.00342152 1.20063e-08
-0.0259037 0 0.00281559 3.25142e-06
0.0259038 2.71051e-20 0.0028156 1.59789e-09
-0.0261762 2.71051e-20 8.34289e-12 1.79705e-05
0.0261762 0 8.34292e-12 1.5351e-08
-0.0261907 6.77626e-21 0.000536235 1.21545e-05
0.0261907 4.51751e-21 0.000536244 1.03419e-08
-0.0262092 -7.90564e-21 0.00114363 4.64835e-06
0.0262093 1.12938e-21 0.00114365 3.96916e-09
-0.0260128 0 0.00368882 1.08865e-05
0.026013 -1.35525e-20 0.00368885 1.16114e-08
-0.026215 1.12938e-21 0.00181908 3.51716e-06
0.026215 0 0.0018191 1.75112e-09
-0.0263228 -1.35525e-20 0.000121177 1.83492e-05
0.0263228 1.35525e-20 0.000121199 1.35049e-08
-0.0263263 1.35525e-20 7.18223e-12 1.83466e-05
0.0263263 -2.71051e-20 7.1822e-12 1.34315e-08
-0.0262139 1.12938e-21 0.00250529 3.26164e-06
0.026214 -3.38813e-21 0.0025053 1.24609e-09
-0.0261378 -2.71051e-20 0.00372349 9.79971e-06
0.0261379 -1.35525e-20 0.00372351 1.12045e-08
-0.0261644 4.06576e-20 0.00360602 9.99666e-06
0.0261645 -1.35525e-20 0.00360608 1.10467e-08
-0.0262302 -1.50584e-21 0.0032085 7.35121e-06
0.0262302 1.8823e-21 0.00320851 6.44475e-09
-0.0264875 0 0.000258943 1.83062e-05
0.0264876 0 0.000258951 1.3154e-08
-0.0265116 0 0.000819231 6.07784e-06
0.0265116 0 0.000819229 5.8512e-09
-0.0265313 0 0.00145474 4.6054e-06
0.0265313 2.71051e-20 0.00145476 2.75514e-09
-0.026307 0 0.00376734 9.58716e-06
0.026307 -6.77626e-21 0.00376734 9.85871e-09
-0.0265288 0 0.00214917 3.59516e-06
0.0265289 0 0.00214918 1.28893e-09
0.0266623 1.35525e-20 2.30473e-12 1.49812e-08
-0.0266624 -1.35525e-20 2.30271e-12 1.808e-05
0.0266707 -1.35525e-20 0.000106431 1.50983e-08
-0.0266707 -1.35525e-20 0.000106394 1.80732e-05
-0.0265278 0 0.00283317 3.35179e-06
0.0265278 -2.71051e-20 0.00283318 1.113e-09
-0.0264226 0 0.00379806 9.3471e-06
0.0264228 6.77626e-21 0.00379808 9.5892e-09
-0.0265365 -2.82344e-21 0.00359658 9.27196e-06
0.0265365 1.69407e-21 0.00359658 9.17628e-09
-0.0267959 -1.35525e-20 1.18602e-12 1.81404e-05
0.0267959 0 1.1879e-12 1.78832e-08
-0.0268045 -1.12938e-21 0.0005015 1.32582e-05
0.0268045 -3.38813e-21 0.000501498 1.5755e-08
-0.0268426 1.12938e-21 0.00108827 6.89655e-06
0.0268426 -2.25875e-21 0.00108827 8.37987e-09
-0.0269065 1.35525e-20 8.39063e-05 1.84625e-05
0.0269065 0 8.3937e-05 2.01263e-08
-0.0269105 2.71051e-20 1.09878e-12 1.84442e-05
0.0269105 0 1.1004e-12 2.00437e-08
-0.0268569 0 0.00177521 5.0031e-06
0.0268569 -5.64689e-22 0.00177521 2.83941e-09
-0.0268455 1.12938e-21 0.00249636 3.79909e-06
0.0268456 -1.12938e-21 0.00249637 1.4688e-09
-0.0268309 1.807e-21 0.00322447 6.65195e-06
0.0268309 9.48677e-21 0.00322448 5.39051e-09
0.0267577 8.47033e-22 0.00386138 1.04143e-08
-0.0267577 0 0.00386154 1.04107e-05
-0.0267686 0 0.00388947 1.0454e-05
0.0267686 0 0.00388946 1.04697e-08
-0.0267817 0 0.00389295 1.05185e-05
0.0267818 0 0.00389296 1.05487e-08
-0.0267895 -1.69407e-21 0.00389519 1.05377e-05
0.0267897 0 0.00389521 1.06244e-08
-0.0267977 0 0.00388306 1.0568e-05
0.0267979 0 0.00388302 1.06964e-08
-0.0268077 8.47033e-22 0.00390073 1.05185e-05
0.0268079 -1.01644e-20 0.00390078 1.05889e-08
-0.0270953 0 0.00023099 1.815e-05
0.0270953 -2.71051e-20 0.000230989 2.21126e-08
-0.0271307 2.71051e-20 0.000745242 9.28949e-06
0.0271307 2.71051e-20 0.000745245 1.99141e-08
-0.0271876 0 0.00136721 7.45084e-06
0.0271876 0 0.00136721 5.41632e-09
-0.02717 2.71051e-20 0.00211415 4.57806e-06
0.02717 0 0.00211415 2.08049e-09
-0.0270374 -9.68038e-21 0.00364688 1.05206e-05
0.0270374 -1.93608e-21 0.00364689 1.12702e-08
-0.0271535 0 0.00283769 3.73964e-06
0.0271535 -2.71051e-20 0.0028377 1.39476e-09
0.0273865 -6.02335e-21 0.0004332 1.08694e-07
-0.0273866 -1.50584e-21 0.000433203 1.80931e-05
-0.0272025 -1.35525e-20 0.00404241 1.14948e-05
0.0272025 0 0.00404243 1.14894e-08
0.0275127 0 2.93966e-06 1.73123e-07
-0.0275208 4.23516e-22 1.06317e-13 2.20618e-05
-0.0275278 4.23516e-22 1.05538e-13 2.20347e-05
0.027528 -4.23516e-22 1.05132e-13 1.80241e-07
-0.0275176 -4.14105e-21 0.000876077 1.55517e-05
0.0275176 -2.44698e-21 0.00087607 8.78304e-08
-0.0275406 0 1.8613e-05 2.20597e-05
0.027541 0 1.89803e-05 1.91451e-07
-0.0272667 1.35525e-20 0.00395781 1.1397e-05
0.0272668 -2.71051e-20 0.00395784 1.16342e-08
0.0275129 -7.05861e-23 0.00171283 7.41456e-09
-0.0275266 -1.41172e-22 0.00170612 7.70342e-06
-0.0274757 3.38813e-21 0.00247994 4.54561e-06
0.0274757 -2.25875e-21 0.00247995 2.04229e-09
-0.0274313 2.25875e-21 0.00322709 5.82529e-06
0.0274313 0 0.0032271 4.49756e-09
-0.0273527 1.35525e-20 0.00409792 1.149e-05
0.0273528 1.35525e-20 0.00409794 1.30779e-08
-0.0274774 1.12938e-21 0.00369772 8.61492e-06
0.0274774 1.12938e-21 0.00369774 8.50438e-09
-0.0278217 0 0.00130219 1.25262e-05
0.0278218 -2.71051e-20 0.00130219 1.47134e-08
-0.0277987 0 0.00208828 5.93805e-06
0.0277987 -2.71051e-20 0.00208828 3.52856e-09
-0.0278795 -3.76459e-21 0.000330555 2.16165e-05
0.0278795 0 0.000330552 4.17775e-07
-0.0275673 -1.69407e-20 0.00417883 1.23097e-05
0.0275674 1.69407e-20 0.00417885 1.39593e-08
-0.0277779 0 0.0028342 4.00077e-06
0.027778 0 0.00283422 1.21641e-09
-0.0276683 -3.38813e-21 0.00421687 1.22894e-05
0.0276684 1.01644e-20 0.00421691 1.38405e-08
-0.0277108 0 0.00403356 1.17218e-05
0.0277109 0 0.00403359 1.28844e-08
-0.0278036 -2.71051e-20 0.00346787 4.01457e-06
0.0278037 2.71051e-20 0.00346788 1.97481e-09
0.0280306 1.35525e-20 3.72316e-14 3.68521e-07
-0.0280306 1.35525e-20 3.73072e-14 2.14235e-05
-0.0281597 -3.61401e-21 0.000826379 2.27226e-05
0.0281598 1.35525e-21 0.000826365 1.14447e-07
-0.0281239 3.38813e-22 0.00170643 1.03013e-05
0.0281239 -4.51751e-22 0.00170641 9.23217e-09
-0.0281926 2.71051e-20 2.34313e-14 2.67704e-05
0.0281927 -2.71051e-20 2.34156e-14 2.1889e-07
-0.0281037 -5.64689e-22 0.00246047 5.54909e-06
0.0281037 -5.64689e-22 0.00246047 2.61918e-09
-0.0278976 0 0.00430333 1.11122e-05
0.0278978 1.35525e-20 0.00430337 1.25068e-08
-0.0280998 -3.95282e-21 0.00316536 4.40019e-06
0.0280999 -5.64689e-22 0.00316537 1.57812e-09
-0.0280091 2.71051e-20 0.00434531 1.06767e-05
0.0280092 -2.71051e-20 0.00434535 1.23067e-08
-0.0280389 -1.35525e-20 0.00423697 1.07458e-05
0.028039 0 0.00423702 1.20836e-08
-0.0281246 -2.82344e-22 0.0038468 8.02307e-06
0.0281246 9.41148e-23 0.00384682 7.042e-09
-0.0283974 1.35525e-20 1.6465e-14 2.45607e-05
0.0283975 -2.03288e-20 1.64528e-14 2.31698e-07
-0.0284432 2.71051e-20 0.0012926 1.66771e-05
0.0284432 0 0.0012926 1.64363e-08
-0.0284192 2.71051e-20 0.0020741 7.47512e-06
0.0284192 -2.71051e-20 0.00207411 4.27164e-09
-0.0284972 -1.41172e-22 0.000323921 2.65792e-05
0.0284983 7.05861e-23 0.000322966 2.48414e-07
-0.0281711 -1.35525e-20 0.00440642 1.04318e-05
0.0281712 6.77626e-21 0.00440645 1.10737e-08
0.0285522 0 6.7283e-15 2.44162e-07
-0.0285522 2.71051e-20 6.71898e-15 2.58033e-05
-0.0284166 0 0.00281021 4.83722e-06
0.0284166 0 0.00281021 1.52902e-09
-0.0284105 -2.71051e-20 0.00349464 4.78875e-06
0.0284105 5.42101e-20 0.00349465 1.55886e-09
-0.0282899 -6.77626e-21 0.00445124 1.01141e-05
0.02829 -6.77626e-21 0.00445126 1.07858e-08
-0.0284185 -1.12938e-21 0.00424829 9.82273e-06
0.0284186 -2.82344e-21 0.00424831 1.02485e-08
-0.0287651 2.71051e-20 2.83612e-16 3.36166e-05
0.0287651 0 2.95993e-16 2.77911e-07
0.0287466 -6.21157e-22 0.00168414 1.04025e-08
-0.0287466 2.82344e-22 0.00168414 1.31196e-05
-0.0288079 -9.03502e-22 0.000872612 2.74851e-05
0.0288079 -6.32451e-21 0.000872602 1.28846e-07
-0.0287473 7.52918e-22 0.0024227 6.58077e-06
0.0287474 0 0.0024227 3.65005e-09
-0.0287216 -1.12938e-21 0.00316753 4.88232e-06
0.0287216 3.38813e-21 0.00316754 1.67149e-09
0.0285807 0 0.0045608 1.17134e-08
-0.0285808 1.69407e-21 0.00456081 1.17828e-05
-0.0287115 -2.25875e-21 0.0038813 7.71598e-06
0.0287115 0 0.00388131 6.13116e-09
0.0286395 0 0.00458294 1.16999e-08
-0.0286395 0 0.00458293 1.20074e-05
0.0286465 -3.38813e-21 0.00457502 1.17473e-08
-0.0286466 0 0.00457502 1.20402e-05
-0.0290133 -1.35525e-20 1.86899e-16 3.50915e-05
0.0290135 0 1.94633e-16 6.44698e-07
-0.0286559 -3.38813e-21 0.00458911 1.21774e-05
0.0286559 0 0.00458914 1.19101e-08
-0.0286628 3.38813e-21 0.00455184 1.19115e-05
0.0286628 3.38813e-21 0.00455182 1.15709e-08
-0.0290304 -3.38813e-21 8.06872e-05 3.57364e-05
0.0290304 -1.69407e-21 8.001e-05 6.66619e-07
-0.0290331 -3.95282e-21 0.000330818 3.70295e-05
0.0290331 -2.82344e-21 0.000330829 6.04703e-07
0.0290394 0 1.6645e-16 6.48874e-07
-0.0290395 -1.01644e-20 1.59042e-16 3.54544e-05
-0.0286826 3.38813e-21 0.00457911 1.23858e-05
0.0286827 0 0.00457912 1.19079e-08
-0.0286988 -1.69407e-21 0.00460526 1.26383e-05
0.0286989 0 0.00460531 1.19277e-08
-0.0290348 2.71051e-20 0.00281401 5.47365e-06
0.0290349 -2.71051e-20 0.00281402 2.11682e-09
-0.029155 0 0.00144553 1.99894e-05
0.029155 2.71051e-20 0.00144554 1.36961e-08
-0.0291572 2.71051e-20 0.00194761 1.05129e-05
0.0291573 2.71051e-20 0.00194759 8.83233e-09
-0.0289114 1.74247e-20 0.00431134 1.19073e-05
0.0289115 -7.7443e-21 0.00431137 1.2436e-08
-0.0290289 0 0.00350519 4.43143e-06
0.0290289 -2.71051e-20 0.0035052 1.48373e-09
-0.0293191 1.35525e-20 1.46697e-16 4.30933e-05
0.0293192 0 1.49488e-16 3.88997e-07
0.0293261 -8.04681e-21 0.00083995 1.85217e-07
-0.0293263 -5.0822e-21 0.000839937 3.36956e-05
-0.029346 -1.3129e-20 0.000822089 3.41985e-05
0.0293461 -4.23516e-22 0.000821754 1.92452e-07
-0.0293459 0 0.000843819 3.39223e-05
0.029346 3.09167e-20 0.000843906 1.86274e-07
-0.0293596 8.47033e-22 0.000839783 3.42588e-05
0.02936 4.65868e-21 0.000839793 1.85754e-07
-0.029022 1.35525e-20 0.00472698 1.48309e-05
0.029022 1.35525e-20 0.00472701 1.2722e-08
-0.0293681 0 0.00167839 1.63488e-05
0.0293682 1.35525e-20 0.00167839 1.25355e-08
-0.0293492 7.90564e-22 0.00243747 7.76374e-06
0.0293492 4.51751e-22 0.00243747 4.73321e-09
-0.0291129 0 0.00461943 1.44382e-05
0.029113 -2.71051e-20 0.00461946 1.30864e-08
-0.0293461 1.12938e-21 0.00316205 5.51586e-06
0.0293461 0 0.00316205 1.9677e-09
0.0295421 -1.01644e-20 1.67699e-17 4.1371e-07
-0.0295423 3.38813e-21 1.51529e-17 4.71599e-05
-0.0293068 2.25875e-21 0.00388259 6.94683e-06
0.0293068 0 0.00388261 4.89713e-09
-0.0295827 0 0.00139945 2.35797e-05
0.0295827 0 0.00139947 1.90193e-08
-0.029224 -1.35525e-20 0.00480306 1.42461e-05
0.0292241 -1.35525e-20 0.00480312 1.44115e-08
-0.0296229 2.25875e-21 0.000312396 4.92683e-05
0.0296231 2.25875e-21 0.000312322 3.81176e-07
-0.0295757 -5.42101e-20 0.00193306 1.24751e-05
0.0295757 -2.71051e-20 0.00193306 1.01122e-08
-0.0296592 -6.77626e-21 -6.00186e-17 5.13132e-05
0.0296598 6.77626e-21 -5.89086e-17 3.78171e-07
-0.0293408 3.16226e-21 0.00435957 1.08264e-05
0.0293409 4.06576e-21 0.00435961 1.00284e-08
-0.0296739 5.42101e-20 0.00278626 6.9668e-06
0.0296739 -2.71051e-20 0.00278626 3.07492e-09
-0.0294232 6.77626e-21 0.0048781 1.60076e-05
0.0294234 2.03288e-20 0.00487815 1.71889e-08
-0.029651 -2.71051e-20 0.00350308 5.21568e-06
0.029651 2.71051e-20 0.00350309 1.19762e-09
-0.0298815 0 -1.91561e-16 6.36451e-05
0.0298818 1.35525e-20 -1.91567e-16 2.62895e-07
-0.0295072 1.35525e-20 0.00479828 1.6247e-05
0.0295074 -6.77626e-21 0.00479831 1.78404e-08
-0.0295244 -1.35525e-20 0.0049162 1.60521e-05
0.0295246 6.77626e-21 0.00491626 1.7552e-08
-0.0295732 0 0.00467621 1.53729e-05
0.0295734 4.51751e-21 0.00467625 1.64677e-08
-0.0296719 0 0.00412281 5.57969e-06
0.0296719 0 0.00412282 2.37791e-09
-0.0299617 7.52918e-22 0.000815835 5.09891e-05
0.0299618 -3.76459e-21 0.000815876 1.39265e-07
-0.0299758 0 0.000107543 7.18527e-05
0.0299759 -2.71051e-20 0.000107299 2.83507e-07
-0.0299859 -1.35525e-20 2.26926e-16 7.18439e-05
0.029986 -2.71051e-20 2.28937e-16 2.83578e-07
-0.0300036 1.12938e-21 0.00165375 2.08061e-05
0.0300036 3.76459e-22 0.00165376 1.56184e-08
0.0300698 2.71051e-20 -5.95075e-16 2.55782e-07
-0.0300699 2.71051e-20 -5.95895e-16 7.04245e-05
-0.0299914 0 0.00233928 1.09959e-05
0.0299915 0 0.00233928 6.20916e-09
-0.0297028 -2.71051e-20 0.00498341 1.51795e-05
0.029703 0 0.00498346 1.593e-08
-0.0299738 -2.25875e-21 0.00312121 6.98736e-06
0.0299738 1.807e-21 0.00312121 2.43839e-09
0.030181 -1.35525e-20 0.000217163 2.08542e-07
-0.0301813 0 0.000217574 7.57709e-05
-0.0299672 -3.38813e-21 0.00382607 5.9013e-06
0.0299673 -1.12938e-21 0.00382608 1.65789e-09
0.0302278 0 -3.28141e-16 2.02498e-07
-0.0302282 0 -3.2848e-16 7.59202e-05
-0.0298589 -2.03288e-20 0.00504218 1.4334e-05
0.0298591 6.77626e-21 0.00504224 1.53434e-08
-0.0299001 0 0.00489103 1.4309e-05
0.0299002 1.35525e-20 0.00489108 1.49361e-08
-0.0299789 2.25875e-21 0.00451145 1.09604e-05
0.029979 0 0.00451148 8.77992e-09
-0.0302909 2.71051e-20 0.00277109 8.58848e-06
0.0302909 0 0.0027711 3.29047e-09
-0.0304299 0 0.000466563 8.49638e-05
0.0304299 -2.71051e-20 0.000466598 1.47266e-07
-0.0304045 0 0.00137206 3.11019e-05
0.0304046 2.71051e-20 0.00137208 2.38906e-08
-0.0304135 2.71051e-20 0.00193181 1.8431e-05
0.0304135 2.71051e-20 0.00193181 1.04396e-08
-0.0302817 2.71051e-20 0.00348658 6.18349e-06
0.0302818 2.71051e-20 0.00348658 1.24867e-09
-0.0300763 -3.38813e-21 0.00512403 1.45257e-05