# kMean  POINT_DATA 14232
# x  y  z  kMean
0 -0.0115468 6.39774e-08 1.73844e-06
0 0.0115468 6.39774e-08 2.75057e-10
0 -0.0115468 0.000159933 1.69579e-06
6.77626e-21 0.0115468 0.000159966 2.72259e-10
1.35525e-20 -0.0115468 0.000505149 1.9827e-06
0 0.0115468 0.000505252 3.1888e-10
0 -0.0115468 0.000661354 2.26421e-06
0 0.0115468 0.00066149 3.60102e-10
-6.77626e-21 -0.0115468 0.000824682 2.45814e-06
0 0.0115468 0.000824823 3.96559e-10
6.77626e-21 -0.0115467 0.00119323 2.62399e-06
-6.77626e-21 0.0115467 0.00119337 4.46454e-10
0 0.0116176 9.48413e-05 2.76328e-10
0 -0.0116176 9.48284e-05 1.73609e-06
0 0.0116191 6.70002e-08 2.76264e-10
0 -0.0116191 6.70007e-08 1.73546e-06
0 -0.0115467 0.00135636 2.55954e-06
0 0.0115467 0.0013565 4.4831e-10
0 -0.0116144 0.000567788 2.1249e-06
0 0.0116144 0.000567904 3.39619e-10
-1.35525e-20 -0.0116106 0.000748384 2.4077e-06
0 0.0116106 0.000748514 3.85882e-10
0 -0.0115467 0.00152899 2.36063e-06
6.77626e-21 0.0115467 0.00152911 4.34113e-10
-1.35525e-20 -0.0116105 0.00124699 2.63212e-06
1.35525e-20 0.0116105 0.00124712 4.53385e-10
0 -0.0116054 0.00142615 2.46867e-06
-1.35525e-20 0.0116054 0.00142627 4.45436e-10
6.77626e-21 -0.0115467 0.00190899 2.45567e-06
0 0.0115467 0.00190902 4.53857e-10
1.35525e-20 0.0117276 6.6334e-08 5.00008e-10
-1.35525e-20 -0.0117276 6.63364e-08 2.61249e-06
-6.77626e-21 -0.0117103 0.000650495 2.44705e-06
2.03288e-20 0.0117103 0.000650588 4.27533e-10
-1.35525e-20 0.0115467 0.002087 5.19454e-10
1.35525e-20 -0.0115467 0.002087 2.87872e-06
0 -0.011609 0.00193563 2.6043e-06
0 0.011609 0.00193565 4.72931e-10
-6.77626e-21 -0.0117025 0.00130867 2.17629e-06
6.77626e-21 0.0117025 0.00130876 3.82146e-10
0 0.0116004 0.00211165 5.17034e-10
-1.35525e-20 -0.0116004 0.00211165 3.0851e-06
0 0.0116425 0.00204727 5.13669e-10
-1.35525e-20 -0.0116425 0.00204727 3.01973e-06
1.35525e-20 0.0116584 0.00213829 5.77899e-10
-1.35525e-20 -0.0116585 0.00213829 3.06255e-06
-1.35525e-20 -0.0117067 0.00192898 2.4693e-06
-1.35525e-20 0.0117067 0.00192897 4.35593e-10
4.51751e-21 -0.0118537 0.000959072 2.73352e-06
4.51751e-21 0.0118537 0.000959138 4.51261e-10
-4.51751e-21 0.0119178 0.000318651 4.95619e-10
-1.12938e-20 -0.0119179 0.00031862 2.70975e-06
1.35525e-20 0.011932 7.04551e-08 5.77111e-10
-1.35525e-20 -0.011932 7.04586e-08 2.96678e-06
2.71051e-21 -0.0118325 0.00163065 2.38823e-06
0 0.0118325 0.00163068 4.56741e-10
-1.35525e-20 -0.0118724 0.00142181 2.08052e-06
0 0.0118724 0.00142183 3.9183e-10
-1.35525e-20 0.0117615 0.0021856 5.84717e-10
0 -0.0117616 0.0021856 3.05548e-06
-5.42101e-20 0.0118132 0.00220929 7.38188e-10
-2.71051e-20 -0.0118132 0.00220929 3.47848e-06
-3.76459e-22 0.0118989 0.00195768 5.11199e-10
-2.63521e-21 -0.0118989 0.00195769 2.80786e-06
0 -0.0119718 0.0015384 1.62415e-06
6.77626e-21 0.0119718 0.0015384 3.24526e-10
0 0.0120982 7.96187e-08 1.14926e-09
0 -0.0120983 7.96213e-08 4.56733e-06
4.06576e-21 -0.0120695 0.00085261 2.15382e-06
-2.71051e-21 0.0120694 0.000852623 4.26455e-10
0 0.0122081 0.000167123 1.29238e-09
-2.71051e-20 -0.0122082 0.000167145 5.4297e-06
0 0.012221 7.14632e-08 1.29158e-09
0 -0.012221 7.14627e-08 5.43063e-06
2.71051e-21 0.0121684 0.00122551 2.67275e-10
-1.95759e-21 -0.0121684 0.00122551 1.43623e-06
-2.71051e-20 0.012025 0.00230651 6.35256e-10
6.77626e-21 -0.0120251 0.00230652 2.87497e-06
3.22679e-21 0.0122349 0.000642359 8.57809e-10
1.29072e-21 -0.0122349 0.000642359 3.51319e-06
-1.01644e-20 0.0120594 0.00232227 6.49163e-10
0 -0.0120594 0.00232227 2.90673e-06
0 0.0122855 6.71739e-08 1.74194e-09
2.71051e-20 -0.0122856 6.71709e-08 6.14215e-06
1.97641e-21 0.0122109 0.00173628 3.6322e-10
-2.82344e-22 -0.0122109 0.0017363 1.84667e-06
-5.42101e-21 0.0121468 0.002146 6.75316e-10
8.13152e-21 -0.0121468 0.00214601 2.96973e-06
-6.77626e-21 0.0122263 0.00229071 7.04504e-10
6.77626e-21 -0.0122264 0.00229075 3.05472e-06
0 0.0124605 5.58013e-08 2.29553e-09
0 -0.0124606 5.57971e-08 7.9792e-06
0 0.0125121 0.000225139 2.53157e-09
0 -0.0125121 0.00022516 8.50454e-06
0 0.0122889 0.00242764 8.10029e-10
0 -0.012289 0.00242766 3.42258e-06
0 0.0125901 0.000921782 3.70633e-10
-2.71051e-20 -0.0125902 0.000921784 1.49659e-06
-1.35525e-20 0.012401 0.00241701 7.49072e-10
0 -0.0124011 0.00241703 3.26504e-06
-6.77626e-21 0.0123956 0.00247648 7.4481e-10
-6.77626e-21 -0.0123956 0.00247647 3.28182e-06
-3.38813e-21 0.0124525 0.00218686 6.30288e-10
-1.69407e-21 -0.0124525 0.00218688 2.76121e-06
0 0.0125382 0.00209403 5.07552e-10
2.71051e-20 -0.0125382 0.00209406 2.1702e-06
1.0842e-20 0.0126447 0.00162116 2.06628e-10
2.71051e-20 -0.0126447 0.00162119 1.07696e-06
1.35525e-20 -0.012772 0.000141272 1.08673e-05
0 0.0127721 0.000141226 3.24129e-09
1.35525e-20 -0.0127747 1.51153e-08 1.08578e-05
1.35525e-20 0.0127748 1.5111e-08 3.23729e-09
-2.71051e-21 -0.0126131 0.00241882 3.62287e-06
-1.35525e-20 0.0126131 0.00241885 8.31225e-10
1.35525e-20 -0.0125862 0.00256375 3.71464e-06
-2.71051e-20 0.0125863 0.00256377 8.22858e-10
0 -0.0129279 4.53095e-09 1.20684e-05
0 0.0129279 4.5309e-09 3.58896e-09
9.03502e-21 0.0129181 0.000605376 2.00788e-09
-1.88079e-37 -0.0129182 0.000605392 7.08931e-06
-2.25875e-21 0.0129069 0.00122274 3.05285e-10
0 -0.012907 0.00122277 1.43734e-06
0 -0.0127463 0.00263701 5.53113e-06
-2.71051e-20 0.0127464 0.00263706 1.29029e-09
-9.03502e-21 0.0128745 0.00194112 3.23538e-10
-4.51751e-21 -0.0128746 0.00194114 1.63509e-06
0 0.0130689 3.79654e-09 3.74048e-09
0 -0.0130689 3.79638e-09 1.31192e-05
2.71051e-20 0.0130684 0.000129725 3.73765e-09
-1.35525e-20 -0.0130685 0.000129752 1.31001e-05
-4.51751e-21 0.0129105 0.00229689 7.81488e-10
-2.25875e-21 -0.0129106 0.00229692 3.57995e-06
-8.13152e-21 0.0131166 0.0016405 2.38969e-10
8.13152e-21 -0.0131166 0.00164056 1.17255e-06
0 0.013248 0.000302964 4.0458e-09
2.71051e-20 -0.013248 0.000302967 1.4637e-05
-6.77626e-21 -0.0129823 0.00274604 7.23152e-06
2.71051e-20 0.0129824 0.00274607 1.59335e-09
0 0.0132464 0.000911472 5.73853e-10
-2.71051e-20 -0.0132464 0.000911494 2.63902e-06
9.03502e-21 0.0131304 0.00262467 1.65016e-09
0 -0.0131304 0.00262473 7.45618e-06
2.71051e-20 0.0132415 0.00211425 2.51883e-10
0 -0.0132416 0.0021143 1.45158e-06
1.35525e-20 0.0131185 0.00280836 1.80817e-09
0 -0.0131186 0.00280842 8.17383e-06
-1.35525e-20 -0.013437 2.08369e-09 1.57514e-05
-1.35525e-20 0.013437 2.0834e-09 4.19689e-09
0 -0.0134397 0.000120667 1.57556e-05
-1.35525e-20 0.0134397 0.000120639 4.19804e-09
-1.35525e-20 0.0135679 1.40563e-09 4.3161e-09
0 -0.0135679 1.40572e-09 1.63795e-05
0 0.0135763 0.00059667 2.50195e-09
0 -0.0135763 0.000596688 9.75043e-06
9.03502e-21 0.0135724 0.00122413 4.16871e-10
2.25875e-21 -0.0135724 0.00122416 1.99967e-06
2.71051e-20 0.0133498 0.00291517 2.3003e-09
-2.71051e-20 -0.0133499 0.00291524 9.07464e-06
6.77626e-21 0.0134778 0.00238384 1.09011e-09
-6.77626e-21 -0.013478 0.00238391 4.95272e-06
-4.51751e-21 0.0135676 0.00185527 2.56585e-10
-6.77626e-21 -0.0135677 0.00185532 1.39583e-06
1.35525e-20 0.0136939 1.2223e-09 4.4496e-09
0 -0.013694 1.22233e-09 1.7044e-05
0 0.0136952 0.000110039 4.44774e-09
-1.35525e-20 -0.0136952 0.000110069 1.70327e-05
2.03288e-20 -0.0135431 0.00300575 1.1616e-05
3.72694e-20 0.0135431 0.00300574 3.22663e-09
0 -0.0139035 0.000294194 1.8231e-05
0 0.0139035 0.000294183 4.60845e-09
1.69407e-20 0.0135877 0.0030267 3.28922e-09
-1.69407e-20 -0.013588 0.00302686 1.1776e-05
0 0.0139156 0.000900746 6.95514e-10
0 -0.0139156 0.000900767 3.23204e-06
-4.51751e-21 0.0136798 0.00276423 2.85337e-09
-4.51751e-21 -0.0136798 0.00276433 1.06324e-05
2.71051e-20 0.0139125 0.00154327 2.37049e-10
0 -0.0139126 0.00154331 1.26192e-06
-2.71051e-20 0.0138987 0.00219587 3.84756e-10
-2.71051e-20 -0.0138988 0.00219593 2.02473e-06
0 -0.0141099 3.98855e-10 1.87671e-05
-1.35525e-20 0.01411 3.98723e-10 4.74969e-09
1.35525e-20 -0.0141138 9.87932e-05 1.87683e-05
1.35525e-20 0.0141138 9.87563e-05 4.74998e-09
-1.35525e-20 0.0138003 0.00312616 3.03185e-09
-1.35525e-20 -0.0138004 0.00312625 1.05099e-05
0 -0.0142228 2.30732e-10 1.87836e-05
0 0.0142228 2.30673e-10 4.78651e-09
-2.25875e-21 0.0142415 0.000580992 2.84399e-09
-4.51751e-21 -0.0142415 0.000581005 1.14103e-05
-1.12938e-21 0.0142522 0.0012064 5.731e-10
1.12938e-21 -0.0142522 0.00120643 2.78383e-06
-1.35525e-20 0.0143301 2.07135e-10 4.86425e-09
0 -0.0143301 2.07176e-10 1.90167e-05
0 0.0143313 8.88715e-05 4.86354e-09
0 -0.0143313 8.89061e-05 1.90155e-05
-6.77626e-21 0.013971 0.00320516 3.24735e-09
-1.35525e-20 -0.0139711 0.00320521 1.09622e-05
2.25875e-21 0.0142439 0.0018749 3.11319e-10
-1.12938e-21 -0.014244 0.00187495 1.98968e-06
0 0.0140732 0.00302489 3.12323e-09
-2.71051e-21 -0.0140733 0.003025 1.07732e-05
9.03502e-22 0.0141848 0.00260879 1.55836e-09
-9.03502e-22 -0.014185 0.00260885 6.46262e-06
6.77626e-21 0.0140966 0.0032633 3.12785e-09
0 -0.014097 0.00326346 1.07996e-05
0 0.0142071 0.00316519 2.98383e-09
-1.35525e-20 -0.0142074 0.00316541 1.06665e-05
0 -0.0145609 0.000281732 1.95724e-05
-2.71051e-20 0.0145609 0.000281727 5.00865e-09
0 0.0145815 0.000874352 9.53034e-10
0 -0.0145815 0.000874372 4.23749e-06
-1.35525e-20 0.0142355 0.00332755 2.68912e-09
2.71051e-20 -0.0142357 0.00332766 1.05196e-05
0 0.0145904 0.00151948 3.82714e-10
2.71051e-20 -0.0145905 0.00151951 2.34882e-06
0 0.0145713 0.00221296 2.42021e-10
0 -0.0145714 0.00221301 2.31632e-06
0 0.014357 0.00338361 2.70684e-09
1.35525e-20 -0.0143572 0.00338367 1.14052e-05
4.51751e-21 0.0144398 0.00302856 2.03886e-09
-6.02335e-21 -0.0144401 0.00302864 8.54132e-06
-1.35525e-20 0.0143822 0.00330545 2.6885e-09
-1.35525e-20 -0.0143823 0.00330556 1.12334e-05
-1.35525e-20 -0.0147852 4.2202e-11 1.99376e-05
0 0.0147853 4.21645e-11 4.6707e-09
-1.35525e-20 -0.0147878 7.95663e-05 1.99397e-05
-1.35525e-20 0.0147879 7.95165e-05 4.66942e-09
-1.35525e-20 -0.0148815 2.04947e-11 2.00573e-05
1.35525e-20 0.0148815 2.04768e-11 4.74927e-09
2.71051e-20 0.0146213 0.00280153 5.34628e-10
0 -0.0146214 0.00280159 3.8897e-06
-2.25875e-21 -0.0149014 0.000554709 1.28989e-05
-4.51751e-21 0.0149014 0.000554705 3.12351e-09
0 0.0145853 0.00326151 2.449e-09
-2.71051e-20 -0.0145855 0.00326159 1.09898e-05
1.12938e-21 0.014922 0.00116916 1.16783e-09
-1.12938e-21 -0.014922 0.00116918 4.61019e-06
0 0.0149733 1.85798e-11 4.19546e-09
-1.35525e-20 -0.0149733 1.85939e-11 2.02029e-05
0 0.0149737 7.37377e-05 4.19724e-09
0 -0.0149738 7.37977e-05 2.02028e-05
2.71051e-20 0.0146077 0.00349933 3.14971e-09
1.35525e-20 -0.014608 0.00349943 1.28873e-05
-1.12938e-21 0.0149197 0.00184904 4.90757e-10
0 -0.0149198 0.00184907 3.57563e-06
0 0.0146661 0.00343238 3.18713e-09
0 -0.0146663 0.00343252 1.28968e-05
0 0.0149194 0.00252068 4.51872e-10
-1.12938e-21 -0.0149195 0.00252073 3.76516e-06
2.71051e-20 0.0147321 0.00355666 3.56866e-09
0 -0.0147322 0.00355672 1.3146e-05
-2.25875e-21 0.0148879 0.00309611 2.12663e-09
0 -0.0148881 0.00309617 8.93944e-06
0 -0.0152102 0.000264579 2.05732e-05
2.71051e-20 0.0152103 0.00026457 3.86249e-09
0 -0.0152372 0.000832817 6.61451e-06
2.71051e-20 0.0152372 0.000832812 2.3356e-09
0 0.0148481 0.0036099 4.56614e-09
0 -0.0148482 0.00360994 1.4844e-05
0 0.0148927 0.003477 4.27756e-09
1.35525e-20 -0.0148928 0.00347709 1.43765e-05
-2.71051e-20 0.0152552 0.00147323 9.11933e-10
2.71051e-20 -0.0152552 0.00147325 5.1327e-06
2.71051e-20 0.0152472 0.00216851 4.27742e-10
5.42101e-20 -0.0152472 0.00216853 4.53203e-06
0 -0.0154526 2.80546e-12 2.02913e-05
0 0.0154528 2.79932e-12 5.04276e-09
0 -0.0154539 6.4364e-05 2.02914e-05
0 0.0154541 6.42863e-05 5.04598e-09
-2.71051e-20 0.0150217 0.00368977 4.9863e-09
2.71051e-20 -0.0150218 0.00368985 1.54599e-05
0 0.0150964 0.00340472 4.74914e-09
2.71051e-20 -0.0150966 0.00340477 1.57421e-05
0 0.0152384 0.002848 5.97362e-10
0 -0.0152385 0.00284804 4.36696e-06
0 -0.0155344 1.12584e-12 2.04821e-05
0 0.0155345 1.12356e-12 6.04679e-09
2.71051e-20 0.015136 0.00358108 4.8461e-09
0 -0.0151361 0.00358119 1.52073e-05
0 -0.0155483 0.000512811 1.57176e-05
0 0.0155483 0.000512813 6.6249e-09
0 -0.0156089 5.68786e-05 2.0217e-05
6.77626e-21 0.0156089 5.68083e-05 6.33631e-09
0 -0.0156116 1.05395e-12 2.02206e-05
6.77626e-21 0.0156116 1.052e-12 6.30519e-09
1.35525e-20 0.0151553 0.00375102 4.67115e-09
-1.35525e-20 -0.0151554 0.00375107 1.42359e-05
-1.12938e-21 -0.0156 0.0011003 1.11816e-05
0 0.0156 0.0011003 6.31725e-09
0 0.0155873 0.00178843 1.1692e-09
-1.12938e-21 -0.0155873 0.00178845 7.27117e-06
0 0.0152736 0.00381163 4.91603e-09
-1.35525e-20 -0.0152737 0.00381166 1.4477e-05
1.35525e-20 0.015311 0.00369351 4.8144e-09
-4.06576e-20 -0.0153111 0.00369356 1.44603e-05
3.38813e-21 0.0155683 0.00250748 5.83611e-10
2.25875e-21 -0.0155684 0.00250751 4.77105e-06
0 -0.015842 0.000233949 1.99441e-05
-5.42101e-20 0.0158421 0.000233943 7.51042e-09
-4.51751e-22 0.0155232 0.00325344 2.34608e-09
1.35525e-21 -0.0155233 0.00325348 9.30583e-06
0 -0.0158871 0.000762453 1.47526e-05
2.71051e-20 0.0158872 0.000762453 1.1891e-08
-1.35525e-20 0.0154852 0.00363865 4.65171e-09
-1.35525e-20 -0.0154853 0.00363869 1.36936e-05
6.77626e-21 0.0154927 0.00391521 4.54974e-09
0 -0.0154927 0.00391527 1.37591e-05
2.71051e-20 -0.0159268 0.00138123 1.50969e-05
0 0.0159268 0.00138123 2.46412e-09
0 0.0155593 0.00385214 4.41111e-09
1.35525e-20 -0.0155593 0.00385222 1.36145e-05
2.71051e-20 0.0158993 0.00212235 9.24919e-10
2.71051e-20 -0.0158994 0.00212237 4.8553e-06
0 0.0155754 0.0039559 4.1019e-09
0 -0.0155754 0.00395594 1.32287e-05
0 0.0158855 0.00284661 3.99118e-10
0 -0.0158856 0.00284663 5.34621e-06
6.77626e-21 0.0156482 0.00400349 4.0063e-09
1.35525e-20 -0.0156482 0.00400353 1.37348e-05
5.64689e-22 -0.0161504 0.000464681 2.67433e-05
-3.95282e-21 0.0161505 0.000464663 6.1523e-08
-1.35525e-20 0.0156709 0.00394832 4.0024e-09
0 -0.0156709 0.00394837 1.36284e-05
2.25875e-21 0.0157655 0.00368363 2.98922e-09
0 -0.0157655 0.00368367 1.08238e-05
4.23516e-21 0.0162446 7.65639e-14 9.2283e-08
0 -0.0162451 7.54652e-14 3.30515e-05
8.47033e-22 -0.0162671 1.41525e-05 3.32863e-05
0 -0.0162672 1.73772e-06 3.34789e-05
7.19978e-21 0.0162672 1.45818e-05 9.43589e-08
0 0.0162715 1.44085e-06 9.50199e-08
0 0.0159384 0.00346448 7.62969e-10
2.71051e-20 -0.0159385 0.00346452 5.67824e-06
-2.25875e-22 -0.0162375 0.00174474 1.25851e-05
3.95282e-22 0.0162375 0.00174473 3.56235e-09
2.25875e-21 -0.0163344 0.000944398 2.62753e-05
-6.77626e-21 0.0163345 0.00094441 4.5199e-08
0 0.015896 0.00392573 3.56828e-09
-2.71051e-20 -0.0158961 0.00392576 1.30636e-05
-8.87368e-22 -0.0162554 0.00244443 7.15946e-06
5.64689e-22 0.0162554 0.0024444 1.15098e-09
-1.35525e-20 -0.0159402 0.00419462 1.3389e-05
0 0.0159403 0.00419464 4.17304e-09
5.64689e-22 0.0162141 0.0031706 6.14221e-10
-5.64689e-22 -0.0162141 0.00317063 5.63307e-06
0 -0.0159991 0.00414939 1.32242e-05
0 0.0159991 0.00414944 4.18649e-09
1.35525e-20 -0.016026 0.00425069 1.27247e-05
0 0.0160261 0.00425068 4.40005e-09
9.41148e-23 -0.0166367 0.000352811 5.53449e-05
-1.8823e-22 0.0166369 0.00035298 2.07353e-07
0 0.0160816 0.0042869 4.15453e-09
-1.35525e-20 -0.0160816 0.00428693 1.20754e-05
0 0.016105 0.00423208 4.16596e-09
1.35525e-20 -0.016105 0.00423207 1.21202e-05
0 0.016226 0.00384224 2.61296e-09
1.90582e-21 -0.0162262 0.00384229 9.37106e-06
-6.35275e-22 0.0162339 0.00382556 2.54921e-09
0 -0.016234 0.00382567 9.23823e-06
1.05879e-22 0.0162401 0.00384589 2.61245e-09
5.29396e-22 -0.0162402 0.00384591 9.35193e-06
-6.77626e-21 -0.0167083 1.01691e-14 5.45918e-05
-6.77626e-21 0.0167085 1.01518e-14 1.94511e-07
2.71051e-20 -0.0166691 0.00146462 2.04911e-05
-2.71051e-20 0.0166691 0.0014646 5.466e-09
-2.71051e-20 0.0165265 0.00282081 7.36318e-10
2.71051e-20 -0.0165265 0.00282082 6.045e-06
-1.35525e-20 0.0161983 0.00436312 4.23027e-09
6.77626e-21 -0.0161984 0.00436321 1.19742e-05
0 0.0166645 0.00194624 3.23987e-09
0 -0.0166645 0.00194624 1.4365e-05
0 0.0165187 0.00350446 5.50155e-10
0 -0.0165187 0.00350448 5.50922e-06
1.35525e-20 -0.0169424 1.10016e-15 6.78625e-05
-1.35525e-20 0.0169426 1.10457e-15 1.64019e-07
0 0.0163499 0.0044621 4.59505e-09
1.35525e-20 -0.0163499 0.00446215 1.16266e-05
-3.10579e-21 0.0169272 0.000866318 8.05531e-08
2.82344e-22 -0.0169272 0.000866359 4.8196e-05
0 -0.0168736 0.00168495 1.85897e-05
1.35525e-20 0.0168736 0.00168495 5.67756e-09
0 0.0164548 0.00427999 4.70573e-09
0 -0.0164549 0.00428004 1.14878e-05
1.41172e-22 0.0168849 0.00243443 1.96561e-09
-4.23516e-22 -0.0168849 0.00243444 1.15823e-05
-6.77626e-21 -0.0164962 0.00455767 1.23378e-05
6.77626e-21 0.0164963 0.00455763 4.63566e-09
5.64689e-22 0.0168359 0.00316003 7.45055e-10
0 -0.0168359 0.00316005 7.23583e-06
2.03288e-20 -0.0171338 1.74503e-16 8.65509e-05
0 0.0171342 1.75422e-16 2.18578e-07
-5.42101e-20 -0.0170775 0.00142438 2.30006e-05
-2.71051e-20 0.0170775 0.00142436 1.00866e-08
0 -0.0171371 0.000271939 8.84259e-05
-8.13152e-21 0.0171374 0.000272002 2.14853e-07
-2.71051e-20 -0.0170666 0.00192551 1.72949e-05
-2.71051e-20 0.0170666 0.00192552 4.19217e-09
0 0.0167863 0.00388665 1.93379e-09
1.12938e-21 -0.0167864 0.00388666 7.81301e-06
0 0.0166207 0.00463877 4.61322e-09
1.35525e-20 -0.0166207 0.00463882 1.26692e-05
-2.71051e-20 0.0166524 0.00459992 4.67217e-09
1.35525e-20 -0.0166524 0.00459996 1.27378e-05
0 0.0166794 0.00467712 5.09997e-09
1.35525e-20 -0.0166795 0.00467717 1.34691e-05
4.70574e-23 0.0168452 0.00433528 3.66e-09
-1.8823e-22 -0.0168452 0.00433533 1.07192e-05
0 0.0171764 0.00277493 1.2115e-09
2.71051e-20 -0.0171764 0.00277494 1.13055e-05
0 0.0174301 3.02821e-16 1.86881e-07
-1.35525e-20 -0.0174308 3.00143e-16 9.2927e-05
0 0.0168042 0.00464355 5.63431e-09
1.35525e-20 -0.0168042 0.0046436 1.44554e-05
-6.77626e-21 0.0167886 0.00474831 5.86878e-09
-1.35525e-20 -0.0167887 0.00474841 1.49835e-05
-6.77626e-21 0.017449 0.000139075 1.82657e-07
0 -0.0174496 0.000138384 9.32132e-05
0 0.0171294 0.00350658 5.04841e-10
-5.42101e-20 -0.0171294 0.00350658 6.30595e-06
6.77626e-21 0.0175668 -2.95376e-17 1.51179e-07
-6.77626e-21 -0.0175669 -2.94894e-17 9.03944e-05
-1.55289e-21 -0.0175583 0.000896637 6.62693e-05
8.47033e-22 0.0175583 0.000896566 8.48576e-08
4.23516e-22 0.0175189 0.00167533 1.0537e-08
-5.64689e-22 -0.0175189 0.00167527 2.67354e-05
0 -0.0176062 4.62633e-05 9.13303e-05
0 0.0176064 4.65549e-05 1.56935e-07
0 -0.0176089 -8.34911e-18 9.13997e-05
-6.77626e-21 0.0176091 -8.34566e-18 1.56814e-07
-5.42101e-20 0.0171399 0.00413685 1.02058e-09
2.71051e-20 -0.01714 0.00413687 6.2153e-06
0 -0.0176343 -4.66438e-18 9.3039e-05
6.77626e-21 0.0176347 -4.59267e-18 1.51779e-07
2.71051e-20 0.0170445 0.00462908 5.82388e-09
-2.71051e-20 -0.0170446 0.00462915 1.54753e-05
5.64689e-22 0.0175376 0.00228764 3.2424e-09
5.64689e-22 -0.0175376 0.00228764 1.72708e-05
1.35525e-20 0.0170023 0.00488776 6.61903e-09
1.35525e-20 -0.0170024 0.00488785 1.64266e-05
0 -0.0176972 4.73616e-05 9.76339e-05
0 0.017698 4.76654e-05 1.40731e-07
0 -0.0177005 -1.62469e-17 9.76263e-05
6.77626e-21 0.0177013 -1.6206e-17 1.40762e-07
9.03502e-22 0.0174646 0.00310785 1.21939e-09
1.91994e-21 -0.0174646 0.00310784 1.04708e-05
0 0.0171112 0.00481659 6.64341e-09
-1.35525e-20 -0.0171113 0.00481669 1.63787e-05
0 0.0171346 0.00497401 6.59198e-09
1.35525e-20 -0.0171347 0.00497414 1.59119e-05
-4.51751e-21 0.0174342 0.00383429 7.48104e-10
1.12938e-21 -0.0174342 0.0038343 7.30472e-06
-2.71051e-20 0.0172171 0.00502787 6.64637e-09
-1.35525e-20 -0.0172173 0.005028 1.56108e-05
1.35525e-20 0.0172554 0.00493142 6.65956e-09
0 -0.0172556 0.00493155 1.57337e-05
-3.76459e-22 0.0174076 0.00453333 4.08005e-09
-1.69407e-21 -0.0174076 0.00453337 1.21901e-05
-2.71051e-20 0.0177905 0.00276845 1.85869e-09
2.71051e-20 -0.0177905 0.00276845 1.23444e-05
0 0.0177573 0.00348298 6.44895e-10
-2.71051e-20 -0.0177574 0.003483 9.59085e-06
-6.77626e-21 0.017378 0.00513278 6.67987e-09
6.77626e-21 -0.0173781 0.00513291 1.65282e-05
0 0.0174497 0.00517959 6.87644e-09
6.77626e-21 -0.0174498 0.00517965 1.66052e-05
0 0.0177264 0.00417356 7.98154e-10
-2.71051e-20 -0.0177264 0.00417357 7.30533e-06
6.77626e-21 0.0175029 0.00510088 6.98718e-09
0 -0.0175029 0.005101 1.65981e-05
5.42101e-20 -0.0181611 0.00171797 3.58528e-05
0 0.0181612 0.00171798 7.57107e-09
6.77626e-21 -0.0175201 0.0052255 1.79308e-05
1.35525e-20 0.0175201 0.00522553 6.96991e-09
-5.42101e-20 -0.0182822 0.000515621 0.000127516
0 0.0182823 0.000515628 6.1381e-08
1.05879e-22 0.0181327 0.00240414 3.35211e-09
-1.2282e-20 -0.0181332 0.00240535 2.18841e-05
-1.05879e-21 -0.0181316 0.00242435 2.16663e-05
1.05879e-22 0.0181316 0.0024249 3.2975e-09
-3.01167e-21 0.0176138 0.0049468 6.82256e-09
0 -0.0176139 0.00494683 1.60503e-05
0 0.0180947 0.00311468 1.41107e-09
0 -0.0180947 0.00311469 1.38509e-05
0 0.0180563 0.00382343 7.08035e-10
2.25875e-21 -0.0180564 0.00382344 9.49606e-06
0 -0.0177083 0.00534827 2.062e-05
0 0.0177083 0.00534827 6.96404e-09
0 -0.0177632 0.00528867 2.08765e-05
0 0.0177632 0.00528872 7.11762e-09
-4.51751e-21 0.0179883 0.0045481 2.65224e-09
-2.25875e-21 -0.0179884 0.00454809 1.20356e-05
2.71051e-20 0.0178024 0.00540967 8.13146e-09
2.71051e-20 -0.0178025 0.0054097 2.26448e-05
2.71051e-20 -0.0184402 0.00274762 2.24871e-05
0 0.0184402 0.00274761 2.26419e-09
2.25875e-21 0.0180053 0.00502464 5.66975e-09
-1.807e-21 -0.0180053 0.00502466 1.85859e-05
0 0.0183918 0.00345434 8.80569e-10
2.71051e-20 -0.0183918 0.00345433 1.11715e-05
6.77626e-21 0.0179451 0.00550277 9.9728e-09
6.77626e-21 -0.0179453 0.00550285 2.71381e-05
-2.71051e-20 0.0183611 0.00415361 5.1355e-10
0 -0.0183611 0.00415361 9.92395e-06
0 0.0188421 7.04156e-05 6.03701e-08
-1.35525e-20 -0.0188422 7.03634e-05 0.000136473
0 0.0188477 1.10464e-18 6.0372e-08
0 -0.0188477 1.06275e-18 0.000136483
1.12938e-21 -0.0188602 0.00112833 9.54396e-05
4.51751e-21 0.0188602 0.00112834 3.49543e-08
-6.77626e-21 -0.0180592 0.00557717 2.84393e-05
1.35525e-20 0.0180593 0.00557723 1.02399e-08
0 0.0181347 0.00538311 9.62544e-09
-4.51751e-21 -0.0181348 0.00538307 2.73137e-05
-1.35525e-20 -0.018942 6.21258e-19 0.000138219
-1.35525e-20 0.018942 6.17799e-19 6.15587e-08
-1.12938e-21 -0.0188166 0.00228404 3.45189e-05
-4.51751e-21 0.0188167 0.00228404 4.72088e-09
0 0.0183535 0.00480356 1.36048e-09
0 -0.0183536 0.00480356 1.25682e-05
-5.64689e-22 -0.0187311 0.00307208 2.02457e-05
-1.41172e-22 0.0187311 0.00307209 1.91527e-09
0 -0.0190249 8.52317e-05 0.000141002
1.35525e-20 0.019025 8.52886e-05 6.07021e-08
0 -0.0190315 5.66653e-19 0.000141036
1.35525e-20 0.0190316 5.63374e-19 6.0696e-08
-1.35525e-20 -0.0182205 0.00568238 2.7479e-05
-1.35525e-20 0.0182205 0.00568238 9.66035e-09
-4.5881e-22 0.0187398 0.00374577 8.76922e-10
-1.76465e-22 -0.0187398 0.00374577 1.4923e-05
-1.12938e-21 0.0186713 0.00447942 7.85346e-10
-1.12938e-21 -0.0186713 0.00447942 1.38457e-05
-1.35525e-20 0.0183608 0.00577389 1.04844e-08
6.77626e-21 -0.0183608 0.00577392 2.84526e-05
1.35525e-20 0.018471 0.00561106 9.97927e-09
1.6263e-20 -0.018471 0.00561103 2.77193e-05
3.61401e-21 -0.0186129 0.00519728 2.12572e-05
2.71051e-21 0.0186129 0.00519728 4.81928e-09
0 -0.0191646 0.00284903 2.55692e-05
-2.71051e-20 0.0191646 0.00284904 2.66659e-09
-6.77626e-21 -0.0184854 0.00585516 2.85725e-05
1.35525e-20 0.0184855 0.00585524 1.02616e-08
2.71051e-20 0.0191555 0.0033016 1.51717e-09
-2.71051e-20 -0.0191555 0.00330159 2.35426e-05
-2.71051e-20 -0.0190101 0.00412452 1.65137e-05
-2.71051e-20 0.0190101 0.00412452 6.32356e-10
0 -0.0185922 0.00576694 2.83629e-05
0 0.0185922 0.00576709 9.8099e-09
0 -0.0186006 0.00593031 2.7894e-05
1.35525e-20 0.0186007 0.00593035 8.62149e-09
0 -0.0195235 0.000571337 0.000149994
0 0.0195235 0.000571339 5.99114e-08
-5.42101e-20 -0.0194631 0.0017685 6.45134e-05
0 0.0194631 0.0017685 8.47413e-09
1.69407e-21 -0.0194127 0.0024132 3.94835e-05
0 0.0194127 0.00241321 4.61135e-09
0 -0.0189749 0.00481043 1.64938e-05
-2.71051e-20 0.0189749 0.00481044 6.2558e-10
0 -0.0193686 0.00306998 2.63913e-05
0 0.0193686 0.00306998 2.19541e-09
-4.51751e-21 -0.0188275 0.00563325 2.56958e-05
1.50584e-21 0.0188275 0.00563327 6.71317e-09
2.03288e-20 0.0187165 0.00600599 9.16912e-09
-6.77626e-21 -0.0187166 0.00600601 3.1078e-05
1.35525e-20 0.018758 0.00590207 9.01259e-09
0 -0.0187581 0.00590201 3.01689e-05
-1.27055e-21 0.0193727 0.00376105 1.16673e-09
8.47033e-22 -0.0193727 0.00376105 2.36571e-05
-2.71051e-20 -0.0190128 0.00540896 1.94933e-05
-2.71051e-20 0.0190128 0.00540898 1.69284e-09
0 -0.0195979 0.00284199 3.12688e-05
0 0.0195979 0.00284199 2.85051e-09
-2.25875e-21 -0.0193152 0.00445137 2.08585e-05
-2.25875e-21 0.0193152 0.00445138 7.45628e-10
0 -0.0189326 0.00587663 3.05654e-05
0 0.0189326 0.00587667 8.53123e-09
6.77626e-21 -0.0188663 0.00610385 3.25584e-05
-2.71051e-20 0.0188665 0.006104 9.67132e-09
5.42101e-20 -0.0195614 0.00328798 2.68443e-05
2.71051e-20 0.0195614 0.00328799 1.78459e-09
0 -0.0189889 0.00604035 3.23254e-05
-2.71051e-20 0.0189891 0.00604056 9.75806e-09
0 -0.0192967 0.00511377 2.07323e-05
2.25875e-21 0.0192967 0.00511379 1.07213e-09
0 -0.0190006 0.00619146 3.04731e-05
1.35525e-20 0.0190007 0.00619154 9.62737e-09
0 0.0200621 6.76767e-05 6.10811e-08
-1.35525e-20 -0.0200621 6.76484e-05 0.000150196
-1.35525e-20 0.020064 4.17066e-20 6.1075e-08
-1.35525e-20 -0.020064 4.17839e-20 0.000150194
0 0.0196641 0.0040803 1.02234e-09
0 -0.0196641 0.0040803 2.6034e-05
0 -0.0190835 0.00626078 2.92004e-05
-1.35525e-20 0.0190836 0.0062608 9.7752e-09
0 -0.0191312 0.00616555 2.96861e-05
1.35525e-20 0.0191312 0.00616565 9.82194e-09
-6.77626e-21 0.0201001 0.00115692 3.55625e-08
1.12938e-21 -0.0201001 0.00115692 0.000112291
0 0.020134 -1.86019e-22 6.13051e-08
0 -0.020134 -2.64365e-22 0.000150099
1.8823e-21 -0.0192828 0.00579514 2.73986e-05
1.8823e-21 0.0192828 0.00579515 6.05814e-09
0 -0.0196202 0.00477317 2.44278e-05
0 0.0196202 0.00477318 7.08509e-10
0 -0.0201991 6.47227e-05 0.000150596
0 0.0201991 6.47462e-05 6.13047e-08
0 -0.020202 -1.30738e-21 0.000150601
0 0.020202 -1.26102e-21 6.13042e-08
-1.12938e-21 0.0200841 0.00236289 5.78966e-09
2.25875e-21 -0.0200841 0.00236289 5.56723e-05
2.82344e-22 0.0200029 0.003057 2.615e-09
1.41172e-22 -0.0200038 0.00305581 3.70187e-05
-1.35525e-20 0.0192378 0.00638357 9.91977e-09
-1.35525e-20 -0.0192378 0.00638366 3.41411e-05
0 -0.0195958 0.00544032 2.28206e-05
5.42101e-20 0.0195959 0.00544034 1.19999e-09
0 -0.0193039 0.00643681 3.48611e-05
0 0.0193041 0.00643685 1.03302e-08
0 0.0200275 0.00361572 1.80272e-09
-5.64689e-22 -0.0200275 0.00361572 3.65011e-05
6.77626e-21 -0.0193634 0.00636556 3.48579e-05
0 0.0193636 0.00636543 1.05654e-08
0 -0.0193735 0.00649738 3.59982e-05
0 0.0193738 0.00649756 1.00909e-08
-1.01644e-21 -0.01996 0.00438812 3.47826e-05
1.01644e-21 0.01996 0.00438813 1.24101e-09
0 -0.0194904 0.00622237 3.41455e-05
0 0.0194905 0.00622241 1.04714e-08
2.25875e-21 -0.019924 0.00509886 3.01587e-05
0 0.019924 0.00509886 1.03296e-09
0 -0.0195415 0.00664813 4.11839e-05
-1.35525e-20 0.0195417 0.00664818 9.59714e-09
0 0.0202851 0.004065 1.77667e-09
-2.71051e-20 -0.0202851 0.004065 4.5094e-05
-2.25875e-21 -0.0198605 0.00581199 3.02516e-05
2.25875e-21 0.0198605 0.00581203 3.99174e-09
2.71051e-20 -0.0196164 0.00659812 4.09419e-05
-1.35525e-20 0.0196165 0.00659819 9.79215e-09
0 0.0207232 0.000580771 6.25493e-08
5.42101e-20 -0.0207232 0.000580775 0.000150806
0 -0.0196177 0.00671647 4.0428e-05
0 0.0196179 0.00671645 1.071e-08
-5.42101e-20 0.020698 0.00176856 9.56898e-09
0 -0.020698 0.00176856 8.13439e-05
2.71051e-20 0.020263 0.00474092 1.26468e-09
2.71051e-20 -0.020263 0.00474092 4.2767e-05
0 -0.0196919 0.00678279 3.76776e-05
0 0.019692 0.0067827 9.30684e-09
0 -0.0197373 0.00670394 3.80108e-05
-2.71051e-20 0.0197374 0.00670392 9.53718e-09
-5.42101e-20 0.0206519 0.00305779 3.20637e-09
-5.42101e-20 -0.0206519 0.0030578 5.48386e-05
-2.42009e-22 -0.0199196 0.00639126 3.65241e-05
0 0.0199197 0.00639124 7.3368e-09
0 -0.0202264 0.00542436 3.09636e-05
-2.71051e-20 0.0202264 0.00542437 9.56639e-10
0 0.0206219 0.00374923 2.67353e-09
0 -0.0206228 0.00375111 5.42265e-05
-1.35525e-20 0.0198641 0.00693674 9.19067e-09
1.35525e-20 -0.0198641 0.00693696 4.02338e-05
0 0.0205958 0.00438945 2.23725e-09
0 -0.0205958 0.00438945 5.2628e-05
2.71051e-20 -0.0202261 0.00606702 3.04254e-05
2.71051e-20 0.0202262 0.00606702 1.58346e-09
-6.77626e-21 -0.019943 0.00700755 4.02123e-05
-6.77626e-21 0.0199432 0.00700748 9.14382e-09
-6.77626e-21 -0.0200066 0.00693929 4.01197e-05
6.77626e-21 0.0200069 0.00693907 9.3855e-09
0 -0.0205707 0.00506212 4.68409e-05
0 0.0205707 0.00506212 1.73837e-09
6.77626e-21 -0.0200222 0.00707844 4.08492e-05
6.77626e-21 0.0200226 0.00707852 9.00212e-09
0 -0.0201294 0.00680929 3.95841e-05
-1.50584e-21 0.0201295 0.00680925 9.31838e-09
0 0.0212882 4.76335e-05 6.51797e-08
0 -0.0212882 4.76249e-05 0.000147148
0 0.0212888 7.24532e-22 6.51739e-08
-6.77626e-21 -0.0212888 7.03329e-22 0.000147156
0 -0.0209335 0.00403737 6.26305e-05
0 0.0209335 0.00403737 3.24059e-09
0 -0.0205488 0.00572803 3.82425e-05
0 0.0205489 0.00572802 1.47948e-09
-6.77626e-21 -0.0213388 -2.81944e-23 0.000146796
0 0.0213388 -2.94246e-23 6.54017e-08
1.12938e-21 0.0213183 0.00116254 3.80534e-08
-3.38813e-21 -0.0213183 0.00116254 0.000121131
0 -0.0213864 4.64669e-05 0.000146728
-6.77626e-21 0.0213864 4.6476e-05 6.56274e-08
-6.77626e-21 -0.0213874 -2.6147e-23 0.000146729
-6.77626e-21 0.0213874 -2.73181e-23 6.5628e-08
-2.71051e-20 0.0208978 0.00471075 2.65983e-09
-2.71051e-20 -0.0208978 0.00471075 5.99464e-05
-5.64689e-22 0.0212954 0.00239197 7.31808e-09
0 -0.0212954 0.00239197 8.82025e-05
2.71051e-20 -0.0201947 0.00723274 4.40319e-05
1.35525e-20 0.020195 0.00723268 8.82127e-09
-2.25875e-21 -0.0204968 0.00642258 3.79729e-05
-9.03502e-21 0.0204969 0.00642257 3.9631e-09
1.35525e-20 -0.0202705 0.00718367 4.37461e-05
-1.35525e-20 0.0202707 0.00718366 9.00741e-09
2.71051e-20 -0.0202683 0.00729857 4.31195e-05
-2.71051e-20 0.0202686 0.00729845 1.00199e-08
-2.71051e-20 -0.0208996 0.00536218 5.3126e-05
-2.71051e-20 0.0208996 0.00536217 2.04432e-09
0 -0.0203418 0.00736426 3.96506e-05
2.71051e-20 0.020342 0.00736407 8.70727e-09
-5.64689e-23 0.0213396 0.00363556 4.57728e-09
-5.64689e-23 -0.0213396 0.00363555 7.76203e-05
1.35525e-20 -0.0203851 0.00728766 4.00739e-05
1.35525e-20 0.0203852 0.00728755 8.91041e-09
-9.41148e-22 -0.0212333 0.00436374 6.96987e-05
3.76459e-22 0.0212333 0.00436374 3.9773e-09