# omega  POINT_DATA 14232
# x  y  z  omega
0 -0.0115468 6.39774e-08 1225.11
0 0.0115468 6.39774e-08 1224.75
0 -0.0115468 0.000159933 1228.95
6.77626e-21 0.0115468 0.000159966 1228.59
1.35525e-20 -0.0115468 0.000505149 1408.73
0 0.0115468 0.000505252 1408.37
0 -0.0115468 0.000661354 1595
0 0.0115468 0.00066149 1594.66
-6.77626e-21 -0.0115468 0.000824682 1791.39
0 0.0115468 0.000824823 1791.05
6.77626e-21 -0.0115467 0.00119323 2063.74
-6.77626e-21 0.0115467 0.00119337 2063.4
0 0.0116176 9.48413e-05 1208.6
0 -0.0116176 9.48284e-05 1208.94
0 0.0116191 6.70002e-08 1208.91
0 -0.0116191 6.70007e-08 1209.26
0 -0.0115467 0.00135636 2165.29
0 0.0115467 0.0013565 2164.98
0 -0.0116144 0.000567788 1454.62
0 0.0116144 0.000567904 1454.28
-1.35525e-20 -0.0116106 0.000748384 1683.87
0 0.0116106 0.000748514 1683.54
0 -0.0115467 0.00152899 2308.21
6.77626e-21 0.0115467 0.00152911 2307.94
-1.35525e-20 -0.0116105 0.00124699 2052.45
1.35525e-20 0.0116105 0.00124712 2052.12
0 -0.0116054 0.00142615 2204.34
-1.35525e-20 0.0116054 0.00142627 2204.06
6.77626e-21 -0.0115467 0.00190899 2029.15
0 0.0115467 0.00190902 2028.82
1.35525e-20 0.0117276 6.6334e-08 1116.51
-1.35525e-20 -0.0117276 6.63364e-08 1116.92
-6.77626e-21 -0.0117103 0.000650495 1309.83
2.03288e-20 0.0117103 0.000650588 1307.95
-1.35525e-20 0.0115467 0.002087 1518.11
1.35525e-20 -0.0115467 0.002087 1518.5
0 -0.011609 0.00193563 1819.17
0 0.011609 0.00193565 1818.82
-6.77626e-21 -0.0117025 0.00130867 1656.34
6.77626e-21 0.0117025 0.00130876 1657.66
0 0.0116004 0.00211165 1320.76
-1.35525e-20 -0.0116004 0.00211165 1321.2
0 0.0116425 0.00204727 1361.36
-1.35525e-20 -0.0116425 0.00204727 1361.8
1.35525e-20 0.0116584 0.00213829 1403.14
-1.35525e-20 -0.0116585 0.00213829 1403.61
-1.35525e-20 -0.0117067 0.00192898 1328.06
-1.35525e-20 0.0117067 0.00192897 1324.79
4.51751e-21 -0.0118537 0.000959072 1497.38
4.51751e-21 0.0118537 0.000959138 1497.05
-4.51751e-21 0.0119178 0.000318651 1050.64
-1.12938e-20 -0.0119179 0.00031862 1051.52
1.35525e-20 0.011932 7.04551e-08 1045.54
-1.35525e-20 -0.011932 7.04586e-08 1045.94
2.71051e-21 -0.0118325 0.00163065 1790.93
0 0.0118325 0.00163068 1788.81
-1.35525e-20 -0.0118724 0.00142181 1417.34
0 0.0118724 0.00142183 1419.16
-1.35525e-20 0.0117615 0.0021856 1169.89
0 -0.0117616 0.0021856 1170.42
-5.42101e-20 0.0118132 0.00220929 1298.4
-2.71051e-20 -0.0118132 0.00220929 1298.9
-3.76459e-22 0.0118989 0.00195768 1168.73
-2.63521e-21 -0.0118989 0.00195769 1169.51
0 -0.0119718 0.0015384 1067.75
6.77626e-21 0.0119718 0.0015384 1109.71
0 0.0120982 7.96187e-08 972.159
0 -0.0120983 7.96213e-08 972.764
4.06576e-21 -0.0120695 0.00085261 834.844
-2.71051e-21 0.0120694 0.000852623 868.495
0 0.0122081 0.000167123 913.203
-2.71051e-20 -0.0122082 0.000167145 913.86
0 0.012221 7.14632e-08 913.139
0 -0.012221 7.14627e-08 913.795
2.71051e-21 0.0121684 0.00122551 661.205
-1.95759e-21 -0.0121684 0.00122551 652.196
-2.71051e-20 0.012025 0.00230651 1802.98
6.77626e-21 -0.0120251 0.00230652 1803.57
3.22679e-21 0.0122349 0.000642359 721.502
1.29072e-21 -0.0122349 0.000642359 724.806
-1.01644e-20 0.0120594 0.00232227 1833.63
0 -0.0120594 0.00232227 1834.17
0 0.0122855 6.71739e-08 907.596
2.71051e-20 -0.0122856 6.71709e-08 908.385
1.97641e-21 0.0122109 0.00173628 877.629
-2.82344e-22 -0.0122109 0.0017363 882.32
-5.42101e-21 0.0121468 0.002146 1735.89
8.13152e-21 -0.0121468 0.00214601 1736.4
-6.77626e-21 0.0122263 0.00229071 1916.97
6.77626e-21 -0.0122264 0.00229075 1917.49
0 0.0124605 5.58013e-08 887.065
0 -0.0124606 5.57971e-08 888.004
0 0.0125121 0.000225139 867.346
0 -0.0125121 0.00022516 868.363
0 0.0122889 0.00242764 2001.59
0 -0.012289 0.00242766 2002.06
0 0.0125901 0.000921782 204.461
-2.71051e-20 -0.0125902 0.000921784 236.599
-1.35525e-20 0.012401 0.00241701 2276.14
0 -0.0124011 0.00241703 2276.37
-6.77626e-21 0.0123956 0.00247648 2359.86
-6.77626e-21 -0.0123956 0.00247647 2360.05
-3.38813e-21 0.0124525 0.00218686 1572.41
-1.69407e-21 -0.0124525 0.00218688 1579
0 0.0125382 0.00209403 931.855
2.71051e-20 -0.0125382 0.00209406 947.844
1.0842e-20 0.0126447 0.00162116 303.246
2.71051e-20 -0.0126447 0.00162119 334.337
1.35525e-20 -0.012772 0.000141272 845.8
0 0.0127721 0.000141226 844.457
1.35525e-20 -0.0127747 1.51153e-08 845.937
1.35525e-20 0.0127748 1.5111e-08 844.595
-2.71051e-21 -0.0126131 0.00241882 2395.14
-1.35525e-20 0.0126131 0.00241885 2394.95
1.35525e-20 -0.0125862 0.00256375 2570.09
-2.71051e-20 0.0125863 0.00256377 2569.86
0 -0.0129279 4.53095e-09 846.12
0 0.0129279 4.5309e-09 844.577
9.03502e-21 0.0129181 0.000605376 518.962
-1.88079e-37 -0.0129182 0.000605392 534.098
-2.25875e-21 0.0129069 0.00122274 167.727
0 -0.012907 0.00122277 199.869
0 -0.0127463 0.00263701 1908.13
-2.71051e-20 0.0127464 0.00263706 1907.52
-9.03502e-21 0.0128745 0.00194112 462.446
-4.51751e-21 -0.0128746 0.00194114 489.253
0 0.0130689 3.79654e-09 858.171
0 -0.0130689 3.79638e-09 859.836
2.71051e-20 0.0130684 0.000129725 857.913
-1.35525e-20 -0.0130685 0.000129752 859.575
-4.51751e-21 0.0129105 0.00229689 1351.23
-2.25875e-21 -0.0129106 0.00229692 1362.54
-8.13152e-21 0.0131166 0.0016405 245.778
8.13152e-21 -0.0131166 0.00164056 275.086
0 0.013248 0.000302964 872.073
2.71051e-20 -0.013248 0.000302967 873.945
-6.77626e-21 -0.0129823 0.00274604 1655.54
2.71051e-20 0.0129824 0.00274607 1654.49
0 0.0132464 0.000911472 152.254
-2.71051e-20 -0.0132464 0.000911494 178.174
9.03502e-21 0.0131304 0.00262467 1650.01
0 -0.0131304 0.00262473 1651.06
2.71051e-20 0.0132415 0.00211425 287.662
0 -0.0132416 0.0021143 313.522
1.35525e-20 0.0131185 0.00280836 1559.28
0 -0.0131186 0.00280842 1560.4
-1.35525e-20 -0.013437 2.08369e-09 889.866
-1.35525e-20 0.013437 2.0834e-09 887.877
0 -0.0134397 0.000120667 889.873
-1.35525e-20 0.0134397 0.000120639 887.883
-1.35525e-20 0.0135679 1.40563e-09 898.209
0 -0.0135679 1.40572e-09 900.282
0 0.0135763 0.00059667 528.998
0 -0.0135763 0.000596688 543.295
9.03502e-21 0.0135724 0.00122413 121.147
2.25875e-21 -0.0135724 0.00122416 150.913
2.71051e-20 0.0133498 0.00291517 1383.74
-2.71051e-20 -0.0133499 0.00291524 1384.99
6.77626e-21 0.0134778 0.00238384 832.913
-6.77626e-21 -0.013478 0.00238391 850.212
-4.51751e-21 0.0135676 0.00185527 160.896
-6.77626e-21 -0.0135677 0.00185532 192.853
1.35525e-20 0.0136939 1.2223e-09 908.256
0 -0.013694 1.22233e-09 910.395
0 0.0136952 0.000110039 908.021
-1.35525e-20 -0.0136952 0.000110069 910.159
2.03288e-20 -0.0135431 0.00300575 879.2
3.72694e-20 0.0135431 0.00300574 877.305
0 -0.0139035 0.000294194 927.069
0 0.0139035 0.000294183 924.807
1.69407e-20 0.0135877 0.0030267 854.542
-1.69407e-20 -0.013588 0.00302686 856.293
0 0.0139156 0.000900746 149.328
0 -0.0139156 0.000900767 176.879
-4.51751e-21 0.0136798 0.00276423 945.183
-4.51751e-21 -0.0136798 0.00276433 948.526
2.71051e-20 0.0139125 0.00154327 74.9256
0 -0.0139126 0.00154331 105.475
-2.71051e-20 0.0138987 0.00219587 164.685
-2.71051e-20 -0.0138988 0.00219593 201.796
0 -0.0141099 3.98855e-10 952.409
-1.35525e-20 0.01411 3.98723e-10 950.077
1.35525e-20 -0.0141138 9.87932e-05 952.473
1.35525e-20 0.0141138 9.87563e-05 950.141
-1.35525e-20 0.0138003 0.00312616 1143.66
-1.35525e-20 -0.0138004 0.00312625 1145.05
0 -0.0142228 2.30732e-10 976.134
0 0.0142228 2.30673e-10 973.782
-2.25875e-21 0.0142415 0.000580992 565.515
-4.51751e-21 -0.0142415 0.000581005 579.381
-1.12938e-21 0.0142522 0.0012064 111.051
1.12938e-21 -0.0142522 0.00120643 141.298
-1.35525e-20 0.0143301 2.07135e-10 984.302
0 -0.0143301 2.07176e-10 986.688
0 0.0143313 8.88715e-05 984.076
0 -0.0143313 8.89061e-05 986.461
-6.77626e-21 0.013971 0.00320516 1156.94
-1.35525e-20 -0.0139711 0.00320521 1158.36
2.25875e-21 0.0142439 0.0018749 99.4403
-1.12938e-21 -0.014244 0.00187495 137.285
0 0.0140732 0.00302489 1203.69
-2.71051e-21 -0.0140733 0.003025 1205.09
9.03502e-22 0.0141848 0.00260879 620.464
-9.03502e-22 -0.014185 0.00260885 653.122
6.77626e-21 0.0140966 0.0032633 1324.7
0 -0.014097 0.00326346 1326.37
0 0.0142071 0.00316519 1429.82
-1.35525e-20 -0.0142074 0.00316541 1431.34
0 -0.0145609 0.000281732 1012.13
-2.71051e-20 0.0145609 0.000281727 1009.68
0 0.0145815 0.000874352 157.041
0 -0.0145815 0.000874372 180.792
-1.35525e-20 0.0142355 0.00332755 1666.8
2.71051e-20 -0.0142357 0.00332766 1668.09
0 0.0145904 0.00151948 61.2512
2.71051e-20 -0.0145905 0.00151951 100.252
0 0.0145713 0.00221296 92.7544
0 -0.0145714 0.00221301 136.07
0 0.014357 0.00338361 1735.17
1.35525e-20 -0.0143572 0.00338367 1736.49
4.51751e-21 0.0144398 0.00302856 1232.87
-6.02335e-21 -0.0144401 0.00302864 1262.8
-1.35525e-20 0.0143822 0.00330545 1732.49
-1.35525e-20 -0.0143823 0.00330556 1733.8
-1.35525e-20 -0.0147852 4.2202e-11 1058.57
0 0.0147853 4.21645e-11 1056.1
-1.35525e-20 -0.0147878 7.95663e-05 1058.6
-1.35525e-20 0.0147879 7.95165e-05 1056.13
-1.35525e-20 -0.0148815 2.04947e-11 1094.72
1.35525e-20 0.0148815 2.04768e-11 1092.21
2.71051e-20 0.0146213 0.00280153 326.212
0 -0.0146214 0.00280159 417.814
-2.25875e-21 -0.0149014 0.000554709 651.118
-4.51751e-21 0.0149014 0.000554705 629.171
0 0.0145853 0.00326151 2023.97
-2.71051e-20 -0.0145855 0.00326159 2025.27
1.12938e-21 0.014922 0.00116916 112.534
-1.12938e-21 -0.014922 0.00116918 154.613
0 0.0149733 1.85798e-11 1102.26
-1.35525e-20 -0.0149733 1.85939e-11 1104.78
0 0.0149737 7.37377e-05 1102.02
0 -0.0149738 7.37977e-05 1104.54
2.71051e-20 0.0146077 0.00349933 1678.21
1.35525e-20 -0.014608 0.00349943 1679.63
-1.12938e-21 0.0149197 0.00184904 67.3289
0 -0.0149198 0.00184907 111.244
0 0.0146661 0.00343238 1668.13
0 -0.0146663 0.00343252 1669.56
0 0.0149194 0.00252068 168.3
-1.12938e-21 -0.0149195 0.00252073 233.061
2.71051e-20 0.0147321 0.00355666 1559.36
0 -0.0147322 0.00355672 1560.9
-2.25875e-21 0.0148879 0.00309611 948.71
0 -0.0148881 0.00309617 988.872
0 -0.0152102 0.000264579 1149.42
2.71051e-20 0.0152103 0.00026457 1146.91
0 -0.0152372 0.000832817 232.241
2.71051e-20 0.0152372 0.000832812 172.884
0 0.0148481 0.0036099 1178.12
0 -0.0148482 0.00360994 1180.09
0 0.0148927 0.003477 1285.11
1.35525e-20 -0.0148928 0.00347709 1286.96
-2.71051e-20 0.0152552 0.00147323 56.7535
2.71051e-20 -0.0152552 0.00147325 103.292
2.71051e-20 0.0152472 0.00216851 58.5263
5.42101e-20 -0.0152472 0.00216853 105.369
0 -0.0154526 2.80546e-12 1266.32
0 0.0154528 2.79932e-12 1263.89
0 -0.0154539 6.4364e-05 1266.44
0 0.0154541 6.42863e-05 1264.01
-2.71051e-20 0.0150217 0.00368977 1050.8
2.71051e-20 -0.0150218 0.00368985 1052.75
0 0.0150964 0.00340472 1037.5
2.71051e-20 -0.0150966 0.00340477 1039.46
0 0.0152384 0.002848 175.842
0 -0.0152385 0.00284804 250.856
0 -0.0155344 1.12584e-12 1330.07
0 0.0155345 1.12356e-12 1327.52
2.71051e-20 0.015136 0.00358108 1113.83
0 -0.0151361 0.00358119 1115.72
0 -0.0155483 0.000512811 800.463
0 0.0155483 0.000512813 765.432
0 -0.0156089 5.68786e-05 1357.6
6.77626e-21 0.0156089 5.68083e-05 1355.08
0 -0.0156116 1.05395e-12 1354.61
6.77626e-21 0.0156116 1.052e-12 1352.09
1.35525e-20 0.0151553 0.00375102 1261.67
-1.35525e-20 -0.0151554 0.00375107 1263.37
-1.12938e-21 -0.0156 0.0011003 193.446
0 0.0156 0.0011003 132.844
0 0.0155873 0.00178843 54.663
-1.12938e-21 -0.0155873 0.00178845 102.933
0 0.0152736 0.00381163 1266.57
-1.35525e-20 -0.0152737 0.00381166 1268.28
1.35525e-20 0.015311 0.00369351 1276.46
-4.06576e-20 -0.0153111 0.00369356 1278.17
3.38813e-21 0.0155683 0.00250748 93.7533
2.25875e-21 -0.0155684 0.00250751 150.277
0 -0.015842 0.000233949 1472.66
-5.42101e-20 0.0158421 0.000233943 1470.24
-4.51751e-22 0.0155232 0.00325344 681.24
1.35525e-21 -0.0155233 0.00325348 731.543
0 -0.0158871 0.000762453 291.804
2.71051e-20 0.0158872 0.000762453 215.363
-1.35525e-20 0.0154852 0.00363865 1417.55
-1.35525e-20 -0.0154853 0.00363869 1419.16
6.77626e-21 0.0154927 0.00391521 1586.07
0 -0.0154927 0.00391527 1587.64
2.71051e-20 -0.0159268 0.00138123 121.857
0 0.0159268 0.00138123 60.3396
0 0.0155593 0.00385214 1652.14
1.35525e-20 -0.0155593 0.00385222 1653.66
2.71051e-20 0.0158993 0.00212235 43.8318
2.71051e-20 -0.0158994 0.00212237 83.2876
0 0.0155754 0.0039559 1810.52
0 -0.0155754 0.00395594 1811.88
0 0.0158855 0.00284661 92.5599
0 -0.0158856 0.00284663 155.645
6.77626e-21 0.0156482 0.00400349 1832.18
1.35525e-20 -0.0156482 0.00400353 1833.56
5.64689e-22 -0.0161504 0.000464681 815.155
-3.95282e-21 0.0161505 0.000464663 777.576
-1.35525e-20 0.0156709 0.00394832 1836.47
0 -0.0156709 0.00394837 1837.84
2.25875e-21 0.0157655 0.00368363 1340.5
0 -0.0157655 0.00368367 1382.36
4.23516e-21 0.0162446 7.65639e-14 1141.4
0 -0.0162451 7.54652e-14 1145.32
8.47033e-22 -0.0162671 1.41525e-05 1131.48
0 -0.0162672 1.73772e-06 1142.04
7.19978e-21 0.0162672 1.45818e-05 1126.04
0 0.0162715 1.44085e-06 1137.96
0 0.0159384 0.00346448 348.407
2.71051e-20 -0.0159385 0.00346452 471.942
-2.25875e-22 -0.0162375 0.00174474 104.939
3.95282e-22 0.0162375 0.00174473 56.1806
2.25875e-21 -0.0163344 0.000944398 303.54
-6.77626e-21 0.0163345 0.00094441 244.442
0 0.015896 0.00392573 2210.16
-2.71051e-20 -0.0158961 0.00392576 2211.36
-8.87368e-22 -0.0162554 0.00244443 118.09
5.64689e-22 0.0162554 0.0024444 64.8485
-1.35525e-20 -0.0159402 0.00419462 1860.74
0 0.0159403 0.00419464 1859.43
5.64689e-22 0.0162141 0.0031706 172.135
-5.64689e-22 -0.0162141 0.00317063 255.884
0 -0.0159991 0.00414939 1868.81
0 0.0159991 0.00414944 1867.52
1.35525e-20 -0.016026 0.00425069 1835.69
0 0.0160261 0.00425068 1834.45
9.41148e-23 -0.0166367 0.000352811 699.888
-1.8823e-22 0.0166369 0.00035298 689.984
0 0.0160816 0.0042869 1922.82
-1.35525e-20 -0.0160816 0.00428693 1924.05
0 0.016105 0.00423208 1920.75
1.35525e-20 -0.016105 0.00423207 1921.97
0 0.016226 0.00384224 1174.03
1.90582e-21 -0.0162262 0.00384229 1222.24
-6.35275e-22 0.0162339 0.00382556 1141.11
0 -0.016234 0.00382567 1190.61
1.05879e-22 0.0162401 0.00384589 1170.94
5.29396e-22 -0.0162402 0.00384591 1219.17
-6.77626e-21 -0.0167083 1.01691e-14 823.458
-6.77626e-21 0.0167085 1.01518e-14 816.966
2.71051e-20 -0.0166691 0.00146462 100.494
-2.71051e-20 0.0166691 0.0014646 57.7403
-2.71051e-20 0.0165265 0.00282081 55.3614
2.71051e-20 -0.0165265 0.00282082 111.684
-1.35525e-20 0.0161983 0.00436312 1986.84
6.77626e-21 -0.0161984 0.00436321 1988.03
0 0.0166645 0.00194624 39.1511
0 -0.0166645 0.00194624 84.2541
0 0.0165187 0.00350446 169.18
0 -0.0165187 0.00350448 257.209
1.35525e-20 -0.0169424 1.10016e-15 875.983
-1.35525e-20 0.0169426 1.10457e-15 867.774
0 0.0163499 0.0044621 1856.41
1.35525e-20 -0.0163499 0.00446215 1857.53
-3.10579e-21 0.0169272 0.000866318 314.529
2.82344e-22 -0.0169272 0.000866359 379.014
0 -0.0168736 0.00168495 93.0256
1.35525e-20 0.0168736 0.00168495 49.6509
0 0.0164548 0.00427999 1670.34
0 -0.0164549 0.00428004 1675.02
1.41172e-22 0.0168849 0.00243443 41.4557
-4.23516e-22 -0.0168849 0.00243444 91.6244
-6.77626e-21 -0.0164962 0.00455767 1931.72
6.77626e-21 0.0164963 0.00455763 1930.45
5.64689e-22 0.0168359 0.00316003 86.5807
0 -0.0168359 0.00316005 156.902
2.03288e-20 -0.0171338 1.74503e-16 667.878
0 0.0171342 1.75422e-16 657.254
-5.42101e-20 -0.0170775 0.00142438 102.695
-2.71051e-20 0.0170775 0.00142436 63.5718
0 -0.0171371 0.000271939 657.962
-8.13152e-21 0.0171374 0.000272002 647.117
-2.71051e-20 -0.0170666 0.00192551 82.1237
-2.71051e-20 0.0170666 0.00192552 36.3542
0 0.0167863 0.00388665 555.72
1.12938e-21 -0.0167864 0.00388666 622.081
0 0.0166207 0.00463877 2063.28
1.35525e-20 -0.0166207 0.00463882 2064.62
-2.71051e-20 0.0166524 0.00459992 2028.6
1.35525e-20 -0.0166524 0.00459996 2029.95
0 0.0166794 0.00467712 1805.71
1.35525e-20 -0.0166795 0.00467717 1807.21
4.70574e-23 0.0168452 0.00433528 1270.32
-1.8823e-22 -0.0168452 0.00433533 1302.89
0 0.0171764 0.00277493 35.9656
2.71051e-20 -0.0171764 0.00277494 86.5549
0 0.0174301 3.02821e-16 591.829
-1.35525e-20 -0.0174308 3.00143e-16 602.914
0 0.0168042 0.00464355 1610.81
1.35525e-20 -0.0168042 0.0046436 1612.45
-6.77626e-21 0.0167886 0.00474831 1536.12
-1.35525e-20 -0.0167887 0.00474841 1537.83
-6.77626e-21 0.017449 0.000139075 583.718
0 -0.0174496 0.000138384 594.874
0 0.0171294 0.00350658 82.9492
-5.42101e-20 -0.0171294 0.00350658 168.194
6.77626e-21 0.0175668 -2.95376e-17 609.658
-6.77626e-21 -0.0175669 -2.94894e-17 620.214
-1.55289e-21 -0.0175583 0.000896637 363.381
8.47033e-22 0.0175583 0.000896566 318.153
4.23516e-22 0.0175189 0.00167533 59.0158
-5.64689e-22 -0.0175189 0.00167527 101.886
0 -0.0176062 4.62633e-05 554.305
0 0.0176064 4.65549e-05 543.222
0 -0.0176089 -8.34911e-18 553.932
-6.77626e-21 0.0176091 -8.34566e-18 542.841
-5.42101e-20 0.0171399 0.00413685 284.09
2.71051e-20 -0.01714 0.00413687 370.253
0 -0.0176343 -4.66438e-18 542.892
6.77626e-21 0.0176347 -4.59267e-18 531.521
2.71051e-20 0.0170445 0.00462908 1580.99
-2.71051e-20 -0.0170446 0.00462915 1582.87
5.64689e-22 0.0175376 0.00228764 34.8734
5.64689e-22 -0.0175376 0.00228764 79.9268
1.35525e-20 0.0170023 0.00488776 1353.43
1.35525e-20 -0.0170024 0.00488785 1355.44
0 -0.0176972 4.73616e-05 514.064
0 0.017698 4.76654e-05 501.946
0 -0.0177005 -1.62469e-17 514.127
6.77626e-21 0.0177013 -1.6206e-17 502.009
9.03502e-22 0.0174646 0.00310785 47.5059
1.91994e-21 -0.0174646 0.00310784 106.094
0 0.0171112 0.00481659 1369.26
-1.35525e-20 -0.0171113 0.00481669 1371.24
0 0.0171346 0.00497401 1442.11
1.35525e-20 -0.0171347 0.00497414 1444.05
-4.51751e-21 0.0174342 0.00383429 139.315
1.12938e-21 -0.0174342 0.0038343 222.006
-2.71051e-20 0.0172171 0.00502787 1443.08
-1.35525e-20 -0.0172173 0.005028 1444.97
1.35525e-20 0.0172554 0.00493142 1437.6
0 -0.0172556 0.00493155 1439.49
-3.76459e-22 0.0174076 0.00453333 875.379
-1.69407e-21 -0.0174076 0.00453337 917.225
-2.71051e-20 0.0177905 0.00276845 28.7485
2.71051e-20 -0.0177905 0.00276845 69.015
0 0.0177573 0.00348298 46.8091
-2.71051e-20 -0.0177574 0.003483 109.42
-6.77626e-21 0.017378 0.00513278 1528.2
6.77626e-21 -0.0173781 0.00513291 1530.15
0 0.0174497 0.00517959 1494.83
6.77626e-21 -0.0174498 0.00517965 1496.79
0 0.0177264 0.00417356 131.611
-2.71051e-20 -0.0177264 0.00417357 226.84
6.77626e-21 0.0175029 0.00510088 1458.03
0 -0.0175029 0.005101 1460
5.42101e-20 -0.0181611 0.00171797 83.2683
0 0.0181612 0.00171798 41.0903
6.77626e-21 -0.0175201 0.0052255 1518.29
1.35525e-20 0.0175201 0.00522553 1516.12
-5.42101e-20 -0.0182822 0.000515621 318.532
0 0.0182823 0.000515628 302.996
1.05879e-22 0.0181327 0.00240414 29.5067
-1.2282e-20 -0.0181332 0.00240535 69.4381
-1.05879e-21 -0.0181316 0.00242435 69.682
1.05879e-22 0.0181316 0.0024249 29.5875
-3.01167e-21 0.0176138 0.0049468 1278.56
0 -0.0176139 0.00494683 1286.63
0 0.0180947 0.00311468 32.2602
0 -0.0180947 0.00311469 77.8763
0 0.0180563 0.00382343 68.2107
2.25875e-21 -0.0180564 0.00382344 136.866
0 -0.0177083 0.00534827 1658.47
0 0.0177083 0.00534827 1655.81
0 -0.0177632 0.00528867 1612.96
0 0.0177632 0.00528872 1610.3
-4.51751e-21 0.0179883 0.0045481 396.146
-2.25875e-21 -0.0179884 0.00454809 469.91
2.71051e-20 0.0178024 0.00540967 1373.73
2.71051e-20 -0.0178025 0.0054097 1376.47
2.71051e-20 -0.0184402 0.00274762 61.6149
0 0.0184402 0.00274761 23.4161
2.25875e-21 0.0180053 0.00502464 975.266
-1.807e-21 -0.0180053 0.00502466 1016.21
0 0.0183918 0.00345434 30.4784
2.71051e-20 -0.0183918 0.00345433 72.4282
6.77626e-21 0.0179451 0.00550277 1067.29
6.77626e-21 -0.0179453 0.00550285 1070.43
-2.71051e-20 0.0183611 0.00415361 63.1557
0 -0.0183611 0.00415361 137.787
0 0.0188421 7.04156e-05 279.892
-1.35525e-20 -0.0188422 7.03634e-05 296.464
0 0.0188477 1.10464e-18 279.866
0 -0.0188477 1.06275e-18 296.438
1.12938e-21 -0.0188602 0.00112833 188.963
4.51751e-21 0.0188602 0.00112834 159.11
-6.77626e-21 -0.0180592 0.00557717 1057.23
1.35525e-20 0.0180593 0.00557723 1053.86
0 0.0181347 0.00538311 1136.98
-4.51751e-21 -0.0181348 0.00538307 1140.24
-1.35525e-20 -0.018942 6.21258e-19 290.697
-1.35525e-20 0.018942 6.17799e-19 273.919
-1.12938e-21 -0.0188166 0.00228404 68.588
-4.51751e-21 0.0188167 0.00228404 29.2783
0 0.0183535 0.00480356 207.579
0 -0.0183536 0.00480356 335.118
-5.64689e-22 -0.0187311 0.00307208 63.1586
-1.41172e-22 0.0187311 0.00307209 25.0106
0 -0.0190249 8.52317e-05 285.53
1.35525e-20 0.019025 8.52886e-05 268.422
0 -0.0190315 5.66653e-19 285.459
1.35525e-20 0.0190316 5.63374e-19 268.346
-1.35525e-20 -0.0182205 0.00568238 1240.8
-1.35525e-20 0.0182205 0.00568238 1237.43
-4.5881e-22 0.0187398 0.00374577 39.6741
-1.76465e-22 -0.0187398 0.00374577 89.8572
-1.12938e-21 0.0186713 0.00447942 102.031
-1.12938e-21 -0.0186713 0.00447942 186.439
-1.35525e-20 0.0183608 0.00577389 1189.96
6.77626e-21 -0.0183608 0.00577392 1193.44
1.35525e-20 0.018471 0.00561106 1256.16
1.6263e-20 -0.018471 0.00561103 1259.55
3.61401e-21 -0.0186129 0.00519728 746.525
2.71051e-21 0.0186129 0.00519728 675.516
0 -0.0191646 0.00284903 54.7926
-2.71051e-20 0.0191646 0.00284904 20.3459
-6.77626e-21 -0.0184854 0.00585516 1309.4
1.35525e-20 0.0184855 0.00585524 1306.08
2.71051e-20 0.0191555 0.0033016 21.6736
-2.71051e-20 -0.0191555 0.00330159 57.3822
-2.71051e-20 -0.0190101 0.00412452 84.5312
-2.71051e-20 0.0190101 0.00412452 37.9165
0 -0.0185922 0.00576694 1399.18
0 0.0185922 0.00576709 1395.82
0 -0.0186006 0.00593031 1651.87
1.35525e-20 0.0186007 0.00593035 1648.35
0 -0.0195235 0.000571337 263.32
0 0.0195235 0.000571339 245.171
-5.42101e-20 -0.0194631 0.0017685 82.9673
0 0.0194631 0.0017685 38.2238
1.69407e-21 -0.0194127 0.0024132 63.0767
0 0.0194127 0.00241321 25.6828
0 -0.0189749 0.00481043 177.268
-2.71051e-20 0.0189749 0.00481044 93.0877
0 -0.0193686 0.00306998 54.6921
0 0.0193686 0.00306998 19.8176
-4.51751e-21 -0.0188275 0.00563325 1230.95
1.50584e-21 0.0188275 0.00563327 1178.52
2.03288e-20 0.0187165 0.00600599 1554.16
-6.77626e-21 -0.0187166 0.00600601 1557.99
1.35525e-20 0.018758 0.00590207 1576.64
0 -0.0187581 0.00590201 1580.37
-1.27055e-21 0.0193727 0.00376105 26.2918
8.47033e-22 -0.0193727 0.00376105 64.4679
-2.71051e-20 -0.0190128 0.00540896 477.451
-2.71051e-20 0.0190128 0.00540898 316.435
0 -0.0195979 0.00284199 52.5696
0 0.0195979 0.00284199 18.5692
-2.25875e-21 -0.0193152 0.00445137 105.976
-2.25875e-21 0.0193152 0.00445138 51.0389
0 -0.0189326 0.00587663 1769.73
0 0.0189326 0.00587667 1766.12
6.77626e-21 -0.0188663 0.00610385 1530.14
-2.71051e-20 0.0188665 0.006104 1526.1
5.42101e-20 -0.0195614 0.00328798 53.6502
2.71051e-20 0.0195614 0.00328799 18.0288
0 -0.0189889 0.00604035 1540.3
-2.71051e-20 0.0189891 0.00604056 1536.3
0 -0.0192967 0.00511377 255.513
2.25875e-21 0.0192967 0.00511379 153.521
0 -0.0190006 0.00619146 1617.34
1.35525e-20 0.0190007 0.00619154 1613.5
0 0.0200621 6.76767e-05 242.011
-1.35525e-20 -0.0200621 6.76484e-05 260.186
-1.35525e-20 0.020064 4.17066e-20 242.035
-1.35525e-20 -0.020064 4.17839e-20 260.21
0 0.0196641 0.0040803 24.5759
0 -0.0196641 0.0040803 58.8677
0 -0.0190835 0.00626078 1595.74
-1.35525e-20 0.0190836 0.0062608 1592.13
0 -0.0191312 0.00616555 1590.61
1.35525e-20 0.0191312 0.00616565 1586.94
-6.77626e-21 0.0201001 0.00115692 141.543
1.12938e-21 -0.0201001 0.00115692 173.177
0 0.020134 -1.86019e-22 241.852
0 -0.020134 -2.64365e-22 260.016
1.8823e-21 -0.0192828 0.00579514 1020.7
1.8823e-21 0.0192828 0.00579515 956.235
0 -0.0196202 0.00477317 102.317
0 0.0196202 0.00477318 48.3599
0 -0.0201991 6.47227e-05 258.828
0 0.0201991 6.47462e-05 240.606
0 -0.020202 -1.30738e-21 258.823
0 0.020202 -1.26102e-21 240.601
-1.12938e-21 0.0200841 0.00236289 26.9636
2.25875e-21 -0.0200841 0.00236289 67.0358
2.82344e-22 0.0200029 0.003057 17.2943
1.41172e-22 -0.0200038 0.00305581 52.7789
-1.35525e-20 0.0192378 0.00638357 1576.82
-1.35525e-20 -0.0192378 0.00638366 1580.95
0 -0.0195958 0.00544032 240.741
5.42101e-20 0.0195959 0.00544034 137.936
0 -0.0193039 0.00643681 1522.7
0 0.0193041 0.00643685 1518.37
0 0.0200275 0.00361572 19.4073
-5.64689e-22 -0.0200275 0.00361572 54.1365
6.77626e-21 -0.0193634 0.00636556 1489.61
0 0.0193636 0.00636543 1485.2
0 -0.0193735 0.00649738 1557.69
0 0.0193738 0.00649756 1553.29
-1.01644e-21 -0.01996 0.00438812 68.0936
1.01644e-21 0.01996 0.00438813 29.165
0 -0.0194904 0.00622237 1320.4
0 0.0194905 0.00622241 1304.82
2.25875e-21 -0.019924 0.00509886 134.24
0 0.019924 0.00509886 69.5621
0 -0.0195415 0.00664813 1634.48
-1.35525e-20 0.0195417 0.00664818 1629.42
0 0.0202851 0.004065 18.2727
-2.71051e-20 -0.0202851 0.004065 50.8886
-2.25875e-21 -0.0198605 0.00581199 478.816
2.25875e-21 0.0198605 0.00581203 394.401
2.71051e-20 -0.0196164 0.00659812 1606.49
-1.35525e-20 0.0196165 0.00659819 1601.48
0 0.0207232 0.000580771 237.196
5.42101e-20 -0.0207232 0.000580775 255.444
0 -0.0196177 0.00671647 1475.66
0 0.0196179 0.00671645 1470.78
-5.42101e-20 0.020698 0.00176856 38.6908
0 -0.020698 0.00176856 84.9933
2.71051e-20 0.020263 0.00474092 29.0566
2.71051e-20 -0.020263 0.00474092 65.5091
0 -0.0196919 0.00678279 1676.82
0 0.019692 0.0067827 1672.05
0 -0.0197373 0.00670394 1643.65
-2.71051e-20 0.0197374 0.00670392 1638.89
-5.42101e-20 0.0206519 0.00305779 14.6858
-5.42101e-20 -0.0206519 0.0030578 52.0491
-2.42009e-22 -0.0199196 0.00639126 1092.18
0 0.0199197 0.00639124 1030.26
0 -0.0202264 0.00542436 126.42
-2.71051e-20 0.0202264 0.00542437 61.4211
0 0.0206219 0.00374923 16.1075
0 -0.0206228 0.00375111 50.1528
-1.35525e-20 0.0198641 0.00693674 1705.57
1.35525e-20 -0.0198641 0.00693696 1710.57
0 0.0205958 0.00438945 20.3855
0 -0.0205958 0.00438945 54.0239
2.71051e-20 -0.0202261 0.00606702 311.95
2.71051e-20 0.0202262 0.00606702 177.654
-6.77626e-21 -0.019943 0.00700755 1717.09
-6.77626e-21 0.0199432 0.00700748 1712.13
-6.77626e-21 -0.0200066 0.00693929 1679.38
6.77626e-21 0.0200069 0.00693907 1674.35
0 -0.0205707 0.00506212 78.2554
0 0.0205707 0.00506212 35.4844
6.77626e-21 -0.0200222 0.00707844 1743.91
6.77626e-21 0.0200226 0.00707852 1738.99
0 -0.0201294 0.00680929 1502.14
-1.50584e-21 0.0201295 0.00680925 1479.92
0 0.0212882 4.76335e-05 236.531
0 -0.0212882 4.76249e-05 254.379
0 0.0212888 7.24532e-22 236.533
-6.77626e-21 -0.0212888 7.03329e-22 254.382
0 -0.0209335 0.00403737 48.0161
0 0.0209335 0.00403737 14.5583
0 -0.0205488 0.00572803 164.487
0 0.0205489 0.00572802 86.2581
-6.77626e-21 -0.0213388 -2.81944e-23 254.295
0 0.0213388 -2.94246e-23 236.485
1.12938e-21 0.0213183 0.00116254 138.512
-3.38813e-21 -0.0213183 0.00116254 171.215
0 -0.0213864 4.64669e-05 254.182
-6.77626e-21 0.0213864 4.6476e-05 236.379
-6.77626e-21 -0.0213874 -2.6147e-23 254.182
-6.77626e-21 0.0213874 -2.73181e-23 236.379
-2.71051e-20 0.0208978 0.00471075 19.7609
-2.71051e-20 -0.0208978 0.00471075 51.8262
-5.64689e-22 0.0212954 0.00239197 26.527
0 -0.0212954 0.00239197 70.1596
2.71051e-20 -0.0201947 0.00723274 1793.34
1.35525e-20 0.020195 0.00723268 1788.12
-2.25875e-21 -0.0204968 0.00642258 553.614
-9.03502e-21 0.0204969 0.00642257 448.418
1.35525e-20 -0.0202705 0.00718367 1763.14
-1.35525e-20 0.0202707 0.00718366 1757.98
2.71051e-20 -0.0202683 0.00729857 1613.47
-2.71051e-20 0.0202686 0.00729845 1608.54
-2.71051e-20 -0.0208996 0.00536218 70.8612
-2.71051e-20 0.0208996 0.00536217 32.3696
0 -0.0203418 0.00736426 1816.74
2.71051e-20 0.020342 0.00736407 1812.25
-5.64689e-23 0.0213396 0.00363556 13.9802
-5.64689e-23 -0.0213396 0.00363555 50.2253
1.35525e-20 -0.0203851 0.00728766 1782.99
1.35525e-20 0.0203852 0.00728755 1778.45
-9.41148e-22 -0.0212333 0.00436374 49.3272
3.76459e-22 0.0212333 0.00436374 15.8521
-2.71051e-20 -0.0208556 0.00604666 143.915
2.71051e-20 0.0208557 0.00604664 70.4656
-4.03349e-22 -0.0205628 0.00698693 1196.4
-3.22679e-22 0.0205629 0.00698685 1123.55
-6.77626e-21 0.0205132 0.00751715 1849.33
-6.77626e-21 -0.0205131 0.00751749 1854.08
1.69407e-21 -0.0212965 0.00494792 56.7859
-1.12938e-21 0.0212965 0.00494792 22.227
0 -0.0208609 0.00667564 341.183
2.71051e-20 0.020861 0.00667559 193.353
0 -0.0205926 0.00758859 1857.72
-5.42101e-20 0.0219386 0.000582608 235.701
-5.42101e-20 -0.0219387 0.000582603 253.094
0 0.0205929 0.00758842 1853.06
3.38813e-21 -0.0211971 0.00569346 86.5266
3.38813e-21 0.0211971 0.00569344 40.0332
0 -0.0206536 0.00752336 1817.57
0 0.0206541 0.00752303 1812.81
0 0.0219221 0.0017777 38.3319
0 -0.0219221 0.0017777 87.8248
0 -0.0206735 0.00766098 1896.16
6.77626e-21 0.0206741 0.007661 1891.63
6.02335e-21 -0.0207724 0.00739837 1625.02
-1.05409e-20 0.0207727 0.00739825 1601.73
-2.25875e-21 -0.0211741 0.0063493 182.538
0 0.0211742 0.00634926 95.3323
5.42101e-20 0.0219191 0.00301936 13.7227
-5.42101e-20 -0.0219191 0.00301937 54.7759
-2.71051e-20 -0.0215298 0.00535617 54.2744
-2.71051e-20 0.0215298 0.00535616 21.3426
0 -0.020847 0.00781616 1964.69
0 0.0208475 0.00781602 1959.81
6.77626e-21 -0.0211304 0.00702575 607.264
-9.03502e-21 0.0211305 0.00702568 489.817
-1.6263e-19 -0.0218756 0.00434045 47.5009
-5.42101e-20 0.0218756 0.00434044 11.7935
0 -0.020919 0.00777037 1934.92
0 0.0209193 0.00777028 1930.12
5.42101e-20 -0.0215089 0.00600419 78.5678
-2.71051e-20 0.021509 0.00600416 36.5526
-2.71051e-20 -0.0209199 0.00788136 1781.9
0 0.0209203 0.00788115 1777.38
3.76459e-22 0.0218609 0.00500982 16.8775
2.63521e-21 -0.0218609 0.00500984 50.1252
4.06576e-20 -0.020991 0.0079449 1995.36
0 0.0209913 0.00794461 1991.25
0 -0.0210297 0.00787225 1961.28
0 0.02103 0.00787205 1957.14
0 -0.0214833 0.00666114 160.423
0 0.0214834 0.00666109 76.9489
1.6134e-22 -0.0211968 0.00757914 1319.39
5.64689e-22 0.0211971 0.00757898 1241.18
-3.38813e-21 0.0225192 3.03446e-05 235.672
0 -0.0225192 3.03421e-05 252.35
0 0.0225194 -1.09695e-24 235.672
-6.77626e-21 -0.0225194 -1.05873e-24 252.351
0 0.0225512 2.58741e-25 235.662
0 -0.0225512 2.58697e-25 252.293
0 0.0218404 0.00566341 24.074
-5.64689e-22 -0.0218404 0.00566343 58.8902
5.64689e-22 0.0225415 0.00116563 137.947
0 -0.0225415 0.00116563 173.222
0 -0.0225819 2.96728e-05 252.223
-3.38813e-21 0.0225819 2.96744e-05 235.632
-3.38813e-21 -0.0225822 2.38921e-25 252.222
-3.38813e-21 0.0225822 2.39138e-25 235.632
-1.35525e-20 0.0211522 0.00808853 2040.15
-2.03288e-20 -0.0211521 0.00808899 2044.21
1.69407e-21 0.0225347 0.00238614 25.9369
-2.25875e-21 -0.0225347 0.00238614 74.9127
-2.71051e-20 -0.0214888 0.00728091 387.91
-2.71051e-20 0.021489 0.00728079 211.083
-2.25875e-21 0.0218198 0.00631442 43.5608
4.51751e-21 -0.0218198 0.00631445 94.015