# omega  POINT_DATA 29169
# x  y  z  omega
0.0199996 0 6.27196e-08 1583.18
-0.0199996 0 6.27196e-08 1583.2
0.0199996 0 0.000164442 1568.91
-0.0199996 0 0.00016442 1568.93
0.0199996 6.77626e-21 0.000494346 1896.37
-0.0199996 -3.38813e-21 0.000494294 1896.42
0.0199996 -6.77626e-21 0.000661321 2207.98
-0.0199996 6.77626e-21 0.000661243 2208.03
-0.0199996 6.77626e-21 0.000837166 2477.09
0.0199996 -3.38813e-21 0.000837249 2477.02
-0.0199996 6.77626e-21 0.0011807 2989.08
0.0199996 3.38813e-21 0.00118076 2988.88
-0.0199996 0 0.00135636 3181.12
0.0199996 -6.77626e-21 0.00135644 3180.94
-0.0199996 -3.38813e-21 0.00154016 3279.1
0.0199996 -3.38813e-21 0.00154025 3278.94
0.0200767 0 6.659e-05 1612.09
-0.0200767 0 6.65901e-05 1612.07
-0.0200781 0 6.52655e-08 1611.98
0.0200781 0 6.52657e-08 1612
0.0200799 -6.77626e-21 0.000590246 2137.62
-0.0200799 0 0.000590204 2137.65
-0.0200759 0 0.000728756 2382.85
0.0200759 6.77626e-21 0.000728801 2382.81
-0.0199996 -3.38813e-21 0.00190617 2676.78
0.0199996 -3.38813e-21 0.00190619 2676.48
0.0199996 -6.77626e-21 0.002087 2075.85
-0.0199996 6.77626e-21 0.002087 2076.3
-0.0200757 -6.77626e-21 0.00127189 3192.2
0.0200757 -6.77626e-21 0.00127193 3192
-0.0200724 6.77626e-21 0.00141167 3315.95
0.0200724 1.35525e-20 0.00141172 3315.78
-0.0201349 4.06576e-20 6.62424e-08 1554.64
0.0201349 0 6.62432e-08 1554.67
-0.0201347 -1.35525e-20 0.00065509 2096.74
0.0201347 0 0.000655092 2091.21
-0.0200697 6.77626e-21 0.00197791 2390.64
0.0200697 6.77626e-21 0.00197791 2390.21
-0.0201289 -2.03288e-20 0.00132685 2964.11
0.0201289 2.71051e-20 0.00132685 2953.62
-0.0200872 0 0.00211021 1879.39
0.0200872 6.77626e-21 0.00211021 1878.84
-0.0201043 0 0.00206082 1993.68
0.0201043 0 0.00206081 1993.14
0.0201292 0 0.00199355 2042.68
-0.0201291 -6.77626e-21 0.00199358 2055.4
-0.0201574 0 0.00212882 1993.39
0.0201575 -6.77626e-21 0.00212883 1992.84
-0.020211 6.77626e-21 0.00203552 1891.03
0.020211 -6.77626e-21 0.0020355 1890.36
0.0203752 1.69407e-20 7.14249e-08 1742.94
-0.0203752 -1.35525e-20 7.14223e-08 1742.78
0.0203552 6.77626e-22 0.000964574 3101.47
-0.0203552 0 0.000964653 3108.1
-0.0203848 -1.807e-21 0.00031854 1711.87
0.0203848 4.51751e-22 0.000318497 1710.74
0.0203485 1.8823e-22 0.00158862 3638.37
-0.0203485 -9.41148e-22 0.00158869 3650.27
-0.0204541 -5.0822e-21 7.18949e-08 1615.78
0.0204542 1.69407e-21 7.18988e-08 1615.78
0.0203479 3.38813e-21 0.0020921 1513.89
-0.0203479 -6.77626e-21 0.00209212 1514.73
-0.0203454 0 0.00217864 1487.57
0.0203454 -1.35525e-20 0.00217865 1486.76
0.0204014 0 0.00198909 1616.47
-0.0204014 -1.35525e-20 0.00198912 1617.27
0.0204481 -5.42101e-20 0.00220585 1621.86
-0.0204481 -2.71051e-20 0.00220584 1622.51
-0.0206171 6.77626e-21 7.35947e-08 1208.98
0.0206171 -6.77626e-21 7.35999e-08 1208.86
0.0206345 2.25875e-21 0.00124186 1471.93
-0.0206345 -2.25875e-21 0.00124198 1505.19
0.0206729 0 7.48669e-08 1156.64
-0.0206729 6.77626e-21 7.48621e-08 1156.75
0.0206741 6.77626e-21 7.00031e-05 1156.63
-0.0206742 6.77626e-21 7.0039e-05 1156.75
0.0206667 4.51751e-21 0.000657407 1235.67
-0.0206667 -7.90564e-21 0.000657517 1252.8
0.0206275 1.35525e-21 0.0016945 1576.48
-0.0206275 -4.06576e-21 0.00169457 1615.56
0.0205976 0 0.00224546 1116.95
-0.0205976 -1.35525e-20 0.00224545 1117.6
0.020822 6.77626e-21 8.13398e-08 1102.36
-0.0208222 0 8.13398e-08 1102.62
-0.0208462 1.35525e-20 0.000330944 971.58
0.0208462 0 0.000330924 971.208
0.0208502 2.71051e-20 0.000953835 992.531
-0.0208502 -1.35525e-20 0.000953873 1003.95
0.0208443 -1.35525e-20 0.00153528 1097.76
-0.0208443 2.71051e-20 0.00153531 1117.14
0.0208065 -1.41172e-21 0.00198301 1032.47
-0.0208065 2.82344e-22 0.00198302 1033.31
0.0209014 -6.77626e-21 0.00232595 1139.23
-0.0209014 6.77626e-21 0.00232594 1139.88
0.0210643 -1.35525e-20 9.1532e-05 939.891
-0.0210643 0 9.15048e-05 940.529
0.021067 1.35525e-20 7.81651e-08 942.916
-0.021067 0 7.81689e-08 943.551
-0.0209629 4.06576e-20 0.00234223 1216.17
0.0209629 -6.77626e-21 0.00234225 1215.56
-0.0210006 -6.77626e-21 0.00235224 1147.42
0.0210006 0 0.00235226 1146.79
-0.0211368 1.35525e-20 7.77042e-08 980.103
0.0211368 0 7.76997e-08 979.398
-0.021129 -9.03502e-21 0.00122302 695.692
0.021129 -4.51751e-21 0.00122304 679.828
-0.0211316 -1.16165e-20 0.00168768 864.185
0.0211316 -5.80823e-21 0.00168768 845.493
-0.0210928 -3.38813e-21 0.00225831 1083.93
0.0210928 3.38813e-21 0.0022583 1083.3
-0.0212074 -2.25875e-21 0.000639305 781
0.0212074 4.51751e-21 0.000639333 771.462
-0.0212432 1.35525e-20 6.9493e-08 955.127
0.0212432 0 6.94858e-08 954.294
-0.0212484 0 0.000106497 952.989
0.0212484 -6.77626e-21 0.000106548 952.146
-0.0211906 0 0.00240258 1187.47
0.0211906 0 0.00240261 1186.9
0.0213439 5.64689e-21 0.0020251 822.642
-0.0213439 -4.51751e-21 0.00202507 827.628
-0.021371 0 0.00245037 1196.52
0.021371 -6.77626e-21 0.00245038 1195.98
-0.0213837 0 0.00242601 1193.69
0.0213837 0 0.00242602 1193.16
-0.0214676 -6.77626e-21 0.00151459 455.363
0.0214676 -9.03502e-21 0.00151465 433.187
-0.0215176 1.35525e-20 0.000962569 421.5
0.0215177 6.77626e-21 0.000962662 397.004
-0.0215442 1.0842e-20 0.000394958 785.111
0.0215442 -5.42101e-21 0.000395018 781.989
0.0214146 0 0.00239563 1130.65
-0.0214146 0 0.00239562 1133.57
0.0214166 -6.77626e-21 0.00246246 1242.37
-0.0214166 -2.71051e-20 0.00246245 1242.91
0.0216582 1.35525e-20 0.000128741 851.501
-0.0216582 0 0.000128718 852.76
0.0216619 -1.35525e-20 1.14562e-08 851.648
-0.021662 0 1.14549e-08 852.907
-0.0217415 -2.71051e-20 0.000612322 589.443
0.0217415 0 0.000612439 579.777
-0.021737 0 0.00121881 349.593
0.021737 0 0.00121894 334.379
0.021641 0 0.0025219 1431.14
-0.021641 0 0.00252189 1431.6
0.02179 1.35525e-20 2.38075e-09 854.998
-0.02179 1.35525e-20 2.38045e-09 856.363
-0.02171 -2.71051e-20 0.0018706 712.987
0.02171 -2.71051e-20 0.00187066 688.834
0.0216778 1.8823e-21 0.00229009 1335.65
-0.0216778 -3.76459e-22 0.00229005 1336.4
-0.0219185 0 2.30219e-09 846.167
0.0219185 -1.35525e-20 2.30245e-09 844.662
-0.0219202 1.35525e-20 0.000137029 845.71
0.0219202 0 0.000137066 844.194
-0.0218192 0 0.00256913 1744.88
0.0218192 0 0.00256913 1744.52
-0.0219845 5.42101e-21 0.00039594 761.73
0.0219845 5.42101e-21 0.000396027 758.275
0.0219638 0 0.00229016 1418.62
-0.0219638 1.12938e-21 0.00229013 1425.58
-0.022074 0 0.000916488 296.62
0.022074 -2.25875e-21 0.000916652 271.253
0.0219561 -1.35525e-20 0.0025286 2038.03
-0.0219561 0 0.00252859 2038.32
-0.0220578 0 0.00154542 285.943
0.0220578 -2.25875e-21 0.00154554 254.603
0.0219647 6.77626e-21 0.00260764 2159.14
-0.0219647 -1.35525e-20 0.00260764 2159.46
-0.0220662 4.51751e-21 0.00204922 643.52
0.0220662 -4.51751e-21 0.00204927 621.649
0.0222375 -1.35525e-20 0.000149298 828.63
-0.0222375 0 0.000149261 830.491
0.0222467 0 3.22502e-09 828.601
-0.0222467 1.35525e-20 3.22489e-09 830.463
0.0221408 1.89735e-20 0.00250166 2103.76
-0.0221408 -5.42101e-21 0.00250165 2104.04
-0.0221237 -1.35525e-20 0.00264976 2244.66
0.0221238 0 0.00264976 2244.36
-0.0223263 -1.93608e-20 0.000544368 627.17
0.0223263 7.7443e-21 0.000544521 616.222
-0.0223861 1.35525e-20 3.11769e-09 838.984
0.0223861 1.35525e-20 3.11777e-09 837.034
-0.0223888 0 0.00123026 206.688
0.0223888 2.71051e-20 0.00123046 176.992
-0.0223621 0 0.00189307 507.37
0.0223621 0 0.00189318 479.018
0.022297 0 0.00269561 1712.51
-0.022297 1.35525e-20 0.00269561 1713.07
0.0223597 2.11758e-22 0.00232885 1293.36
-0.0223597 7.05861e-23 0.00232881 1311.05
-0.0225373 -1.35525e-20 3.03035e-09 849.854
0.0225373 0 3.03039e-09 847.807
-0.0225385 0 0.000146287 849.774
0.0225385 1.35525e-20 0.000146333 847.728
-0.0227012 -2.25875e-21 0.000916023 257.509
0.0227012 6.77626e-21 0.000916234 232.91
-0.0226844 -4.51751e-21 0.00155903 210.676
0.0226844 2.25875e-21 0.00155921 184.702
-0.0227492 -9.03502e-21 0.000352645 776.39
0.0227492 4.51751e-21 0.000352762 770.474
0.0226132 -1.2282e-20 0.00277935 1838.07
-0.0226133 1.82112e-20 0.00277937 1838.77
-0.0226206 1.52466e-20 0.00278132 1838.38
0.0226206 -9.74088e-21 0.00278132 1837.67
-0.0227194 6.77626e-21 0.00213973 567.024
0.0227194 -9.03502e-21 0.00213981 511.306
-0.0226786 0 0.00257495 1723.01
0.0226786 0 0.00257497 1721.09
-0.0228459 1.35525e-20 3.06872e-09 867.974
0.0228459 0 3.06855e-09 865.681
-0.0230054 -2.71051e-20 2.97301e-09 874.649
0.0230055 2.71051e-20 2.97281e-09 872.264
-0.0230123 2.71051e-20 0.000601967 533.734
0.0230123 0 0.000602177 518.56
-0.023008 0 0.00123165 166.599
0.023008 0 0.0012319 137.202
-0.0229679 2.71051e-20 0.00191396 391.161
0.0229679 5.42101e-20 0.0019141 359.753
0.0229069 -2.71051e-20 0.00285715 1487.84
-0.0229069 0 0.00285715 1488.54
-0.0230246 -2.71051e-20 0.0024179 1059.09
0.0230246 2.71051e-20 0.00241795 1039.87
-0.0231706 2.71051e-20 2.61999e-09 881.19
0.0231707 -1.35525e-20 2.6198e-09 878.724
-0.0232775 -6.77626e-21 0.000961767 220.963
0.0232775 4.51751e-21 0.000962019 194.397
-0.0231303 1.35525e-20 0.00291661 1367.91
0.0231303 4.06576e-20 0.00291662 1366.85
-0.0233249 6.77626e-21 0.000300575 813.989
0.023325 2.25875e-21 0.000300687 808.758
-0.0233201 0 0.00155413 165.81
0.0233201 1.12938e-20 0.00155433 134.346
-0.0233275 4.51751e-21 0.00215862 421.853
0.0233275 1.58113e-20 0.00215872 379.873
-0.0232742 1.12938e-21 0.00268392 1342.84
0.0232742 1.807e-21 0.00268395 1341.18
-0.023471 0 1.49916e-09 894.54
0.023471 0 1.49905e-09 891.942
0.0233563 -6.77626e-21 0.0029773 1299.06
-0.0233564 -6.77626e-21 0.00297732 1300.13
-0.0236362 -2.71051e-20 1.14287e-09 909.637
0.0236362 -2.71051e-20 1.14277e-09 907.022
-0.0236942 -6.77626e-21 0.000643529 498.001
0.0236943 0 0.000643725 481.96
-0.0235255 -5.42101e-20 0.00302244 1303.92
0.0235255 1.35525e-20 0.00302244 1302.93
-0.0236289 2.71051e-20 0.00246429 854.029
0.0236289 0 0.00246434 834.352
-0.0237458 -4.51751e-21 0.00121852 147.132
0.0237458 -4.51751e-21 0.00121876 118.791
0.023712 3.67854e-20 0.00179082 136.434
-0.023712 1.54886e-20 0.00179064 166.279
-0.0238007 1.35525e-20 1.02427e-09 918.948
0.0238007 1.35525e-20 1.02417e-09 916.314
-0.0236242 0 0.00304884 1089.04
0.0236242 0 0.00304886 1087.78
-0.0238637 8.13152e-21 0.000205193 922.886
0.0238637 1.0842e-20 0.000205258 920.243
0.0238647 0 0.00216536 273.855
-0.0238648 9.03502e-21 0.00216526 297.771
-0.0239679 -2.71051e-20 0.000897771 175.365
0.023968 0 0.00089799 150.981
-0.0239683 0 0.00153338 106.413
0.0239683 0 0.00153358 78.4814
-0.0238625 -5.29396e-23 0.00276289 844.363
0.0238638 5.29396e-23 0.00276308 841.964
-0.0238739 -4.23516e-21 0.00276895 836.117
0.0238718 5.82335e-21 0.00276533 834.722
0.024114 0 6.40638e-10 940.524
-0.024114 0 6.40703e-10 943.162
-0.0241188 2.71051e-20 0.000144133 943.139
0.0241188 0 0.000144175 940.5
0.023916 0 0.00312792 1050.45
-0.0239161 0 0.00312794 1051.64
-0.0239647 0 0.00314097 1110.36
0.0239647 0 0.00314096 1109.3
-0.0242749 0 5.21808e-10 974.041
0.0242749 0 5.21745e-10 971.443
-0.0242836 -4.51751e-21 0.000580904 577.667
0.0242836 2.25875e-21 0.000581052 563.357
-0.0242888 0 0.00120234 141.73
0.0242889 1.12938e-20 0.00120253 114.249
-0.0242868 -9.03502e-21 0.00186197 147.735
0.0242869 0 0.00186211 113.837
-0.0241659 0 0.003195 1248.7
0.0241661 1.69407e-21 0.00319503 1247.95
0.0241862 4.23516e-22 0.00320043 1264.01
-0.0241863 -4.23516e-22 0.00320044 1264.87
0.0241881 5.50571e-21 0.00319265 1261.6
-0.0241882 0 0.0031926 1262.44
-0.0244313 2.71051e-20 0.000134539 978.768
0.0244313 0 0.00013457 976.174
-0.0244331 0 4.67599e-10 979.489
0.0244331 0 4.67535e-10 976.896
-0.0243349 2.25875e-21 0.00249839 579.817
0.0243349 -4.51751e-21 0.00249847 555.975
0.0242974 4.51751e-21 0.0029262 1209.82
-0.0242974 0 0.00292619 1212.89
-0.0243695 6.77626e-21 0.00315162 1485.11
0.0243695 0 0.00315166 1484.31
-0.0246008 -2.71051e-20 0.000284661 991.025
0.0246009 0 0.000284725 988.453
-0.0243971 -6.77626e-21 0.00325796 1591.78
0.0243971 -6.77626e-21 0.00325796 1590.88
-0.0246107 -2.71051e-20 0.000878458 185.406
0.0246107 2.71051e-20 0.000878612 156.592
-0.0246166 -2.71051e-20 0.00151509 97.8042
0.0246166 0 0.00151523 68.7456
0.0244715 -6.77626e-21 0.00314417 1492.86
-0.0244715 0 0.00314413 1495.71
0.024504 -6.77626e-21 0.00290416 1241.15
-0.024504 -3.38813e-21 0.00290416 1248.17
0.024478 -6.77626e-21 0.00323287 1728.78
-0.024478 6.77626e-21 0.00323286 1729.69
0.0244844 6.77626e-21 0.00328126 1792.52
-0.0244844 0 0.00328126 1793.46
-0.0246093 0 0.00219408 176.621
0.0246093 -5.42101e-20 0.00219416 124.802
-0.0247622 -1.35525e-20 2.5336e-10 1003.67
0.0247622 0 2.5332e-10 1001.12
-0.0247664 1.35525e-20 0.000132487 1003.4
0.0247664 2.71051e-20 0.000132517 1000.84
0.0246224 -2.03288e-20 0.00297464 1368.8
-0.0246224 -6.77626e-21 0.00297462 1374.29
-0.0249174 0 1.99007e-10 1045.61
0.0249175 1.35525e-20 1.98966e-10 1043.13
0.0247048 1.35525e-20 0.00334016 2081.87
-0.0247048 0 0.00334016 2082.8
-0.0249272 2.25875e-21 0.00056588 615.047
0.0249272 1.12938e-20 0.000565967 598.208
-0.0249353 9.03502e-21 0.00118332 144.574
0.0249353 2.25875e-21 0.00118344 113.075
0.0247708 -1.35525e-20 0.00325092 2041.79
-0.0247708 -1.35525e-20 0.00325093 2042.71
-0.0249332 -4.51751e-21 0.0018542 128.651
0.0249332 0 0.00185429 88.3771
-0.0249124 1.12938e-20 0.00254742 487.937
0.0249124 1.12938e-20 0.00254746 450.406
-0.02507 0 0.000129685 1034.86
0.02507 0 0.000129701 1032.36
-0.0250722 0 1.71469e-10 1036.06
0.0250723 0 1.71434e-10 1033.55
0.0248681 0 0.00338376 1730.55
-0.0248681 -5.42101e-20 0.00338375 1731.66
-0.024966 -1.807e-21 0.00300203 1321.66
0.024966 -1.807e-21 0.00300205 1304.44
-0.0252401 -2.71051e-20 0.000277338 1045.4
0.0252401 0 0.000277376 1042.91
-0.0252519 0 0.000862008 197.489
0.0252519 0 0.000862093 161.873
-0.0252581 2.71051e-20 0.0015011 96.185
0.0252581 0 0.00150118 62.3565
-0.025094 0 0.00344393 1630.01
0.025094 2.03288e-20 0.00344395 1628.86
-0.0252522 0 0.00218233 139.862
0.0252522 -5.42101e-20 0.00218237 93.5159
-0.0253959 0 6.82351e-11 1059.51
0.0253959 0 6.82188e-11 1057.06
-0.0254017 -1.35525e-20 0.000130113 1058.89
0.0254017 -1.35525e-20 0.000130131 1056.44
-0.0252838 0 0.00277254 383.953
0.0252839 0 0.00277257 324.067
-0.0252273 0 0.00330818 1754.87
0.0252273 0 0.00330821 1753.75
-0.0252595 6.77626e-21 0.00348812 1627.31
0.0252596 6.77626e-21 0.00348815 1626.12
-0.0255539 0 4.13675e-11 1112.85
0.0255539 2.71051e-20 4.13565e-11 1110.49
-0.0255655 -2.25875e-21 0.000552596 651.461
0.0255655 2.25875e-21 0.000552632 631.562
-0.0255758 2.25875e-21 0.00116683 150.248
0.0255758 -4.51751e-21 0.00116688 113.605
-0.0255762 -2.25875e-21 0.00183976 111.348
0.0255763 0 0.0018398 72.0726
-0.0255827 -2.25875e-21 0.00249854 244.576
0.0255827 -4.51751e-21 0.00249856 186.272
-0.0257081 1.35525e-20 0.000131339 1085.83
0.0257081 2.71051e-20 0.000131348 1083.44
-0.0257119 -2.71051e-20 3.51853e-11 1088.01
0.0257119 0 3.51759e-11 1085.62
-0.0254803 -1.35525e-20 0.00354694 1643.24
0.0254804 1.35525e-20 0.00354697 1642.04
-0.0255732 -1.12938e-21 0.00306848 1098.39
0.0255733 0 0.0030685 1064.64
-0.0258709 2.71051e-20 0.000270934 1095.65
0.0258709 2.71051e-20 0.000270944 1093.3
-0.0258866 -2.71051e-20 0.000846945 209.087
0.0258867 0 0.00084698 167.436
-0.0258956 -5.42101e-20 0.00148553 96.3883
0.0258957 -2.71051e-20 0.00148556 59.0134
-0.025711 0 0.0036084 1158.75
0.025711 -1.35525e-20 0.0036084 1157.48
-0.0258953 5.42101e-20 0.00216695 111.901
0.0258954 0 0.00216699 72.4768
-0.0260182 1.35525e-20 1.4385e-11 1123.34
0.0260182 -1.35525e-20 1.43834e-11 1120.99
-0.0257708 1.01644e-20 0.00362432 1127.28
0.025771 -1.01644e-20 0.00362438 1125.92
0.0260277 1.35525e-20 0.000129333 1120.39
-0.0260277 1.35525e-20 0.000129319 1122.74
-0.0258188 4.51751e-21 0.00342146 1349.99
0.0258189 -4.51751e-21 0.00342152 1348.68
-0.0259037 0 0.00281559 319.011
0.0259038 2.71051e-20 0.0028156 232.675
-0.0261762 2.71051e-20 8.34289e-12 1196.28
0.0261762 0 8.34292e-12 1193.99
-0.0261907 6.77626e-21 0.000536235 702.584
0.0261907 4.51751e-21 0.000536244 677.914
-0.0262092 -7.90564e-21 0.00114363 160.727
0.0262093 1.12938e-21 0.00114365 116.874
-0.0260128 0 0.00368882 1498.83
0.026013 -1.35525e-20 0.00368885 1497.62
-0.026215 1.12938e-21 0.00181908 103.358
0.026215 0 0.0018191 61.5427
-0.0263228 -1.35525e-20 0.000121177 1177.41
0.0263228 1.35525e-20 0.000121199 1175.07
-0.0263263 1.35525e-20 7.18223e-12 1180.18
0.0263263 -2.71051e-20 7.1822e-12 1177.84
-0.0262139 1.12938e-21 0.00250529 197.499
0.026214 -3.38813e-21 0.0025053 135.009
-0.0261378 -2.71051e-20 0.00372349 1613.18
0.0261379 -1.35525e-20 0.00372351 1612.1
-0.0261644 4.06576e-20 0.00360602 1613.71
0.0261645 -1.35525e-20 0.00360608 1612.6
-0.0262302 -1.50584e-21 0.0032085 1000.86
0.0262302 1.8823e-21 0.00320851 965.349
-0.0264875 0 0.000258943 1200.07
0.0264876 0 0.000258951 1197.73
-0.0265116 0 0.000819231 233.312
0.0265116 0 0.000819229 178.858
-0.0265313 0 0.00145474 101.854
0.0265313 2.71051e-20 0.00145476 57.6049
-0.026307 0 0.00376734 1972.19
0.026307 -6.77626e-21 0.00376734 1971.04
-0.0265288 0 0.00214917 103.69
0.0265289 0 0.00214918 57.3307
0.0266623 1.35525e-20 2.30473e-12 1282.04
-0.0266624 -1.35525e-20 2.30271e-12 1284.35
0.0266707 -1.35525e-20 0.000106431 1283.15
-0.0266707 -1.35525e-20 0.000106394 1285.45
-0.0265278 0 0.00283317 239.351
0.0265278 -2.71051e-20 0.00283318 164.664
-0.0264226 0 0.00379806 2020.69
0.0264228 6.77626e-21 0.00379808 2019.62
-0.0265365 -2.82344e-21 0.00359658 1821.15
0.0265365 1.69407e-21 0.00359658 1816.2
-0.0267959 -1.35525e-20 1.18602e-12 1392.87
0.0267959 0 1.1879e-12 1390.62
-0.0268045 -1.12938e-21 0.0005015 831.778
0.0268045 -3.38813e-21 0.000501498 798.867
-0.0268426 1.12938e-21 0.00108827 185.496
0.0268426 -2.25875e-21 0.00108827 131.824
-0.0269065 1.35525e-20 8.39063e-05 1425.3
0.0269065 0 8.3937e-05 1423.02
-0.0269105 2.71051e-20 1.09878e-12 1421.38
0.0269105 0 1.1004e-12 1419.11
-0.0268569 0 0.00177521 100.337
0.0268569 -5.64689e-22 0.00177521 55.6292
-0.0268455 1.12938e-21 0.00249636 153.393
0.0268456 -1.12938e-21 0.00249637 97.7086
-0.0268309 1.807e-21 0.00322447 745.34
0.0268309 9.48677e-21 0.00322448 697.863
0.0267577 8.47033e-22 0.00386138 1980.51
-0.0267577 0 0.00386154 1981.8
-0.0267686 0 0.00388947 1989.43
0.0267686 0 0.00388946 1988.18
-0.0267817 0 0.00389295 1985.25
0.0267818 0 0.00389296 1983.96
-0.0267895 -1.69407e-21 0.00389519 1976.09
0.0267897 0 0.00389521 1974.74
-0.0267977 0 0.00388306 1961.93
0.0267979 0 0.00388302 1960.5
-0.0268077 8.47033e-22 0.00390073 1985.84
0.0268079 -1.01644e-20 0.00390078 1984.55
-0.0270953 0 0.00023099 1513.1
0.0270953 -2.71051e-20 0.000230989 1510.88
-0.0271307 2.71051e-20 0.000745242 300.275
0.0271307 2.71051e-20 0.000745245 227.88
-0.0271876 0 0.00136721 110.118
0.0271876 0 0.00136721 60.9617
-0.02717 2.71051e-20 0.00211415 86.956
0.02717 0 0.00211415 47.2035
-0.0270374 -9.68038e-21 0.00364688 1339.15
0.0270374 -1.93608e-21 0.00364689 1320.46
-0.0271535 0 0.00283769 174.857
0.0271535 -2.71051e-20 0.0028377 114.538
0.0273865 -6.02335e-21 0.0004332 871.708
-0.0273866 -1.50584e-21 0.000433203 893.551
-0.0272025 -1.35525e-20 0.00404241 1857.62
0.0272025 0 0.00404243 1856.16
0.0275127 0 2.93966e-06 1180.71
-0.0275208 4.23516e-22 1.06317e-13 1183.4
-0.0275278 4.23516e-22 1.05538e-13 1173.76
0.027528 -4.23516e-22 1.05132e-13 1170.89
-0.0275176 -4.14105e-21 0.000876077 331.269
0.0275176 -2.44698e-21 0.00087607 295.477
-0.0275406 0 1.8613e-05 1159.04
0.027541 0 1.89803e-05 1155.88
-0.0272667 1.35525e-20 0.00395781 1831.8
0.0272668 -2.71051e-20 0.00395784 1830.36
0.0275129 -7.05861e-23 0.00171283 56.5083
-0.0275266 -1.41172e-22 0.00170612 104.044
-0.0274757 3.38813e-21 0.00247994 125.804
0.0274757 -2.25875e-21 0.00247995 72.8547
-0.0274313 2.25875e-21 0.00322709 506.723
0.0274313 0 0.0032271 447.636
-0.0273527 1.35525e-20 0.00409792 1616.13
0.0273528 1.35525e-20 0.00409794 1614.73
-0.0274774 1.12938e-21 0.00369772 1262.29
0.0274774 1.12938e-21 0.00369774 1229.21
-0.0278217 0 0.00130219 125.891
0.0278218 -2.71051e-20 0.00130219 66.9174
-0.0277987 0 0.00208828 84.1101
0.0277987 -2.71051e-20 0.00208828 41.2572
-0.0278795 -3.76459e-21 0.000330555 798.841
0.0278795 0 0.000330552 795.209
-0.0275673 -1.69407e-20 0.00417883 1380.69
0.0275674 1.69407e-20 0.00417885 1379.18
-0.0277779 0 0.0028342 152.731
0.027778 0 0.00283422 84.7389
-0.0276683 -3.38813e-21 0.00421687 1409.68
0.0276684 1.01644e-20 0.00421691 1408.18
-0.0277108 0 0.00403356 1621.43
0.0277109 0 0.00403359 1620
-0.0278036 -2.71051e-20 0.00346787 387.904
0.0278037 2.71051e-20 0.00346788 311.759
0.0280306 1.35525e-20 3.72316e-14 923.03
-0.0280306 1.35525e-20 3.73072e-14 925.738
-0.0281597 -3.61401e-21 0.000826379 338.057
0.0281598 1.35525e-21 0.000826365 309.599
-0.0281239 3.38813e-22 0.00170643 103.901
0.0281239 -4.51751e-22 0.00170641 53.4519
-0.0281926 2.71051e-20 2.34313e-14 956.902
0.0281927 -2.71051e-20 2.34156e-14 953.554
-0.0281037 -5.64689e-22 0.00246047 107.899
0.0281037 -5.64689e-22 0.00246047 55.8917
-0.0278976 0 0.00430333 1710.79
0.0278978 1.35525e-20 0.00430337 1709.39
-0.0280998 -3.95282e-21 0.00316536 250.385
0.0280999 -5.64689e-22 0.00316537 170.188
-0.0280091 2.71051e-20 0.00434531 1767.43
0.0280092 -2.71051e-20 0.00434535 1766.09
-0.0280389 -1.35525e-20 0.00423697 1805.61
0.028039 0 0.00423702 1804.26
-0.0281246 -2.82344e-22 0.0038468 1215.58
0.0281246 9.41148e-23 0.00384682 1170.04
-0.0283974 1.35525e-20 1.6465e-14 868.103
0.0283975 -2.03288e-20 1.64528e-14 864.999
-0.0284432 2.71051e-20 0.0012926 126.341
0.0284432 0 0.0012926 68.9206
-0.0284192 2.71051e-20 0.0020741 78.2119
0.0284192 -2.71051e-20 0.00207411 36.2826
-0.0284972 -1.41172e-22 0.000323921 760.275
0.0284983 7.05861e-23 0.000322966 756.865
-0.0281711 -1.35525e-20 0.00440642 2034.45
0.0281712 6.77626e-21 0.00440645 2033.02
0.0285522 0 6.7283e-15 864.522
-0.0285522 2.71051e-20 6.71898e-15 867.788
-0.0284166 0 0.00281021 114.896
0.0284166 0 0.00281021 59.9429
-0.0284105 -2.71051e-20 0.00349464 322.255
0.0284105 5.42101e-20 0.00349465 202.504
-0.0282899 -6.77626e-21 0.00445124 2046.36
0.02829 -6.77626e-21 0.00445126 2044.91
-0.0284185 -1.12938e-21 0.00424829 1926.53
0.0284186 -2.82344e-21 0.00424831 1920.28
-0.0287651 2.71051e-20 2.83612e-16 968.28
0.0287651 0 2.95993e-16 964.092
0.0287466 -6.21157e-22 0.00168414 51.2665
-0.0287466 2.82344e-22 0.00168414 100.169
-0.0288079 -9.03502e-22 0.000872612 348.551
0.0288079 -6.32451e-21 0.000872602 307.069
-0.0287473 7.52918e-22 0.0024227 100.521
0.0287474 0 0.0024227 50.6841
-0.0287216 -1.12938e-21 0.00316753 188.556
0.0287216 3.38813e-21 0.00316754 112.458
0.0285807 0 0.0045608 1943.97
-0.0285808 1.69407e-21 0.00456081 1945.48
-0.0287115 -2.25875e-21 0.0038813 833.613
0.0287115 0 0.00388131 766.757
0.0286395 0 0.00458294 1963.59
-0.0286395 0 0.00458293 1965.09
0.0286465 -3.38813e-21 0.00457502 1950.88
-0.0286466 0 0.00457502 1952.4
-0.0290133 -1.35525e-20 1.86899e-16 795.124
0.0290135 0 1.94633e-16 790.6
-0.0286559 -3.38813e-21 0.00458911 1913.98
0.0286559 0 0.00458914 1912.4
-0.0286628 3.38813e-21 0.00455184 1870.52
0.0286628 3.38813e-21 0.00455182 1864.75
-0.0290304 -3.38813e-21 8.06872e-05 771.892
0.0290304 -1.69407e-21 8.001e-05 767.494
-0.0290331 -3.95282e-21 0.000330818 727.77
0.0290331 -2.82344e-21 0.000330829 720.604
0.0290394 0 1.6645e-16 794.977
-0.0290395 -1.01644e-20 1.59042e-16 799.593
-0.0286826 3.38813e-21 0.00457911 1902.39
0.0286827 0 0.00457912 1900.78
-0.0286988 -1.69407e-21 0.00460526 1889.92
0.0286989 0 0.00460531 1888.25
-0.0290348 2.71051e-20 0.00281401 104.651
0.0290349 -2.71051e-20 0.00281402 48.0064
-0.029155 0 0.00144553 112.43
0.029155 2.71051e-20 0.00144554 57.0356
-0.0291572 2.71051e-20 0.00194761 75.7671
0.0291573 2.71051e-20 0.00194759 39.3417
-0.0289114 1.74247e-20 0.00431134 1301.46
0.0289115 -7.7443e-21 0.00431137 1273.93
-0.0290289 0 0.00350519 202.408
0.0290289 -2.71051e-20 0.0035052 131.584
-0.0293191 1.35525e-20 1.46697e-16 952.818
0.0293192 0 1.49488e-16 947.292
0.0293261 -8.04681e-21 0.00083995 335.924
-0.0293263 -5.0822e-21 0.000839937 395.688
-0.029346 -1.3129e-20 0.000822089 403.446
0.0293461 -4.23516e-22 0.000821754 344.102
-0.0293459 0 0.000843819 396.551
0.029346 3.09167e-20 0.000843906 336.104
-0.0293596 8.47033e-22 0.000839783 396.872
0.02936 4.65868e-21 0.000839793 336.686
-0.029022 1.35525e-20 0.00472698 1704.29
0.029022 1.35525e-20 0.00472701 1702.45
-0.0293681 0 0.00167839 94.483
0.0293682 1.35525e-20 0.00167839 49.6147
-0.0293492 7.90564e-22 0.00243747 87.0813
0.0293492 4.51751e-22 0.00243747 41.1666
-0.0291129 0 0.00461943 1674.59
0.029113 -2.71051e-20 0.00461946 1672.82
-0.0293461 1.12938e-21 0.00316205 142.474
0.0293461 0 0.00316205 77.2214
0.0295421 -1.01644e-20 1.67699e-17 741.957
-0.0295423 3.38813e-21 1.51529e-17 747.856
-0.0293068 2.25875e-21 0.00388259 521.09
0.0293068 0 0.00388261 446.879
-0.0295827 0 0.00139945 110.805
0.0295827 0 0.00139947 63.1705
-0.029224 -1.35525e-20 0.00480306 1562.4
0.0292241 -1.35525e-20 0.00480312 1560.69
-0.0296229 2.25875e-21 0.000312396 717.941
0.0296231 2.25875e-21 0.000312322 709.72
-0.0295757 -5.42101e-20 0.00193306 74.4291
0.0295757 -2.71051e-20 0.00193306 37.4866
-0.0296592 -6.77626e-21 -6.00186e-17 727.172
0.0296598 6.77626e-21 -5.89086e-17 720.604
-0.0293408 3.16226e-21 0.00435957 1150.86
0.0293409 4.06576e-21 0.00435961 1108.94
-0.0296739 5.42101e-20 0.00278626 84.1754
0.0296739 -2.71051e-20 0.00278626 37.9522
-0.0294232 6.77626e-21 0.0048781 1190.46
0.0294234 2.03288e-20 0.00487815 1188.59
-0.029651 -2.71051e-20 0.00350308 173.514
0.029651 2.71051e-20 0.00350309 87.1007
-0.0298815 0 -1.91561e-16 803.346
0.0298818 1.35525e-20 -1.91567e-16 795.039
-0.0295072 1.35525e-20 0.00479828 1101.04
0.0295074 -6.77626e-21 0.00479831 1099.12
-0.0295244 -1.35525e-20 0.0049162 1164.46
0.0295246 6.77626e-21 0.00491626 1162.59
-0.0295732 0 0.00467621 1308.8
0.0295734 4.51751e-21 0.00467625 1306.95
-0.0296719 0 0.00412281 378.398
0.0296719 0 0.00412282 291.323
-0.0299617 7.52918e-22 0.000815835 385.6
0.0299618 -3.76459e-21 0.000815876 341.562
-0.0299758 0 0.000107543 649.256
0.0299759 -2.71051e-20 0.000107299 640.292
-0.0299859 -1.35525e-20 2.26926e-16 649.509
0.029986 -2.71051e-20 2.28937e-16 640.537
-0.0300036 1.12938e-21 0.00165375 95.1398
0.0300036 3.76459e-22 0.00165376 51.477
0.0300698 2.71051e-20 -5.95075e-16 570.143
-0.0300699 2.71051e-20 -5.95895e-16 578.751
-0.0299914 0 0.00233928 78.2918
0.0299915 0 0.00233928 35.725
-0.0297028 -2.71051e-20 0.00498341 1431.63
0.029703 0 0.00498346 1429.83
-0.0299738 -2.25875e-21 0.00312121 112.298
0.0299738 1.807e-21 0.00312121 53.9761
0.030181 -1.35525e-20 0.000217163 479.901
-0.0301813 0 0.000217574 489.002
-0.0299672 -3.38813e-21 0.00382607 251.74
0.0299673 -1.12938e-21 0.00382608 160.927
0.0302278 0 -3.28141e-16 470.177
-0.0302282 0 -3.2848e-16 479.273
-0.0298589 -2.03288e-20 0.00504218 1524.85
0.0298591 6.77626e-21 0.00504224 1523.1
-0.0299001 0 0.00489103 1573.28
0.0299002 1.35525e-20 0.00489108 1571.54
-0.0299789 2.25875e-21 0.00451145 1065.36
0.029979 0 0.00451148 1015.3
-0.0302909 2.71051e-20 0.00277109 75.4207
0.0302909 0 0.0027711 31.7897
-0.0304299 0 0.000466563 380.481
0.0304299 -2.71051e-20 0.000466598 370.076
-0.0304045 0 0.00137206 114.651
0.0304046 2.71051e-20 0.00137208 66.9579
-0.0304135 2.71051e-20 0.00193181 75.4307
0.0304135 2.71051e-20 0.00193181 34.9184
-0.0302817 2.71051e-20 0.00348658 121.215
0.0302818 2.71051e-20 0.00348658 61.0861
-0.0300763 -3.38813e-21 0.00512403 1859.63
0.0300764 0 0.00512407 1857.81
-0.0300986 0 0.00513244 1865.21
0.0300987 0 0.00513249 1863.4
-0.0301131 1.69407e-21 0.00510514 1861.8
0.0301132 0 0.00510518 1859.99
-0.0302754 2.71051e-20 0.00415049 312.688
0.0302754 0 0.00415051 185.113
-0.0301558 0 0.00515398 1848.17
0.0301559 -5.0822e-21 0.00515403 1846.29
-0.0306238 6.77626e-21 0.000140979 363.965
0.0306241 6.77626e-21 0.000140662 353.113
-0.0306244 -6.77626e-21 -1.79493e-16 366.143
0.0306248 0 -1.79033e-16 355.375
-0.0306423 0 0.00151867 115.648
0.0306423 -2.90411e-21 0.00151863 76.3179
-0.0306825 0 0.000897082 241.103
0.0306825 -6.77626e-21 0.000897119 215.417
0.0306215 0 0.00240218 31.0788
-0.0306215 1.05879e-22 0.00240216 72.2001
-0.0303176 -9.03502e-21 0.00489734 1685.61
0.0303177 0 0.00489738 1672.19
-0.0306274 -1.05879e-21 0.00240029 72.168
0.0306275 1.37643e-21 0.00240029 31.0668
-0.0307421 -1.35525e-20 1.71584e-17 353.572
0.0307421 0 1.7217e-17 342.604
-0.0306034 -1.12938e-21 0.00312872 92.4198
0.0306034 -1.12938e-21 0.00312872 41.4475
-0.0305867 -1.12938e-21 0.00382867 186.312
0.0305868 0 0.00382868 104.721
0.030858 0 0.000201871 329.236
-0.0308582 1.35525e-20 0.00020222 340.723
-0.0304244 0 0.00525515 1927.37
0.0304245 -6.77626e-21 0.0052552 1925.29
-0.0308404 0 0.00193363 75.2291
0.0308404 2.71051e-20 0.00193363 33.1909
-0.0304578 6.77626e-21 0.00521938 1874.41
0.0304579 -6.77626e-21 0.00521942 1872.32
-0.0305717 -5.42101e-21 0.00453515 751.693
0.0305717 -1.35525e-21 0.00453517 675.933
0.0309075 -6.77626e-21 1.5826e-17 325.951
-0.0309077 1.35525e-20 1.57859e-17 337.466
-0.0308851 0 0.00139414 104.264
0.0308852 0 0.00139415 66.3508
-0.0304977 0 0.00528273 1730.19
0.0304978 0 0.00528278 1727.97
-0.0305279 6.77626e-21 0.00512532 1582.25
0.030528 0 0.00512536 1561.97
-0.0306501 0 0.00495208 1297.05
0.0306502 1.35525e-20 0.00495211 1265.91
-0.0306111 0 0.00523694 1696.47
0.0306112 0 0.00523698 1694.08
-0.0309389 2.71051e-20 0.00275384 65.8824
0.0309389 0 0.00275384 27.2848
-0.0309045 -5.42101e-20 0.00347726 105.979
0.0309046 2.71051e-20 0.00347727 44.9665
-0.0311021 -4.51751e-21 0.000526104 307.22
0.0311022 -4.51751e-21 0.000526118 293.252
-0.031117 -1.35525e-20 1.03361e-17 324.455
0.0311171 2.71051e-20 1.03377e-17 312.473
-0.0306846 3.38813e-21 0.00535314 1650.23
0.0306847 6.77626e-21 0.00535319 1647.57
-0.030891 0 0.00416128 195.456
0.030891 -2.71051e-20 0.0041613 120.145
-0.0308345 0 0.00486794 889.646
0.0308346 0 0.00486797 811.743
-0.0312314 -2.82344e-21 0.00167876 86.4677
0.0312314 0 0.00167877 47.4597
-0.030812 -2.71051e-20 0.00540114 1588.96
0.0308122 0 0.00540119 1586.11
-0.0308871 0 0.00520301 1497.08
0.0308872 2.71051e-21 0.00520305 1494.44
-0.0313262 0 1.23102e-17 329.268
0.0313263 0 1.22962e-17 317.102
-0.0312895 -1.12938e-21 0.00228791 69.3608
0.0312895 -1.12938e-21 0.00228791 30.4073