# pMean  POINT_DATA 14232
# x  y  z  pMean
0 -0.0115468 6.39774e-08 0.0323748
0 0.0115468 6.39774e-08 -0.00409984
0 -0.0115468 0.000159933 0.0323734
6.77626e-21 0.0115468 0.000159966 -0.00409983
1.35525e-20 -0.0115468 0.000505149 0.0323735
0 0.0115468 0.000505252 -0.00409982
0 -0.0115468 0.000661354 0.0323745
0 0.0115468 0.00066149 -0.00409984
-6.77626e-21 -0.0115468 0.000824682 0.0323692
0 0.0115468 0.000824823 -0.00409981
6.77626e-21 -0.0115467 0.00119323 0.0323695
-6.77626e-21 0.0115467 0.00119337 -0.00409981
0 0.0116176 9.48413e-05 -0.00409981
0 -0.0116176 9.48284e-05 0.0323718
0 0.0116191 6.70002e-08 -0.00409981
0 -0.0116191 6.70007e-08 0.0323718
0 -0.0115467 0.00135636 0.0323745
0 0.0115467 0.0013565 -0.00409983
0 -0.0116144 0.000567788 0.0323719
0 0.0116144 0.000567904 -0.00409981
-1.35525e-20 -0.0116106 0.000748384 0.0323694
0 0.0116106 0.000748514 -0.0040998
0 -0.0115467 0.00152899 0.0323706
6.77626e-21 0.0115467 0.00152911 -0.0040998
-1.35525e-20 -0.0116105 0.00124699 0.0323699
1.35525e-20 0.0116105 0.00124712 -0.0040998
0 -0.0116054 0.00142615 0.0323706
-1.35525e-20 0.0116054 0.00142627 -0.00409979
6.77626e-21 -0.0115467 0.00190899 0.032371
0 0.0115467 0.00190902 -0.00409981
1.35525e-20 0.0117276 6.6334e-08 -0.00409979
-1.35525e-20 -0.0117276 6.63364e-08 0.0323704
-6.77626e-21 -0.0117103 0.000650495 0.0323713
2.03288e-20 0.0117103 0.000650588 -0.00409979
-1.35525e-20 0.0115467 0.002087 -0.00409984
1.35525e-20 -0.0115467 0.002087 0.0323755
0 -0.011609 0.00193563 0.0323711
0 0.011609 0.00193565 -0.0040998
-6.77626e-21 -0.0117025 0.00130867 0.0323727
6.77626e-21 0.0117025 0.00130876 -0.0040998
0 0.0116004 0.00211165 -0.00409984
-1.35525e-20 -0.0116004 0.00211165 0.0323758
0 0.0116425 0.00204727 -0.00409982
-1.35525e-20 -0.0116425 0.00204727 0.0323745
1.35525e-20 0.0116584 0.00213829 -0.0040998
-1.35525e-20 -0.0116585 0.00213829 0.0323715
-1.35525e-20 -0.0117067 0.00192898 0.0323723
-1.35525e-20 0.0117067 0.00192897 -0.0040998
4.51751e-21 -0.0118537 0.000959072 0.0323723
4.51751e-21 0.0118537 0.000959138 -0.00409977
-4.51751e-21 0.0119178 0.000318651 -0.00409976
-1.12938e-20 -0.0119179 0.00031862 0.0323662
1.35525e-20 0.011932 7.04551e-08 -0.00409975
-1.35525e-20 -0.011932 7.04586e-08 0.0323665
2.71051e-21 -0.0118325 0.00163065 0.0323716
0 0.0118325 0.00163068 -0.00409977
-1.35525e-20 -0.0118724 0.00142181 0.0323736
0 0.0118724 0.00142183 -0.00409978
-1.35525e-20 0.0117615 0.0021856 -0.00409975
0 -0.0117616 0.0021856 0.0323665
-5.42101e-20 0.0118132 0.00220929 -0.00409976
-2.71051e-20 -0.0118132 0.00220929 0.0323652
-3.76459e-22 0.0118989 0.00195768 -0.00409971
-2.63521e-21 -0.0118989 0.00195769 0.0323642
0 -0.0119718 0.0015384 0.0323783
6.77626e-21 0.0119718 0.0015384 -0.00409981
0 0.0120982 7.96187e-08 -0.00409971
0 -0.0120983 7.96213e-08 0.0323619
4.06576e-21 -0.0120695 0.00085261 0.0323702
-2.71051e-21 0.0120694 0.000852623 -0.00409973
0 0.0122081 0.000167123 -0.00409972
-2.71051e-20 -0.0122082 0.000167145 0.0323585
0 0.012221 7.14632e-08 -0.00409972
0 -0.012221 7.14627e-08 0.0323586
2.71051e-21 0.0121684 0.00122551 -0.0040997
-1.95759e-21 -0.0121684 0.00122551 0.0323615
-2.71051e-20 0.012025 0.00230651 -0.00409966
6.77626e-21 -0.0120251 0.00230652 0.032348
3.22679e-21 0.0122349 0.000642359 -0.00409965
1.29072e-21 -0.0122349 0.000642359 0.0323554
-1.01644e-20 0.0120594 0.00232227 -0.00409966
0 -0.0120594 0.00232227 0.0323484
0 0.0122855 6.71739e-08 -0.00409967
2.71051e-20 -0.0122856 6.71709e-08 0.0323576
1.97641e-21 0.0122109 0.00173628 -0.00409966
-2.82344e-22 -0.0122109 0.0017363 0.0323565
-5.42101e-21 0.0121468 0.002146 -0.00409964
8.13152e-21 -0.0121468 0.00214601 0.0323496
-6.77626e-21 0.0122263 0.00229071 -0.00409964
6.77626e-21 -0.0122264 0.00229075 0.0323501
0 0.0124605 5.58013e-08 -0.00409964
0 -0.0124606 5.57971e-08 0.0323518
0 0.0125121 0.000225139 -0.00409962
0 -0.0125121 0.00022516 0.0323501
0 0.0122889 0.00242764 -0.00409965
0 -0.012289 0.00242766 0.0323543
0 0.0125901 0.000921782 -0.00409957
-2.71051e-20 -0.0125902 0.000921784 0.0323489
-1.35525e-20 0.012401 0.00241701 -0.00409961
0 -0.0124011 0.00241703 0.0323515
-6.77626e-21 0.0123956 0.00247648 -0.00409961
-6.77626e-21 -0.0123956 0.00247647 0.0323514
-3.38813e-21 0.0124525 0.00218686 -0.00409961
-1.69407e-21 -0.0124525 0.00218688 0.0323532
0 0.0125382 0.00209403 -0.00409963
2.71051e-20 -0.0125382 0.00209406 0.0323607
1.0842e-20 0.0126447 0.00162116 -0.00409955
2.71051e-20 -0.0126447 0.00162119 0.0323471
1.35525e-20 -0.012772 0.000141272 0.0323421
0 0.0127721 0.000141226 -0.00409953
1.35525e-20 -0.0127747 1.51153e-08 0.0323423
1.35525e-20 0.0127748 1.5111e-08 -0.00409953
-2.71051e-21 -0.0126131 0.00241882 0.0323472
-1.35525e-20 0.0126131 0.00241885 -0.00409956
1.35525e-20 -0.0125862 0.00256375 0.0323441
-2.71051e-20 0.0125863 0.00256377 -0.00409954
0 -0.0129279 4.53095e-09 0.0323387
0 0.0129279 4.5309e-09 -0.00409948
9.03502e-21 0.0129181 0.000605376 -0.00409948
-1.88079e-37 -0.0129182 0.000605392 0.0323389
-2.25875e-21 0.0129069 0.00122274 -0.00409948
0 -0.012907 0.00122277 0.0323394
0 -0.0127463 0.00263701 0.0323405
-2.71051e-20 0.0127464 0.00263706 -0.0040995
-9.03502e-21 0.0128745 0.00194112 -0.00409949
-4.51751e-21 -0.0128746 0.00194114 0.0323436
0 0.0130689 3.79654e-09 -0.00409944
0 -0.0130689 3.79638e-09 0.0323342
2.71051e-20 0.0130684 0.000129725 -0.00409944
-1.35525e-20 -0.0130685 0.000129752 0.0323342
-4.51751e-21 0.0129105 0.00229689 -0.00409947
-2.25875e-21 -0.0129106 0.00229692 0.0323394
-8.13152e-21 0.0131166 0.0016405 -0.00409942
8.13152e-21 -0.0131166 0.00164056 0.0323335
0 0.013248 0.000302964 -0.00409938
2.71051e-20 -0.013248 0.000302967 0.0323286
-6.77626e-21 -0.0129823 0.00274604 0.0323338
2.71051e-20 0.0129824 0.00274607 -0.00409943
0 0.0132464 0.000911472 -0.00409938
-2.71051e-20 -0.0132464 0.000911494 0.0323307
9.03502e-21 0.0131304 0.00262467 -0.00409939
0 -0.0131304 0.00262473 0.0323308
2.71051e-20 0.0132415 0.00211425 -0.00409939
0 -0.0132416 0.0021143 0.0323362
1.35525e-20 0.0131185 0.00280836 -0.0040994
0 -0.0131186 0.00280842 0.0323317
-1.35525e-20 -0.013437 2.08369e-09 0.0323234
-1.35525e-20 0.013437 2.0834e-09 -0.00409934
0 -0.0134397 0.000120667 0.0323233
-1.35525e-20 0.0134397 0.000120639 -0.00409934
-1.35525e-20 0.0135679 1.40563e-09 -0.00409931
0 -0.0135679 1.40572e-09 0.0323204
0 0.0135763 0.00059667 -0.0040993
0 -0.0135763 0.000596688 0.0323194
9.03502e-21 0.0135724 0.00122413 -0.0040993
2.25875e-21 -0.0135724 0.00122416 0.0323197
2.71051e-20 0.0133498 0.00291517 -0.00409935
-2.71051e-20 -0.0133499 0.00291524 0.032329
6.77626e-21 0.0134778 0.00238384 -0.00409932
-6.77626e-21 -0.013478 0.00238391 0.0323271
-4.51751e-21 0.0135676 0.00185527 -0.0040993
-6.77626e-21 -0.0135677 0.00185532 0.0323233
1.35525e-20 0.0136939 1.2223e-09 -0.00409928
0 -0.013694 1.22233e-09 0.0323166
0 0.0136952 0.000110039 -0.00409928
-1.35525e-20 -0.0136952 0.000110069 0.0323165
2.03288e-20 -0.0135431 0.00300575 0.0323266
3.72694e-20 0.0135431 0.00300574 -0.00409929
0 -0.0139035 0.000294194 0.0323107
0 0.0139035 0.000294183 -0.00409923
1.69407e-20 0.0135877 0.0030267 -0.00409927
-1.69407e-20 -0.013588 0.00302686 0.0323246
0 0.0139156 0.000900746 -0.00409921
0 -0.0139156 0.000900767 0.0323071
-4.51751e-21 0.0136798 0.00276423 -0.00409925
-4.51751e-21 -0.0136798 0.00276433 0.0323222
2.71051e-20 0.0139125 0.00154327 -0.0040992
0 -0.0139126 0.00154331 0.0323117
-2.71051e-20 0.0138987 0.00219587 -0.00409921
-2.71051e-20 -0.0138988 0.00219593 0.0323164
0 -0.0141099 3.98855e-10 0.0323048
-1.35525e-20 0.01411 3.98723e-10 -0.00409919
1.35525e-20 -0.0141138 9.87932e-05 0.0323047
1.35525e-20 0.0141138 9.87563e-05 -0.00409919
-1.35525e-20 0.0138003 0.00312616 -0.00409922
-1.35525e-20 -0.0138004 0.00312625 0.0323186
0 -0.0142228 2.30732e-10 0.0323023
0 0.0142228 2.30673e-10 -0.00409916
-2.25875e-21 0.0142415 0.000580992 -0.00409914
-4.51751e-21 -0.0142415 0.000581005 0.0322987
-1.12938e-21 0.0142522 0.0012064 -0.00409912
1.12938e-21 -0.0142522 0.00120643 0.0322972
-1.35525e-20 0.0143301 2.07135e-10 -0.00409915
0 -0.0143301 2.07176e-10 0.0322985
0 0.0143313 8.88715e-05 -0.00409915
0 -0.0143313 8.89061e-05 0.0322985
-6.77626e-21 0.013971 0.00320516 -0.0040991
-1.35525e-20 -0.0139711 0.00320521 0.0323023
2.25875e-21 0.0142439 0.0018749 -0.00409913
-1.12938e-21 -0.014244 0.00187495 0.0323053
0 0.0140732 0.00302489 -0.00409907
-2.71051e-21 -0.0140733 0.003025 0.032298
9.03502e-22 0.0141848 0.00260879 -0.00409912
-9.03502e-22 -0.014185 0.00260885 0.032307
6.77626e-21 0.0140966 0.0032633 -0.00409906
0 -0.014097 0.00326346 0.0322987
0 0.0142071 0.00316519 -0.00409904
-1.35525e-20 -0.0142074 0.00316541 0.0322959
0 -0.0145609 0.000281732 0.0322921
-2.71051e-20 0.0145609 0.000281727 -0.0040991
0 0.0145815 0.000874352 -0.00409903
0 -0.0145815 0.000874372 0.0322846
-1.35525e-20 0.0142355 0.00332755 -0.00409908
2.71051e-20 -0.0142357 0.00332766 0.0323003
0 0.0145904 0.00151948 -0.00409903
2.71051e-20 -0.0145905 0.00151951 0.032285
0 0.0145713 0.00221296 -0.00409905
0 -0.0145714 0.00221301 0.0323084
0 0.014357 0.00338361 -0.00409906
1.35525e-20 -0.0143572 0.00338367 0.0323028
4.51751e-21 0.0144398 0.00302856 -0.00409903
-6.02335e-21 -0.0144401 0.00302864 0.0322958
-1.35525e-20 0.0143822 0.00330545 -0.00409905
-1.35525e-20 -0.0143823 0.00330556 0.0323005
-1.35525e-20 -0.0147852 4.2202e-11 0.0322865
0 0.0147853 4.21645e-11 -0.00409904
-1.35525e-20 -0.0147878 7.95663e-05 0.0322865
-1.35525e-20 0.0147879 7.95165e-05 -0.00409904
-1.35525e-20 -0.0148815 2.04947e-11 0.0322854
1.35525e-20 0.0148815 2.04768e-11 -0.00409899
2.71051e-20 0.0146213 0.00280153 -0.00409903
0 -0.0146214 0.00280159 0.032298
-2.25875e-21 -0.0149014 0.000554709 0.0322799
-4.51751e-21 0.0149014 0.000554705 -0.00409896
0 0.0145853 0.00326151 -0.00409902
-2.71051e-20 -0.0145855 0.00326159 0.0323003
1.12938e-21 0.014922 0.00116916 -0.00409893
-1.12938e-21 -0.014922 0.00116918 0.0322783
0 0.0149733 1.85798e-11 -0.00409898
-1.35525e-20 -0.0149733 1.85939e-11 0.0322817
0 0.0149737 7.37377e-05 -0.00409898
0 -0.0149738 7.37977e-05 0.0322817
2.71051e-20 0.0146077 0.00349933 -0.00409902
1.35525e-20 -0.014608 0.00349943 0.0323005
-1.12938e-21 0.0149197 0.00184904 -0.00409894
0 -0.0149198 0.00184907 0.0322843
0 0.0146661 0.00343238 -0.004099
0 -0.0146663 0.00343252 0.0322979
0 0.0149194 0.00252068 -0.00409894
-1.12938e-21 -0.0149195 0.00252073 0.0322847
2.71051e-20 0.0147321 0.00355666 -0.00409899
0 -0.0147322 0.00355672 0.0322912
-2.25875e-21 0.0148879 0.00309611 -0.00409894
0 -0.0148881 0.00309617 0.0322853
0 -0.0152102 0.000264579 0.0322759
2.71051e-20 0.0152103 0.00026457 -0.00409892
0 -0.0152372 0.000832817 0.0322672
2.71051e-20 0.0152372 0.000832812 -0.00409881
0 0.0148481 0.0036099 -0.00409893
0 -0.0148482 0.00360994 0.0322861
0 0.0148927 0.003477 -0.00409893
1.35525e-20 -0.0148928 0.00347709 0.0322854
-2.71051e-20 0.0152552 0.00147323 -0.00409884
2.71051e-20 -0.0152552 0.00147325 0.0322759
2.71051e-20 0.0152472 0.00216851 -0.00409885
5.42101e-20 -0.0152472 0.00216853 0.0322695
0 -0.0154526 2.80546e-12 0.0322658
0 0.0154528 2.79932e-12 -0.00409892
0 -0.0154539 6.4364e-05 0.0322658
0 0.0154541 6.42863e-05 -0.00409892
-2.71051e-20 0.0150217 0.00368977 -0.00409887
2.71051e-20 -0.0150218 0.00368985 0.0322749
0 0.0150964 0.00340472 -0.00409888
2.71051e-20 -0.0150966 0.00340477 0.0322784
0 0.0152384 0.002848 -0.00409883
0 -0.0152385 0.00284804 0.0322644
0 -0.0155344 1.12584e-12 0.0322641
0 0.0155345 1.12356e-12 -0.0040989
2.71051e-20 0.015136 0.00358108 -0.00409883
0 -0.0151361 0.00358119 0.0322698
0 -0.0155483 0.000512811 0.0322649
0 0.0155483 0.000512813 -0.00409886
0 -0.0156089 5.68786e-05 0.032258
6.77626e-21 0.0156089 5.68083e-05 -0.00409894
0 -0.0156116 1.05395e-12 0.032258
6.77626e-21 0.0156116 1.052e-12 -0.00409894
1.35525e-20 0.0151553 0.00375102 -0.00409883
-1.35525e-20 -0.0151554 0.00375107 0.0322698
-1.12938e-21 -0.0156 0.0011003 0.0322629
0 0.0156 0.0011003 -0.00409874
0 0.0155873 0.00178843 -0.00409876
-1.12938e-21 -0.0155873 0.00178845 0.032263
0 0.0152736 0.00381163 -0.00409874
-1.35525e-20 -0.0152737 0.00381166 0.0322579
1.35525e-20 0.015311 0.00369351 -0.00409873
-4.06576e-20 -0.0153111 0.00369356 0.032257
3.38813e-21 0.0155683 0.00250748 -0.00409877
2.25875e-21 -0.0155684 0.00250751 0.0322633
0 -0.015842 0.000233949 0.032248
-5.42101e-20 0.0158421 0.000233943 -0.00409895
-4.51751e-22 0.0155232 0.00325344 -0.00409875
1.35525e-21 -0.0155233 0.00325348 0.0322593
0 -0.0158871 0.000762453 0.0322687
2.71051e-20 0.0158872 0.000762453 -0.00409876
-1.35525e-20 0.0154852 0.00363865 -0.00409866
-1.35525e-20 -0.0154853 0.00363869 0.032243
6.77626e-21 0.0154927 0.00391521 -0.0040987
0 -0.0154927 0.00391527 0.0322525
2.71051e-20 -0.0159268 0.00138123 0.0322438
0 0.0159268 0.00138123 -0.00409863
0 0.0155593 0.00385214 -0.00409869
1.35525e-20 -0.0155593 0.00385222 0.032251
2.71051e-20 0.0158993 0.00212235 -0.00409871
2.71051e-20 -0.0158994 0.00212237 0.0322611
0 0.0155754 0.0039559 -0.00409872
0 -0.0155754 0.00395594 0.0322538
0 0.0158855 0.00284661 -0.0040987
0 -0.0158856 0.00284663 0.0322598
6.77626e-21 0.0156482 0.00400349 -0.00409875
1.35525e-20 -0.0156482 0.00400353 0.0322583
5.64689e-22 -0.0161504 0.000464681 0.0322437
-3.95282e-21 0.0161505 0.000464663 -0.00409857
-1.35525e-20 0.0156709 0.00394832 -0.00409873
0 -0.0156709 0.00394837 0.032256
2.25875e-21 0.0157655 0.00368363 -0.00409868
0 -0.0157655 0.00368367 0.0322508
4.23516e-21 0.0162446 7.65639e-14 -0.00409841
0 -0.0162451 7.54652e-14 0.0322444
8.47033e-22 -0.0162671 1.41525e-05 0.0322436
0 -0.0162672 1.73772e-06 0.0322437
7.19978e-21 0.0162672 1.45818e-05 -0.0040984
0 0.0162715 1.44085e-06 -0.00409839
0 0.0159384 0.00346448 -0.00409867
2.71051e-20 -0.0159385 0.00346452 0.0322546
-2.25875e-22 -0.0162375 0.00174474 0.0322352
3.95282e-22 0.0162375 0.00174473 -0.00409859
2.25875e-21 -0.0163344 0.000944398 0.0322458
-6.77626e-21 0.0163345 0.00094441 -0.00409844
0 0.015896 0.00392573 -0.00409871
-2.71051e-20 -0.0158961 0.00392576 0.0322577
-8.87368e-22 -0.0162554 0.00244443 0.0322185
5.64689e-22 0.0162554 0.0024444 -0.00409856
-1.35525e-20 -0.0159402 0.00419462 0.0322562
0 0.0159403 0.00419464 -0.00409872
5.64689e-22 0.0162141 0.0031706 -0.00409858
-5.64689e-22 -0.0162141 0.00317063 0.0322367
0 -0.0159991 0.00414939 0.0322533
0 0.0159991 0.00414944 -0.0040987
1.35525e-20 -0.016026 0.00425069 0.0322445
0 0.0160261 0.00425068 -0.00409864
9.41148e-23 -0.0166367 0.000352811 0.0322007
-1.8823e-22 0.0166369 0.00035298 -0.00409643
0 0.0160816 0.0042869 -0.0040986
-1.35525e-20 -0.0160816 0.00428693 0.0322341
0 0.016105 0.00423208 -0.0040986
1.35525e-20 -0.016105 0.00423207 0.0322348
0 0.016226 0.00384224 -0.00409859
1.90582e-21 -0.0162262 0.00384229 0.0322395
-6.35275e-22 0.0162339 0.00382556 -0.00409859
0 -0.016234 0.00382567 0.0322392
1.05879e-22 0.0162401 0.00384589 -0.00409859
5.29396e-22 -0.0162402 0.00384591 0.0322393
-6.77626e-21 -0.0167083 1.01691e-14 0.0321991
-6.77626e-21 0.0167085 1.01518e-14 -0.00409654
2.71051e-20 -0.0166691 0.00146462 0.0322942
-2.71051e-20 0.0166691 0.0014646 -0.00409861
-2.71051e-20 0.0165265 0.00282081 -0.00409847
2.71051e-20 -0.0165265 0.00282082 0.0322112
-1.35525e-20 0.0161983 0.00436312 -0.00409861
6.77626e-21 -0.0161984 0.00436321 0.0322407
0 0.0166645 0.00194624 -0.00409843
0 -0.0166645 0.00194624 0.032144
0 0.0165187 0.00350446 -0.00409847
0 -0.0165187 0.00350448 0.032221
1.35525e-20 -0.0169424 1.10016e-15 0.0321925
-1.35525e-20 0.0169426 1.10457e-15 -0.00409704
0 0.0163499 0.0044621 -0.00409866
1.35525e-20 -0.0163499 0.00446215 0.0322535
-3.10579e-21 0.0169272 0.000866318 -0.00409782
2.82344e-22 -0.0169272 0.000866359 0.032199
0 -0.0168736 0.00168495 0.0322086
1.35525e-20 0.0168736 0.00168495 -0.00409842
0 0.0164548 0.00427999 -0.00409869
0 -0.0164549 0.00428004 0.0322607
1.41172e-22 0.0168849 0.00243443 -0.00409834
-4.23516e-22 -0.0168849 0.00243444 0.0321796
-6.77626e-21 -0.0164962 0.00455767 0.032229
6.77626e-21 0.0164963 0.00455763 -0.00409849
5.64689e-22 0.0168359 0.00316003 -0.00409838
0 -0.0168359 0.00316005 0.0322094
2.03288e-20 -0.0171338 1.74503e-16 0.0321584
0 0.0171342 1.75422e-16 -0.0040967
-5.42101e-20 -0.0170775 0.00142438 0.0322352
-2.71051e-20 0.0170775 0.00142436 -0.00409837
0 -0.0171371 0.000271939 0.0321598
-8.13152e-21 0.0171374 0.000272002 -0.00409677
-2.71051e-20 -0.0170666 0.00192551 0.0321663
-2.71051e-20 0.0170666 0.00192552 -0.00409833
0 0.0167863 0.00388665 -0.00409841
1.12938e-21 -0.0167864 0.00388666 0.0322215
0 0.0166207 0.00463877 -0.00409841
1.35525e-20 -0.0166207 0.00463882 0.0322213
-2.71051e-20 0.0166524 0.00459992 -0.00409841
1.35525e-20 -0.0166524 0.00459996 0.0322206
0 0.0166794 0.00467712 -0.00409842
1.35525e-20 -0.0166795 0.00467717 0.0322224
4.70574e-23 0.0168452 0.00433528 -0.00409839
-1.8823e-22 -0.0168452 0.00433533 0.0322222
0 0.0171764 0.00277493 -0.00409827
2.71051e-20 -0.0171764 0.00277494 0.0321961
0 0.0174301 3.02821e-16 -0.00409739
-1.35525e-20 -0.0174308 3.00143e-16 0.0321536
0 0.0168042 0.00464355 -0.00409835
1.35525e-20 -0.0168042 0.0046436 0.0322147
-6.77626e-21 0.0167886 0.00474831 -0.00409835
-1.35525e-20 -0.0167887 0.00474841 0.0322146
-6.77626e-21 0.017449 0.000139075 -0.00409746
0 -0.0174496 0.000138384 0.0321548
0 0.0171294 0.00350658 -0.0040983
-5.42101e-20 -0.0171294 0.00350658 0.0322085
6.77626e-21 0.0175668 -2.95376e-17 -0.00409803
-6.77626e-21 -0.0175669 -2.94894e-17 0.0321611
-1.55289e-21 -0.0175583 0.000896637 0.0321771
8.47033e-22 0.0175583 0.000896566 -0.00409808
4.23516e-22 0.0175189 0.00167533 -0.00409824
-5.64689e-22 -0.0175189 0.00167527 0.0321943
0 -0.0176062 4.62633e-05 0.0321578
0 0.0176064 4.65549e-05 -0.00409821
0 -0.0176089 -8.34911e-18 0.0321579
-6.77626e-21 0.0176091 -8.34566e-18 -0.00409821
-5.42101e-20 0.0171399 0.00413685 -0.00409835
2.71051e-20 -0.01714 0.00413687 0.0322258
0 -0.0176343 -4.66438e-18 0.0321608
6.77626e-21 0.0176347 -4.59267e-18 -0.00409814
2.71051e-20 0.0170445 0.00462908 -0.00409826
-2.71051e-20 -0.0170446 0.00462915 0.032208
5.64689e-22 0.0175376 0.00228764 -0.00409822
5.64689e-22 -0.0175376 0.00228764 0.0321955
1.35525e-20 0.0170023 0.00488776 -0.00409829
1.35525e-20 -0.0170024 0.00488785 0.0322147
0 -0.0176972 4.73616e-05 0.0321598
0 0.017698 4.76654e-05 -0.00409803
0 -0.0177005 -1.62469e-17 0.0321598
6.77626e-21 0.0177013 -1.6206e-17 -0.00409803
9.03502e-22 0.0174646 0.00310785 -0.00409823
1.91994e-21 -0.0174646 0.00310784 0.0322069
0 0.0171112 0.00481659 -0.00409826
-1.35525e-20 -0.0171113 0.00481669 0.0322149
0 0.0171346 0.00497401 -0.00409828
1.35525e-20 -0.0171347 0.00497414 0.0322181
-4.51751e-21 0.0174342 0.00383429 -0.00409824
1.12938e-21 -0.0174342 0.0038343 0.0322103
-2.71051e-20 0.0172171 0.00502787 -0.00409813
-1.35525e-20 -0.0172173 0.005028 0.032187
1.35525e-20 0.0172554 0.00493142 -0.00409814
0 -0.0172556 0.00493155 0.0321926
-3.76459e-22 0.0174076 0.00453333 -0.00409823
-1.69407e-21 -0.0174076 0.00453337 0.0322164
-2.71051e-20 0.0177905 0.00276845 -0.00409818
2.71051e-20 -0.0177905 0.00276845 0.0322212
0 0.0177573 0.00348298 -0.00409817
-2.71051e-20 -0.0177574 0.003483 0.0322065
-6.77626e-21 0.017378 0.00513278 -0.00409821
6.77626e-21 -0.0173781 0.00513291 0.0322192
0 0.0174497 0.00517959 -0.00409826
6.77626e-21 -0.0174498 0.00517965 0.0322376
0 0.0177264 0.00417356 -0.00409815
-2.71051e-20 -0.0177264 0.00417357 0.0322001
6.77626e-21 0.0175029 0.00510088 -0.00409828
0 -0.0175029 0.005101 0.0322468
5.42101e-20 -0.0181611 0.00171797 0.0321992
0 0.0181612 0.00171798 -0.00409813
6.77626e-21 -0.0175201 0.0052255 0.0322222
1.35525e-20 0.0175201 0.00522553 -0.00409819
-5.42101e-20 -0.0182822 0.000515621 0.0321541
0 0.0182823 0.000515628 -0.00409805
1.05879e-22 0.0181327 0.00240414 -0.00409807
-1.2282e-20 -0.0181332 0.00240535 0.032197
-1.05879e-21 -0.0181316 0.00242435 0.032197
1.05879e-22 0.0181316 0.0024249 -0.00409807
-3.01167e-21 0.0176138 0.0049468 -0.00409833
0 -0.0176139 0.00494683 0.0322701
0 0.0180947 0.00311468 -0.00409808
0 -0.0180947 0.00311469 0.0322002
0 0.0180563 0.00382343 -0.00409809
2.25875e-21 -0.0180564 0.00382344 0.0322021
0 -0.0177083 0.00534827 0.0322184
0 0.0177083 0.00534827 -0.00409813
0 -0.0177632 0.00528867 0.0322199
0 0.0177632 0.00528872 -0.00409812
-4.51751e-21 0.0179883 0.0045481 -0.00409811
-2.25875e-21 -0.0179884 0.00454809 0.0322143
2.71051e-20 0.0178024 0.00540967 -0.00409813
2.71051e-20 -0.0178025 0.0054097 0.0322295
2.71051e-20 -0.0184402 0.00274762 0.0321727
0 0.0184402 0.00274761 -0.00409794
2.25875e-21 0.0180053 0.00502464 -0.0040981
-1.807e-21 -0.0180053 0.00502466 0.0322234
0 0.0183918 0.00345434 -0.00409802
2.71051e-20 -0.0183918 0.00345433 0.0321997
6.77626e-21 0.0179451 0.00550277 -0.00409806
6.77626e-21 -0.0179453 0.00550285 0.0322206
-2.71051e-20 0.0183611 0.00415361 -0.00409803
0 -0.0183611 0.00415361 0.0322
0 0.0188421 7.04156e-05 -0.0040979
-1.35525e-20 -0.0188422 7.03634e-05 0.0321467
0 0.0188477 1.10464e-18 -0.0040979
0 -0.0188477 1.06275e-18 0.0321467
1.12938e-21 -0.0188602 0.00112833 0.0321605
4.51751e-21 0.0188602 0.00112834 -0.0040979
-6.77626e-21 -0.0180592 0.00557717 0.0322094
1.35525e-20 0.0180593 0.00557723 -0.004098
0 0.0181347 0.00538311 -0.00409802
-4.51751e-21 -0.0181348 0.00538307 0.0322144
-1.35525e-20 -0.018942 6.21258e-19 0.0321466
-1.35525e-20 0.018942 6.17799e-19 -0.00409786
-1.12938e-21 -0.0188166 0.00228404 0.0321893
-4.51751e-21 0.0188167 0.00228404 -0.00409792
0 0.0183535 0.00480356 -0.00409798
0 -0.0183536 0.00480356 0.0322018
-5.64689e-22 -0.0187311 0.00307208 0.0321819
-1.41172e-22 0.0187311 0.00307209 -0.00409793
0 -0.0190249 8.52317e-05 0.0321467
1.35525e-20 0.019025 8.52886e-05 -0.00409784
0 -0.0190315 5.66653e-19 0.0321466
1.35525e-20 0.0190316 5.63374e-19 -0.00409784
-1.35525e-20 -0.0182205 0.00568238 0.0322146
-1.35525e-20 0.0182205 0.00568238 -0.00409798
-4.5881e-22 0.0187398 0.00374577 -0.00409791
-1.76465e-22 -0.0187398 0.00374577 0.0321754
-1.12938e-21 0.0186713 0.00447942 -0.00409793
-1.12938e-21 -0.0186713 0.00447942 0.0321934
-1.35525e-20 0.0183608 0.00577389 -0.00409776
6.77626e-21 -0.0183608 0.00577392 0.0321701
1.35525e-20 0.018471 0.00561106 -0.00409774
1.6263e-20 -0.018471 0.00561103 0.0321648
3.61401e-21 -0.0186129 0.00519728 0.0321944
2.71051e-21 0.0186129 0.00519728 -0.00409789
0 -0.0191646 0.00284903 0.0322317
-2.71051e-20 0.0191646 0.00284904 -0.00409795
-6.77626e-21 -0.0184854 0.00585516 0.0321645
1.35525e-20 0.0184855 0.00585524 -0.00409772
2.71051e-20 0.0191555 0.0033016 -0.00409782
-2.71051e-20 -0.0191555 0.00330159 0.0321274
-2.71051e-20 -0.0190101 0.00412452 0.0321716
-2.71051e-20 0.0190101 0.00412452 -0.00409781
0 -0.0185922 0.00576694 0.0321642
0 0.0185922 0.00576709 -0.00409772
0 -0.0186006 0.00593031 0.0321831
1.35525e-20 0.0186007 0.00593035 -0.00409784
0 -0.0195235 0.000571337 0.0321408
0 0.0195235 0.000571339 -0.00409771
-5.42101e-20 -0.0194631 0.0017685 0.0321486
0 0.0194631 0.0017685 -0.00409771
1.69407e-21 -0.0194127 0.0024132 0.03219
0 0.0194127 0.00241321 -0.00409775
0 -0.0189749 0.00481043 0.0321986
-2.71051e-20 0.0189749 0.00481044 -0.00409787
0 -0.0193686 0.00306998 0.0321718
0 0.0193686 0.00306998 -0.00409775
-4.51751e-21 -0.0188275 0.00563325 0.0321795
1.50584e-21 0.0188275 0.00563327 -0.00409778
2.03288e-20 0.0187165 0.00600599 -0.00409785
-6.77626e-21 -0.0187166 0.00600601 0.032187
1.35525e-20 0.018758 0.00590207 -0.00409781
0 -0.0187581 0.00590201 0.0321804
-1.27055e-21 0.0193727 0.00376105 -0.00409768
8.47033e-22 -0.0193727 0.00376105 0.0321434
-2.71051e-20 -0.0190128 0.00540896 0.0322052
-2.71051e-20 0.0190128 0.00540898 -0.00409785
0 -0.0195979 0.00284199 0.0321866
0 0.0195979 0.00284199 -0.00409767
-2.25875e-21 -0.0193152 0.00445137 0.0321682
-2.25875e-21 0.0193152 0.00445138 -0.00409774
0 -0.0189326 0.00587663 0.0321879
0 0.0189326 0.00587667 -0.00409781
6.77626e-21 -0.0188663 0.00610385 0.0321991
-2.71051e-20 0.0188665 0.006104 -0.00409784
5.42101e-20 -0.0195614 0.00328798 0.0321462
2.71051e-20 0.0195614 0.00328799 -0.00409764
0 -0.0189889 0.00604035 0.0321981
-2.71051e-20 0.0189891 0.00604056 -0.00409779
0 -0.0192967 0.00511377 0.0321844
2.25875e-21 0.0192967 0.00511379 -0.00409775
0 -0.0190006 0.00619146 0.0321991
1.35525e-20 0.0190007 0.00619154 -0.00409777
0 0.0200621 6.76767e-05 -0.00409756
-1.35525e-20 -0.0200621 6.76484e-05 0.0321281
-1.35525e-20 0.020064 4.17066e-20 -0.00409756
-1.35525e-20 -0.020064 4.17839e-20 0.032128
0 0.0196641 0.0040803 -0.00409762
0 -0.0196641 0.0040803 0.0321396
0 -0.0190835 0.00626078 0.0321445
-1.35525e-20 0.0190836 0.0062608 -0.00409755
0 -0.0191312 0.00616555 0.0321546
1.35525e-20 0.0191312 0.00616565 -0.00409757
-6.77626e-21 0.0201001 0.00115692 -0.00409755
1.12938e-21 -0.0201001 0.00115692 0.0321287
0 0.020134 -1.86019e-22 -0.00409754
0 -0.020134 -2.64365e-22 0.032126
1.8823e-21 -0.0192828 0.00579514 0.0321972
1.8823e-21 0.0192828 0.00579515 -0.00409772
0 -0.0196202 0.00477317 0.0321634
0 0.0196202 0.00477318 -0.00409764
0 -0.0201991 6.47227e-05 0.0321245
0 0.0201991 6.47462e-05 -0.00409752
0 -0.020202 -1.30738e-21 0.0321244
0 0.020202 -1.26102e-21 -0.00409752
-1.12938e-21 0.0200841 0.00236289 -0.00409754
2.25875e-21 -0.0200841 0.00236289 0.0321444
2.82344e-22 0.0200029 0.003057 -0.00409753
1.41172e-22 -0.0200038 0.00305581 0.0321484
-1.35525e-20 0.0192378 0.00638357 -0.00409772
-1.35525e-20 -0.0192378 0.00638366 0.03222
0 -0.0195958 0.00544032 0.0321693
5.42101e-20 0.0195959 0.00544034 -0.00409764
0 -0.0193039 0.00643681 0.0322544
0 0.0193041 0.00643685 -0.00409779
0 0.0200275 0.00361572 -0.00409752
-5.64689e-22 -0.0200275 0.00361572 0.0321336
6.77626e-21 -0.0193634 0.00636556 0.0322691
0 0.0193636 0.00636543 -0.00409781
0 -0.0193735 0.00649738 0.0322248
0 0.0193738 0.00649756 -0.0040977
-1.01644e-21 -0.01996 0.00438812 0.0321446
1.01644e-21 0.01996 0.00438813 -0.00409755
0 -0.0194904 0.00622237 0.0323055
0 0.0194905 0.00622241 -0.00409787
2.25875e-21 -0.019924 0.00509886 0.0321629
0 0.019924 0.00509886 -0.00409756
0 -0.0195415 0.00664813 0.0322253
-1.35525e-20 0.0195417 0.00664818 -0.0040977
0 0.0202851 0.004065 -0.00409746
-2.71051e-20 -0.0202851 0.004065 0.0321292
-2.25875e-21 -0.0198605 0.00581199 0.0321845
2.25875e-21 0.0198605 0.00581203 -0.00409758
2.71051e-20 -0.0196164 0.00659812 0.0322238
-1.35525e-20 0.0196165 0.00659819 -0.00409768
0 0.0207232 0.000580771 -0.00409737
5.42101e-20 -0.0207232 0.000580775 0.0321119
0 -0.0196177 0.00671647 0.0322096
0 0.0196179 0.00671645 -0.00409762
-5.42101e-20 0.020698 0.00176856 -0.00409739
0 -0.020698 0.00176856 0.0321137
2.71051e-20 0.020263 0.00474092 -0.00409746
2.71051e-20 -0.020263 0.00474092 0.0321501
0 -0.0196919 0.00678279 0.0321693
0 0.019692 0.0067827 -0.00409754
0 -0.0197373 0.00670394 0.0321768
-2.71051e-20 0.0197374 0.00670392 -0.00409754
-5.42101e-20 0.0206519 0.00305779 -0.00409739
-5.42101e-20 -0.0206519 0.0030578 0.032118
-2.42009e-22 -0.0199196 0.00639126 0.0322071
0 0.0199197 0.00639124 -0.00409759
0 -0.0202264 0.00542436 0.0321676
-2.71051e-20 0.0202264 0.00542437 -0.00409749
0 0.0206219 0.00374923 -0.00409739
0 -0.0206228 0.00375111 0.0320945
-1.35525e-20 0.0198641 0.00693674 -0.00409762
1.35525e-20 -0.0198641 0.00693696 0.032218
0 0.0205958 0.00438945 -0.0040974
0 -0.0205958 0.00438945 0.0321184
2.71051e-20 -0.0202261 0.00606702 0.0321408
2.71051e-20 0.0202262 0.00606702 -0.00409745
-6.77626e-21 -0.019943 0.00700755 0.0322398
-6.77626e-21 0.0199432 0.00700748 -0.00409766
-6.77626e-21 -0.0200066 0.00693929 0.032251
6.77626e-21 0.0200069 0.00693907 -0.00409767
0 -0.0205707 0.00506212 0.0321476
0 0.0205707 0.00506212 -0.00409741
6.77626e-21 -0.0200222 0.00707844 0.0322101
6.77626e-21 0.0200226 0.00707852 -0.00409757
0 -0.0201294 0.00680929 0.0322746
-1.50584e-21 0.0201295 0.00680925 -0.00409769
0 0.0212882 4.76335e-05 -0.00409723
0 -0.0212882 4.76249e-05 0.0320949
0 0.0212888 7.24532e-22 -0.00409723
-6.77626e-21 -0.0212888 7.03329e-22 0.0320949
0 -0.0209335 0.00403737 0.0320463
0 0.0209335 0.00403737 -0.00409733
0 -0.0205488 0.00572803 0.0321409
0 0.0205489 0.00572802 -0.0040974
-6.77626e-21 -0.0213388 -2.81944e-23 0.0320932
0 0.0213388 -2.94246e-23 -0.00409721
1.12938e-21 0.0213183 0.00116254 -0.00409722
-3.38813e-21 -0.0213183 0.00116254 0.0320951
0 -0.0213864 4.64669e-05 0.0320919
-6.77626e-21 0.0213864 4.6476e-05 -0.0040972
-6.77626e-21 -0.0213874 -2.6147e-23 0.0320918
-6.77626e-21 0.0213874 -2.73181e-23 -0.0040972
-2.71051e-20 0.0208978 0.00471075 -0.00409734
-2.71051e-20 -0.0208978 0.00471075 0.0321454
-5.64689e-22 0.0212954 0.00239197 -0.00409722
0 -0.0212954 0.00239197 0.032098
2.71051e-20 -0.0201947 0.00723274 0.0322024
1.35525e-20 0.020195 0.00723268 -0.00409752
-2.25875e-21 -0.0204968 0.00642258 0.0321543
-9.03502e-21 0.0204969 0.00642257 -0.0040974
1.35525e-20 -0.0202705 0.00718367 0.0321995
-1.35525e-20 0.0202707 0.00718366 -0.0040975
2.71051e-20 -0.0202683 0.00729857 0.032179
-2.71051e-20 0.0202686 0.00729845 -0.00409744
-2.71051e-20 -0.0208996 0.00536218 0.0321278
-2.71051e-20 0.0208996 0.00536217 -0.00409732
0 -0.0203418 0.00736426 0.0321326
2.71051e-20 0.020342 0.00736407 -0.00409735
-5.64689e-23 0.0213396 0.00363556 -0.00409723
-5.64689e-23 -0.0213396 0.00363555 0.0320795
1.35525e-20 -0.0203851 0.00728766 0.032141
1.35525e-20 0.0203852 0.00728755 -0.00409735
-9.41148e-22 -0.0212333 0.00436374 0.0320929
3.76459e-22 0.0212333 0.00436374 -0.00409727
-2.71051e-20 -0.0208556 0.00604666 0.0321225
2.71051e-20 0.0208557 0.00604664 -0.00409733
-4.03349e-22 -0.0205628 0.00698693 0.0321774
-3.22679e-22 0.0205629 0.00698685 -0.0040974
-6.77626e-21 0.0205132 0.00751715 -0.00409744
-6.77626e-21 -0.0205131 0.00751749 0.0321841
1.69407e-21 -0.0212965 0.00494792 0.032121
-1.12938e-21 0.0212965 0.00494792 -0.00409723
0 -0.0208609 0.00667564 0.032121
2.71051e-20 0.020861 0.00667559 -0.00409728
0 -0.0205926 0.00758859 0.0322063
-5.42101e-20 0.0219386 0.000582608 -0.00409706
-5.42101e-20 -0.0219387 0.000582603 0.0320751
0 0.0205929 0.00758842 -0.00409748
3.38813e-21 -0.0211971 0.00569346 0.0321189
3.38813e-21 0.0211971 0.00569344 -0.00409722