# pMean  POINT_DATA 29169
# x  y  z  pMean
0.0199996 0 6.27196e-08 -0.00411247
-0.0199996 0 6.27196e-08 0.0335782
0.0199996 0 0.000164442 -0.00411248
-0.0199996 0 0.00016442 0.0335788
0.0199996 6.77626e-21 0.000494346 -0.00411248
-0.0199996 -3.38813e-21 0.000494294 0.0335779
0.0199996 -6.77626e-21 0.000661321 -0.00411246
-0.0199996 6.77626e-21 0.000661243 0.0335766
-0.0199996 6.77626e-21 0.000837166 0.0335789
0.0199996 -3.38813e-21 0.000837249 -0.00411248
-0.0199996 6.77626e-21 0.0011807 0.0335772
0.0199996 3.38813e-21 0.00118076 -0.00411247
-0.0199996 0 0.00135636 0.0335734
0.0199996 -6.77626e-21 0.00135644 -0.00411245
-0.0199996 -3.38813e-21 0.00154016 0.0335749
0.0199996 -3.38813e-21 0.00154025 -0.00411247
0.0200767 0 6.659e-05 -0.00411251
-0.0200767 0 6.65901e-05 0.033582
-0.0200781 0 6.52655e-08 0.033582
0.0200781 0 6.52657e-08 -0.00411251
0.0200799 -6.77626e-21 0.000590246 -0.00411251
-0.0200799 0 0.000590204 0.0335807
-0.0200759 0 0.000728756 0.0335811
0.0200759 6.77626e-21 0.000728801 -0.00411251
-0.0199996 -3.38813e-21 0.00190617 0.0335741
0.0199996 -3.38813e-21 0.00190619 -0.00411247
0.0199996 -6.77626e-21 0.002087 -0.00411245
-0.0199996 6.77626e-21 0.002087 0.0335725
-0.0200757 -6.77626e-21 0.00127189 0.0335784
0.0200757 -6.77626e-21 0.00127193 -0.0041125
-0.0200724 6.77626e-21 0.00141167 0.0335773
0.0200724 1.35525e-20 0.00141172 -0.0041125
-0.0201349 4.06576e-20 6.62424e-08 0.0335845
0.0201349 0 6.62432e-08 -0.00411253
-0.0201347 -1.35525e-20 0.00065509 0.0335831
0.0201347 0 0.000655092 -0.00411253
-0.0200697 6.77626e-21 0.00197791 0.033576
0.0200697 6.77626e-21 0.00197791 -0.00411249
-0.0201289 -2.03288e-20 0.00132685 0.0335791
0.0201289 2.71051e-20 0.00132685 -0.00411252
-0.0200872 0 0.00211021 0.0335732
0.0200872 6.77626e-21 0.00211021 -0.00411247
-0.0201043 0 0.00206082 0.033575
0.0201043 0 0.00206081 -0.00411249
0.0201292 0 0.00199355 -0.00411251
-0.0201291 -6.77626e-21 0.00199358 0.0335774
-0.0201574 0 0.00212882 0.0335798
0.0201575 -6.77626e-21 0.00212883 -0.00411253
-0.020211 6.77626e-21 0.00203552 0.0335849
0.020211 -6.77626e-21 0.0020355 -0.00411256
0.0203752 1.69407e-20 7.14249e-08 -0.00411262
-0.0203752 -1.35525e-20 7.14223e-08 0.0335947
0.0203552 6.77626e-22 0.000964574 -0.00411262
-0.0203552 0 0.000964653 0.0335875
-0.0203848 -1.807e-21 0.00031854 0.0335957
0.0203848 4.51751e-22 0.000318497 -0.00411263
0.0203485 1.8823e-22 0.00158862 -0.0041126
-0.0203485 -9.41148e-22 0.00158869 0.0335852
-0.0204541 -5.0822e-21 7.18949e-08 0.0335981
0.0204542 1.69407e-21 7.18988e-08 -0.00411266
0.0203479 3.38813e-21 0.0020921 -0.00411264
-0.0203479 -6.77626e-21 0.00209212 0.0335954
-0.0203454 0 0.00217864 0.0335945
0.0203454 -1.35525e-20 0.00217865 -0.00411263
0.0204014 0 0.00198909 -0.00411267
-0.0204014 -1.35525e-20 0.00198912 0.0335981
0.0204481 -5.42101e-20 0.00220585 -0.00411268
-0.0204481 -2.71051e-20 0.00220584 0.0335976
-0.0206171 6.77626e-21 7.35947e-08 0.0336053
0.0206171 -6.77626e-21 7.35999e-08 -0.00411273
0.0206345 2.25875e-21 0.00124186 -0.00411279
-0.0206345 -2.25875e-21 0.00124198 0.0336049
0.0206729 0 7.48669e-08 -0.00411276
-0.0206729 6.77626e-21 7.48621e-08 0.0336078
0.0206741 6.77626e-21 7.00031e-05 -0.00411276
-0.0206742 6.77626e-21 7.0039e-05 0.0336079
0.0206667 4.51751e-21 0.000657407 -0.00411281
-0.0206667 -7.90564e-21 0.000657517 0.0336101
0.0206275 1.35525e-21 0.0016945 -0.00411279
-0.0206275 -4.06576e-21 0.00169457 0.0336056
0.0205976 0 0.00224546 -0.00411281
-0.0205976 -1.35525e-20 0.00224545 0.0336143
0.020822 6.77626e-21 8.13398e-08 -0.00411285
-0.0208222 0 8.13398e-08 0.0336154
-0.0208462 1.35525e-20 0.000330944 0.0336169
0.0208462 0 0.000330924 -0.00411287
0.0208502 2.71051e-20 0.000953835 -0.00411288
-0.0208502 -1.35525e-20 0.000953873 0.0336172
0.0208443 -1.35525e-20 0.00153528 -0.00411288
-0.0208443 2.71051e-20 0.00153531 0.0336173
0.0208065 -1.41172e-21 0.00198301 -0.00411293
-0.0208065 2.82344e-22 0.00198302 0.0336279
0.0209014 -6.77626e-21 0.00232595 -0.0041129
-0.0209014 6.77626e-21 0.00232594 0.0336183
0.0210643 -1.35525e-20 9.1532e-05 -0.004113
-0.0210643 0 9.15048e-05 0.0336279
0.021067 1.35525e-20 7.81651e-08 -0.00411301
-0.021067 0 7.81689e-08 0.0336281
-0.0209629 4.06576e-20 0.00234223 0.0336163
0.0209629 -6.77626e-21 0.00234225 -0.00411291
-0.0210006 -6.77626e-21 0.00235224 0.0336171
0.0210006 0 0.00235226 -0.00411292
-0.0211368 1.35525e-20 7.77042e-08 0.0336308
0.0211368 0 7.76997e-08 -0.00411305
-0.021129 -9.03502e-21 0.00122302 0.0336288
0.021129 -4.51751e-21 0.00122304 -0.00411303
-0.0211316 -1.16165e-20 0.00168768 0.0336261
0.0211316 -5.80823e-21 0.00168768 -0.00411301
-0.0210928 -3.38813e-21 0.00225831 0.0336203
0.0210928 3.38813e-21 0.0022583 -0.00411296
-0.0212074 -2.25875e-21 0.000639305 0.0336323
0.0212074 4.51751e-21 0.000639333 -0.00411306
-0.0212432 1.35525e-20 6.9493e-08 0.0336348
0.0212432 0 6.94858e-08 -0.0041131
-0.0212484 0 0.000106497 0.0336348
0.0212484 -6.77626e-21 0.000106548 -0.0041131
-0.0211906 0 0.00240258 0.0336286
0.0211906 0 0.00240261 -0.00411303
0.0213439 5.64689e-21 0.0020251 -0.00411307
-0.0213439 -4.51751e-21 0.00202507 0.0336301
-0.021371 0 0.00245037 0.0336369
0.021371 -6.77626e-21 0.00245038 -0.00411311
-0.0213837 0 0.00242601 0.0336381
0.0213837 0 0.00242602 -0.00411312
-0.0214676 -6.77626e-21 0.00151459 0.0336405
0.0214676 -9.03502e-21 0.00151465 -0.00411317
-0.0215176 1.35525e-20 0.000962569 0.0336435
0.0215177 6.77626e-21 0.000962662 -0.00411319
-0.0215442 1.0842e-20 0.000394958 0.0336465
0.0215442 -5.42101e-21 0.000395018 -0.00411323
0.0214146 0 0.00239563 -0.00411314
-0.0214146 0 0.00239562 0.0336408
0.0214166 -6.77626e-21 0.00246246 -0.00411314
-0.0214166 -2.71051e-20 0.00246245 0.0336412
0.0216582 1.35525e-20 0.000128741 -0.00411326
-0.0216582 0 0.000128718 0.0336517
0.0216619 -1.35525e-20 1.14562e-08 -0.00411326
-0.021662 0 1.14549e-08 0.033652
-0.0217415 -2.71051e-20 0.000612322 0.0336562
0.0217415 0 0.000612439 -0.00411329
-0.021737 0 0.00121881 0.0336533
0.021737 0 0.00121894 -0.0041133
0.021641 0 0.0025219 -0.00411334
-0.021641 0 0.00252189 0.0336663
0.02179 1.35525e-20 2.38075e-09 -0.0041133
-0.02179 1.35525e-20 2.38045e-09 0.0336581
-0.02171 -2.71051e-20 0.0018706 0.033652
0.02171 -2.71051e-20 0.00187066 -0.00411328
0.0216778 1.8823e-21 0.00229009 -0.00411334
-0.0216778 -3.76459e-22 0.00229005 0.0336664
-0.0219185 0 2.30219e-09 0.0336643
0.0219185 -1.35525e-20 2.30245e-09 -0.00411336
-0.0219202 1.35525e-20 0.000137029 0.0336644
0.0219202 0 0.000137066 -0.00411336
-0.0218192 0 0.00256913 0.0336605
0.0218192 0 0.00256913 -0.00411335
-0.0219845 5.42101e-21 0.00039594 0.0336676
0.0219845 5.42101e-21 0.000396027 -0.0041134
0.0219638 0 0.00229016 -0.00411341
-0.0219638 1.12938e-21 0.00229013 0.0336669
-0.022074 0 0.000916488 0.0336702
0.022074 -2.25875e-21 0.000916652 -0.00411345
0.0219561 -1.35525e-20 0.0025286 -0.0041134
-0.0219561 0 0.00252859 0.0336648
-0.0220578 0 0.00154542 0.0336658
0.0220578 -2.25875e-21 0.00154554 -0.00411344
0.0219647 6.77626e-21 0.00260764 -0.0041134
-0.0219647 -1.35525e-20 0.00260764 0.0336644
-0.0220662 4.51751e-21 0.00204922 0.0336723
0.0220662 -4.51751e-21 0.00204927 -0.00411346
0.0222375 -1.35525e-20 0.000149298 -0.00411353
-0.0222375 0 0.000149261 0.0336791
0.0222467 0 3.22502e-09 -0.00411353
-0.0222467 1.35525e-20 3.22489e-09 0.0336795
0.0221408 1.89735e-20 0.00250166 -0.00411345
-0.0221408 -5.42101e-21 0.00250165 0.0336672
-0.0221237 -1.35525e-20 0.00264976 0.033669
0.0221238 0 0.00264976 -0.00411345
-0.0223263 -1.93608e-20 0.000544368 0.0336817
0.0223263 7.7443e-21 0.000544521 -0.00411355
-0.0223861 1.35525e-20 3.11769e-09 0.0336855
0.0223861 1.35525e-20 3.11777e-09 -0.0041136
-0.0223888 0 0.00123026 0.0336869
0.0223888 2.71051e-20 0.00123046 -0.0041136
-0.0223621 0 0.00189307 0.0336843
0.0223621 0 0.00189318 -0.00411358
0.022297 0 0.00269561 -0.00411353
-0.022297 1.35525e-20 0.00269561 0.033678
0.0223597 2.11758e-22 0.00232885 -0.00411356
-0.0223597 7.05861e-23 0.00232881 0.0336823
-0.0225373 -1.35525e-20 3.03035e-09 0.033692
0.0225373 0 3.03039e-09 -0.00411367
-0.0225385 0 0.000146287 0.033692
0.0225385 1.35525e-20 0.000146333 -0.00411367
-0.0227012 -2.25875e-21 0.000916023 0.0337019
0.0227012 6.77626e-21 0.000916234 -0.00411375
-0.0226844 -4.51751e-21 0.00155903 0.0337087
0.0226844 2.25875e-21 0.00155921 -0.00411375
-0.0227492 -9.03502e-21 0.000352645 0.0337004
0.0227492 4.51751e-21 0.000352762 -0.00411377
0.0226132 -1.2282e-20 0.00277935 -0.00411372
-0.0226133 1.82112e-20 0.00277937 0.0337049
-0.0226206 1.52466e-20 0.00278132 0.0337054
0.0226206 -9.74088e-21 0.00278132 -0.00411372
-0.0227194 6.77626e-21 0.00213973 0.0337031
0.0227194 -9.03502e-21 0.00213981 -0.00411375
-0.0226786 0 0.00257495 0.0337045
0.0226786 0 0.00257497 -0.00411373
-0.0228459 1.35525e-20 3.06872e-09 0.0337049
0.0228459 0 3.06855e-09 -0.00411382
-0.0230054 -2.71051e-20 2.97301e-09 0.0337115
0.0230055 2.71051e-20 2.97281e-09 -0.0041139
-0.0230123 2.71051e-20 0.000601967 0.0337119
0.0230123 0 0.000602177 -0.0041139
-0.023008 0 0.00123165 0.0337122
0.023008 0 0.0012319 -0.00411389
-0.0229679 2.71051e-20 0.00191396 0.0337112
0.0229679 5.42101e-20 0.0019141 -0.00411387
0.0229069 -2.71051e-20 0.00285715 -0.00411385
-0.0229069 0 0.00285715 0.0337121
-0.0230246 -2.71051e-20 0.0024179 0.0337167
0.0230246 2.71051e-20 0.00241795 -0.00411391
-0.0231706 2.71051e-20 2.61999e-09 0.0337184
0.0231707 -1.35525e-20 2.6198e-09 -0.00411398
-0.0232775 -6.77626e-21 0.000961767 0.0337217
0.0232775 4.51751e-21 0.000962019 -0.00411401
-0.0231303 1.35525e-20 0.00291661 0.0337266
0.0231303 4.06576e-20 0.00291662 -0.00411398
-0.0233249 6.77626e-21 0.000300575 0.033725
0.023325 2.25875e-21 0.000300687 -0.00411405
-0.0233201 0 0.00155413 0.0337204
0.0233201 1.12938e-20 0.00155433 -0.00411403
-0.0233275 4.51751e-21 0.00215862 0.0337221
0.0233275 1.58113e-20 0.00215872 -0.00411403
-0.0232742 1.12938e-21 0.00268392 0.0337344
0.0232742 1.807e-21 0.00268395 -0.00411405
-0.023471 0 1.49916e-09 0.0337314
0.023471 0 1.49905e-09 -0.00411412
0.0233563 -6.77626e-21 0.0029773 -0.00411406
-0.0233564 -6.77626e-21 0.00297732 0.0337311
-0.0236362 -2.71051e-20 1.14287e-09 0.0337386
0.0236362 -2.71051e-20 1.14277e-09 -0.0041142
-0.0236942 -6.77626e-21 0.000643529 0.0337397
0.0236943 0 0.000643725 -0.00411421
-0.0235255 -5.42101e-20 0.00302244 0.0337321
0.0235255 1.35525e-20 0.00302244 -0.0041141
-0.0236289 2.71051e-20 0.00246429 0.0337418
0.0236289 0 0.00246434 -0.00411418
-0.0237458 -4.51751e-21 0.00121852 0.0337438
0.0237458 -4.51751e-21 0.00121876 -0.00411424
0.023712 3.67854e-20 0.00179082 -0.00411423
-0.023712 1.54886e-20 0.00179064 0.0337463
-0.0238007 1.35525e-20 1.02427e-09 0.0337459
0.0238007 1.35525e-20 1.02417e-09 -0.00411428
-0.0236242 0 0.00304884 0.0337383
0.0236242 0 0.00304886 -0.00411414
-0.0238637 8.13152e-21 0.000205193 0.0337484
0.0238637 1.0842e-20 0.000205258 -0.00411431
0.0238647 0 0.00216536 -0.00411429
-0.0238648 9.03502e-21 0.00216526 0.033756
-0.0239679 -2.71051e-20 0.000897771 0.0337517
0.023968 0 0.00089799 -0.00411434
-0.0239683 0 0.00153338 0.0337576
0.0239683 0 0.00153358 -0.00411433
-0.0238625 -5.29396e-23 0.00276289 0.0337545
0.0238638 5.29396e-23 0.00276308 -0.00411427
-0.0238739 -4.23516e-21 0.00276895 0.0337549
0.0238718 5.82335e-21 0.00276533 -0.00411427
0.024114 0 6.40638e-10 -0.00411442
-0.024114 0 6.40703e-10 0.0337606
-0.0241188 2.71051e-20 0.000144133 0.0337608
0.0241188 0 0.000144175 -0.00411442
0.023916 0 0.00312792 -0.00411431
-0.0239161 0 0.00312794 0.033761
-0.0239647 0 0.00314097 0.033763
0.0239647 0 0.00314096 -0.00411434
-0.0242749 0 5.21808e-10 0.033769
0.0242749 0 5.21745e-10 -0.0041145
-0.0242836 -4.51751e-21 0.000580904 0.0337693
0.0242836 2.25875e-21 0.000581052 -0.00411449
-0.0242888 0 0.00120234 0.0337711
0.0242889 1.12938e-20 0.00120253 -0.00411449
-0.0242868 -9.03502e-21 0.00186197 0.0337721
0.0242869 0 0.00186211 -0.00411449
-0.0241659 0 0.003195 0.0337915
0.0241661 1.69407e-21 0.00319503 -0.00411455
0.0241862 4.23516e-22 0.00320043 -0.00411457
-0.0241863 -4.23516e-22 0.00320044 0.0337939
0.0241881 5.50571e-21 0.00319265 -0.00411457
-0.0241882 0 0.0031926 0.0337942
-0.0244313 2.71051e-20 0.000134539 0.0337781
0.0244313 0 0.00013457 -0.00411455
-0.0244331 0 4.67599e-10 0.0337782
0.0244331 0 4.67535e-10 -0.00411455
-0.0243349 2.25875e-21 0.00249839 0.0337732
0.0243349 -4.51751e-21 0.00249847 -0.00411451
0.0242974 4.51751e-21 0.0029262 -0.00411455
-0.0242974 0 0.00292619 0.0337846
-0.0243695 6.77626e-21 0.00315162 0.0337816
0.0243695 0 0.00315166 -0.00411456
-0.0246008 -2.71051e-20 0.000284661 0.0337867
0.0246009 0 0.000284725 -0.00411462
-0.0243971 -6.77626e-21 0.00325796 0.0337737
0.0243971 -6.77626e-21 0.00325796 -0.00411453
-0.0246107 -2.71051e-20 0.000878458 0.0337865
0.0246107 2.71051e-20 0.000878612 -0.00411465
-0.0246166 -2.71051e-20 0.00151509 0.0337893
0.0246166 0 0.00151523 -0.00411464
0.0244715 -6.77626e-21 0.00314417 -0.00411457
-0.0244715 0 0.00314413 0.0337767
0.024504 -6.77626e-21 0.00290416 -0.00411456
-0.024504 -3.38813e-21 0.00290416 0.033774
0.024478 -6.77626e-21 0.00323287 -0.00411456
-0.024478 6.77626e-21 0.00323286 0.0337754
0.0244844 6.77626e-21 0.00328126 -0.00411457
-0.0244844 0 0.00328126 0.0337756
-0.0246093 0 0.00219408 0.0337791
0.0246093 -5.42101e-20 0.00219416 -0.00411463
-0.0247622 -1.35525e-20 2.5336e-10 0.0337945
0.0247622 0 2.5332e-10 -0.00411469
-0.0247664 1.35525e-20 0.000132487 0.0337947
0.0247664 2.71051e-20 0.000132517 -0.00411469
0.0246224 -2.03288e-20 0.00297464 -0.00411457
-0.0246224 -6.77626e-21 0.00297462 0.033768
-0.0249174 0 1.99007e-10 0.0338009
0.0249175 1.35525e-20 1.98966e-10 -0.00411476
0.0247048 1.35525e-20 0.00334016 -0.00411466
-0.0247048 0 0.00334016 0.0337833
-0.0249272 2.25875e-21 0.00056588 0.0338043
0.0249272 1.12938e-20 0.000565967 -0.00411478
-0.0249353 9.03502e-21 0.00118332 0.0338045
0.0249353 2.25875e-21 0.00118344 -0.0041148
0.0247708 -1.35525e-20 0.00325092 -0.00411469
-0.0247708 -1.35525e-20 0.00325093 0.0337856
-0.0249332 -4.51751e-21 0.0018542 0.0337961
0.0249332 0 0.00185429 -0.00411479
-0.0249124 1.12938e-20 0.00254742 0.0337952
0.0249124 1.12938e-20 0.00254746 -0.00411479
-0.02507 0 0.000129685 0.0338097
0.02507 0 0.000129701 -0.00411479
-0.0250722 0 1.71469e-10 0.0338099
0.0250723 0 1.71434e-10 -0.00411479
0.0248681 0 0.00338376 -0.00411474
-0.0248681 -5.42101e-20 0.00338375 0.0337914
-0.024966 -1.807e-21 0.00300203 0.0337978
0.024966 -1.807e-21 0.00300205 -0.0041148
-0.0252401 -2.71051e-20 0.000277338 0.0338177
0.0252401 0 0.000277376 -0.00411486
-0.0252519 0 0.000862008 0.0338266
0.0252519 0 0.000862093 -0.00411497
-0.0252581 2.71051e-20 0.0015011 0.0338161
0.0252581 0 0.00150118 -0.00411495
-0.025094 0 0.00344393 0.0337989
0.025094 2.03288e-20 0.00344395 -0.00411483
-0.0252522 0 0.00218233 0.0338005
0.0252522 -5.42101e-20 0.00218237 -0.00411493
-0.0253959 0 6.82351e-11 0.0338229
0.0253959 0 6.82188e-11 -0.00411493
-0.0254017 -1.35525e-20 0.000130113 0.0338231
0.0254017 -1.35525e-20 0.000130131 -0.00411493
-0.0252838 0 0.00277254 0.0338157
0.0252839 0 0.00277257 -0.00411497
-0.0252273 0 0.00330818 0.033804
0.0252273 0 0.00330821 -0.00411489
-0.0252595 6.77626e-21 0.00348812 0.0338062
0.0252596 6.77626e-21 0.00348815 -0.00411491
-0.0255539 0 4.13675e-11 0.0338244
0.0255539 2.71051e-20 4.13565e-11 -0.00411502
-0.0255655 -2.25875e-21 0.000552596 0.0338317
0.0255655 2.25875e-21 0.000552632 -0.00411506
-0.0255758 2.25875e-21 0.00116683 0.033831
0.0255758 -4.51751e-21 0.00116688 -0.0041151
-0.0255762 -2.25875e-21 0.00183976 0.0338232
0.0255763 0 0.0018398 -0.00411509
-0.0255827 -2.25875e-21 0.00249854 0.0338228
0.0255827 -4.51751e-21 0.00249856 -0.0041151
-0.0257081 1.35525e-20 0.000131339 0.0338314
0.0257081 2.71051e-20 0.000131348 -0.00411506
-0.0257119 -2.71051e-20 3.51853e-11 0.0338315
0.0257119 0 3.51759e-11 -0.00411506
-0.0254803 -1.35525e-20 0.00354694 0.0338163
0.0254804 1.35525e-20 0.00354697 -0.00411502
-0.0255732 -1.12938e-21 0.00306848 0.0338209
0.0255733 0 0.0030685 -0.00411507
-0.0258709 2.71051e-20 0.000270934 0.0338367
0.0258709 2.71051e-20 0.000270944 -0.00411513
-0.0258866 -2.71051e-20 0.000846945 0.033846
0.0258867 0 0.00084698 -0.00411525
-0.0258956 -5.42101e-20 0.00148553 0.0338359
0.0258957 -2.71051e-20 0.00148556 -0.00411524
-0.025711 0 0.0036084 0.0338219
0.025711 -1.35525e-20 0.0036084 -0.00411512
-0.0258953 5.42101e-20 0.00216695 0.0338416
0.0258954 0 0.00216699 -0.00411526
-0.0260182 1.35525e-20 1.4385e-11 0.033842
0.0260182 -1.35525e-20 1.43834e-11 -0.00411522
-0.0257708 1.01644e-20 0.00362432 0.0338247
0.025771 -1.01644e-20 0.00362438 -0.00411515
0.0260277 1.35525e-20 0.000129333 -0.00411523
-0.0260277 1.35525e-20 0.000129319 0.0338424
-0.0258188 4.51751e-21 0.00342146 0.0338283
0.0258189 -4.51751e-21 0.00342152 -0.00411517
-0.0259037 0 0.00281559 0.033833
0.0259038 2.71051e-20 0.0028156 -0.00411523
-0.0261762 2.71051e-20 8.34289e-12 0.0338435
0.0261762 0 8.34292e-12 -0.00411534
-0.0261907 6.77626e-21 0.000536235 0.0338461
0.0261907 4.51751e-21 0.000536244 -0.00411535
-0.0262092 -7.90564e-21 0.00114363 0.0338454
0.0262093 1.12938e-21 0.00114365 -0.00411538
-0.0260128 0 0.00368882 0.0338387
0.026013 -1.35525e-20 0.00368885 -0.00411529
-0.026215 1.12938e-21 0.00181908 0.0338474
0.026215 0 0.0018191 -0.00411539
-0.0263228 -1.35525e-20 0.000121177 0.0338523
0.0263228 1.35525e-20 0.000121199 -0.00411541
-0.0263263 1.35525e-20 7.18223e-12 0.0338524
0.0263263 -2.71051e-20 7.1822e-12 -0.00411541
-0.0262139 1.12938e-21 0.00250529 0.0338441
0.026214 -3.38813e-21 0.0025053 -0.00411538
-0.0261378 -2.71051e-20 0.00372349 0.0338644
0.0261379 -1.35525e-20 0.00372351 -0.00411547
-0.0261644 4.06576e-20 0.00360602 0.0338619
0.0261645 -1.35525e-20 0.00360608 -0.00411546
-0.0262302 -1.50584e-21 0.0032085 0.0338489
0.0262302 1.8823e-21 0.00320851 -0.00411541
-0.0264875 0 0.000258943 0.0338585
0.0264876 0 0.000258951 -0.00411551
-0.0265116 0 0.000819231 0.033843
0.0265116 0 0.000819229 -0.00411549
-0.0265313 0 0.00145474 0.0338563
0.0265313 2.71051e-20 0.00145476 -0.00411552
-0.026307 0 0.00376734 0.0338559
0.026307 -6.77626e-21 0.00376734 -0.00411546
-0.0265288 0 0.00214917 0.0338565
0.0265289 0 0.00214918 -0.00411553
0.0266623 1.35525e-20 2.30473e-12 -0.00411556
-0.0266624 -1.35525e-20 2.30271e-12 0.0338701
0.0266707 -1.35525e-20 0.000106431 -0.00411556
-0.0266707 -1.35525e-20 0.000106394 0.0338707
-0.0265278 0 0.00283317 0.0338453
0.0265278 -2.71051e-20 0.00283318 -0.0041155
-0.0264226 0 0.00379806 0.0338507
0.0264228 6.77626e-21 0.00379808 -0.00411547
-0.0265365 -2.82344e-21 0.00359658 0.033846
0.0265365 1.69407e-21 0.00359658 -0.00411547
-0.0267959 -1.35525e-20 1.18602e-12 0.0338775
0.0267959 0 1.1879e-12 -0.0041156
-0.0268045 -1.12938e-21 0.0005015 0.0338632
0.0268045 -3.38813e-21 0.000501498 -0.00411557
-0.0268426 1.12938e-21 0.00108827 0.033871
0.0268426 -2.25875e-21 0.00108827 -0.00411564
-0.0269065 1.35525e-20 8.39063e-05 0.0338902
0.0269065 0 8.3937e-05 -0.00411558
-0.0269105 2.71051e-20 1.09878e-12 0.03389
0.0269105 0 1.1004e-12 -0.00411558
-0.0268569 0 0.00177521 0.0338931
0.0268569 -5.64689e-22 0.00177521 -0.00411569
-0.0268455 1.12938e-21 0.00249636 0.0338876
0.0268456 -1.12938e-21 0.00249637 -0.00411568
-0.0268309 1.807e-21 0.00322447 0.0338787
0.0268309 9.48677e-21 0.00322448 -0.00411566
0.0267577 8.47033e-22 0.00386138 -0.00411558
-0.0267577 0 0.00386154 0.0338656
-0.0267686 0 0.00388947 0.0338672
0.0267686 0 0.00388946 -0.00411558
-0.0267817 0 0.00389295 0.0338689
0.0267818 0 0.00389296 -0.00411559
-0.0267895 -1.69407e-21 0.00389519 0.0338691
0.0267897 0 0.00389521 -0.00411559
-0.0267977 0 0.00388306 0.0338694
0.0267979 0 0.00388302 -0.00411559
-0.0268077 8.47033e-22 0.00390073 0.0338703
0.0268079 -1.01644e-20 0.00390078 -0.0041156
-0.0270953 0 0.00023099 0.0339035
0.0270953 -2.71051e-20 0.000230989 -0.00411565
-0.0271307 2.71051e-20 0.000745242 0.0338494
0.0271307 2.71051e-20 0.000745245 -0.00411564
-0.0271876 0 0.00136721 0.0339302
0.0271876 0 0.00136721 -0.00411589
-0.02717 2.71051e-20 0.00211415 0.033931
0.02717 0 0.00211415 -0.00411584
-0.0270374 -9.68038e-21 0.00364688 0.0338831
0.0270374 -1.93608e-21 0.00364689 -0.00411569
-0.0271535 0 0.00283769 0.0339192
0.0271535 -2.71051e-20 0.0028377 -0.00411585
0.0273865 -6.02335e-21 0.0004332 -0.00411572
-0.0273866 -1.50584e-21 0.000433203 0.0339054
-0.0272025 -1.35525e-20 0.00404241 0.0339006
0.0272025 0 0.00404243 -0.00411585
0.0275127 0 2.93966e-06 -0.00411582
-0.0275208 4.23516e-22 1.06317e-13 0.0339287
-0.0275278 4.23516e-22 1.05538e-13 0.0339302
0.027528 -4.23516e-22 1.05132e-13 -0.00411585
-0.0275176 -4.14105e-21 0.000876077 0.0339193
0.0275176 -2.44698e-21 0.00087607 -0.00411591
-0.0275406 0 1.8613e-05 0.0339324
0.027541 0 1.89803e-05 -0.00411589
-0.0272667 1.35525e-20 0.00395781 0.0339014
0.0272668 -2.71051e-20 0.00395784 -0.00411588
0.0275129 -7.05861e-23 0.00171283 -0.00411599
-0.0275266 -1.41172e-22 0.00170612 0.0339241
-0.0274757 3.38813e-21 0.00247994 0.033919
0.0274757 -2.25875e-21 0.00247995 -0.00411597
-0.0274313 2.25875e-21 0.00322709 0.033908
0.0274313 0 0.0032271 -0.00411596
-0.0273527 1.35525e-20 0.00409792 0.0339013
0.0273528 1.35525e-20 0.00409794 -0.0041159
-0.0274774 1.12938e-21 0.00369772 0.0339037
0.0274774 1.12938e-21 0.00369774 -0.00411597
-0.0278217 0 0.00130219 0.0339185
0.0278218 -2.71051e-20 0.00130219 -0.00411608
-0.0277987 0 0.00208828 0.0339196
0.0277987 -2.71051e-20 0.00208828 -0.00411611
-0.0278795 -3.76459e-21 0.000330555 0.0339812
0.0278795 0 0.000330552 -0.00411674
-0.0275673 -1.69407e-20 0.00417883 0.0338927
0.0275674 1.69407e-20 0.00417885 -0.00411595
-0.0277779 0 0.0028342 0.0339065
0.027778 0 0.00283422 -0.00411609
-0.0276683 -3.38813e-21 0.00421687 0.0338962
0.0276684 1.01644e-20 0.00421691 -0.004116
-0.0277108 0 0.00403356 0.0339016
0.0277109 0 0.00403359 -0.00411603
-0.0278036 -2.71051e-20 0.00346787 0.0339106
0.0278037 2.71051e-20 0.00346788 -0.00411614
0.0280306 1.35525e-20 3.72316e-14 -0.00411677
-0.0280306 1.35525e-20 3.73072e-14 0.033974
-0.0281597 -3.61401e-21 0.000826379 0.0339508
0.0281598 1.35525e-21 0.000826365 -0.00411641
-0.0281239 3.38813e-22 0.00170643 0.0339111
0.0281239 -4.51751e-22 0.00170641 -0.00411625
-0.0281926 2.71051e-20 2.34313e-14 0.033952
0.0281927 -2.71051e-20 2.34156e-14 -0.00411659
-0.0281037 -5.64689e-22 0.00246047 0.0339094
0.0281037 -5.64689e-22 0.00246047 -0.00411624
-0.0278976 0 0.00430333 0.0339138
0.0278978 1.35525e-20 0.00430337 -0.00411617
-0.0280998 -3.95282e-21 0.00316536 0.0339229
0.0280999 -5.64689e-22 0.00316537 -0.00411625
-0.0280091 2.71051e-20 0.00434531 0.0339405
0.0280092 -2.71051e-20 0.00434535 -0.00411637
-0.0280389 -1.35525e-20 0.00423697 0.0339371
0.028039 0 0.00423702 -0.00411635
-0.0281246 -2.82344e-22 0.0038468 0.033926
0.0281246 9.41148e-23 0.00384682 -0.00411629
-0.0283974 1.35525e-20 1.6465e-14 0.033951
0.0283975 -2.03288e-20 1.64528e-14 -0.00411691
-0.0284432 2.71051e-20 0.0012926 0.0339369
0.0284432 0 0.0012926 -0.00411645
-0.0284192 2.71051e-20 0.0020741 0.0338713
0.0284192 -2.71051e-20 0.00207411 -0.00411636
-0.0284972 -1.41172e-22 0.000323921 0.0339516
0.0284983 7.05861e-23 0.000322966 -0.00411702
-0.0281711 -1.35525e-20 0.00440642 0.0339284
0.0281712 6.77626e-21 0.00440645 -0.00411633
0.0285522 0 6.7283e-15 -0.00411703
-0.0285522 2.71051e-20 6.71898e-15 0.0339493
-0.0284166 0 0.00281021 0.0339386
0.0284166 0 0.00281021 -0.0041164
-0.0284105 -2.71051e-20 0.00349464 0.0339358
0.0284105 5.42101e-20 0.00349465 -0.00411639
-0.0282899 -6.77626e-21 0.00445124 0.0339231
0.02829 -6.77626e-21 0.00445126 -0.00411634
-0.0284185 -1.12938e-21 0.00424829 0.033917
0.0284186 -2.82344e-21 0.00424831 -0.00411634
-0.0287651 2.71051e-20 2.83612e-16 0.0339404
0.0287651 0 2.95993e-16 -0.00411703
0.0287466 -6.21157e-22 0.00168414 -0.00411655
-0.0287466 2.82344e-22 0.00168414 0.0339342
-0.0288079 -9.03502e-22 0.000872612 0.0339522
0.0288079 -6.32451e-21 0.000872602 -0.00411676
-0.0287473 7.52918e-22 0.0024227 0.0339379
0.0287474 0 0.0024227 -0.00411655
-0.0287216 -1.12938e-21 0.00316753 0.0339504
0.0287216 3.38813e-21 0.00316754 -0.00411655
0.0285807 0 0.0045608 -0.00411645
-0.0285808 1.69407e-21 0.00456081 0.0339397
-0.0287115 -2.25875e-21 0.0038813 0.0339511
0.0287115 0 0.00388131 -0.00411653
0.0286395 0 0.00458294 -0.00411646
-0.0286395 0 0.00458293 0.0339408
0.0286465 -3.38813e-21 0.00457502 -0.00411647
-0.0286466 0 0.00457502 0.0339411
-0.0290133 -1.35525e-20 1.86899e-16 0.0339524
0.0290135 0 1.94633e-16 -0.00411798
-0.0286559 -3.38813e-21 0.00458911 0.033942
0.0286559 0 0.00458914 -0.00411648
-0.0286628 3.38813e-21 0.00455184 0.0339422
0.0286628 3.38813e-21 0.00455182 -0.00411648
-0.0290304 -3.38813e-21 8.06872e-05 0.033953
0.0290304 -1.69407e-21 8.001e-05 -0.00411803
-0.0290331 -3.95282e-21 0.000330818 0.0339519
0.0290331 -2.82344e-21 0.000330829 -0.00411788
0.0290394 0 1.6645e-16 -0.004118
-0.0290395 -1.01644e-20 1.59042e-16 0.0339531
-0.0286826 3.38813e-21 0.00457911 0.0339449
0.0286827 0 0.00457912 -0.0041165
-0.0286988 -1.69407e-21 0.00460526 0.0339477
0.0286989 0 0.00460531 -0.00411652
-0.0290348 2.71051e-20 0.00281401 0.0339492
0.0290349 -2.71051e-20 0.00281402 -0.0041167
-0.029155 0 0.00144553 0.0339551
0.029155 2.71051e-20 0.00144554 -0.0041167
-0.0291572 2.71051e-20 0.00194761 0.0340066
0.0291573 2.71051e-20 0.00194759 -0.00411684
-0.0289114 1.74247e-20 0.00431134 0.0339561
0.0289115 -7.7443e-21 0.00431137 -0.00411655
-0.0290289 0 0.00350519 0.0339776
0.0290289 -2.71051e-20 0.0035052 -0.00411671
-0.0293191 1.35525e-20 1.46697e-16 0.0339464
0.0293192 0 1.49488e-16 -0.00411762
0.0293261 -8.04681e-21 0.00083995 -0.00411713
-0.0293263 -5.0822e-21 0.000839937 0.0339572
-0.029346 -1.3129e-20 0.000822089 0.033957
0.0293461 -4.23516e-22 0.000821754 -0.00411716
-0.0293459 0 0.000843819 0.0339574
0.029346 3.09167e-20 0.000843906 -0.00411715
-0.0293596 8.47033e-22 0.000839783 0.0339583
0.02936 4.65868e-21 0.000839793 -0.00411715
-0.029022 1.35525e-20 0.00472698 0.0339825
0.029022 1.35525e-20 0.00472701 -0.0041168
-0.0293681 0 0.00167839 0.0340019
0.0293682 1.35525e-20 0.00167839 -0.00411687
-0.0293492 7.90564e-22 0.00243747 0.0339992
0.0293492 4.51751e-22 0.00243747 -0.00411688
-0.0291129 0 0.00461943 0.0339847
0.029113 -2.71051e-20 0.00461946 -0.00411682
-0.0293461 1.12938e-21 0.00316205 0.0339794
0.0293461 0 0.00316205 -0.00411684
0.0295421 -1.01644e-20 1.67699e-17 -0.00411794
-0.0295423 3.38813e-21 1.51529e-17 0.0339353
-0.0293068 2.25875e-21 0.00388259 0.0339814
0.0293068 0 0.00388261 -0.00411683
-0.0295827 0 0.00139945 0.0339805
0.0295827 0 0.00139947 -0.00411686
-0.029224 -1.35525e-20 0.00480306 0.0339749
0.0292241 -1.35525e-20 0.00480312 -0.00411676
-0.0296229 2.25875e-21 0.000312396 0.0339427
0.0296231 2.25875e-21 0.000312322 -0.00411784
-0.0295757 -5.42101e-20 0.00193306 0.0340651
0.0295757 -2.71051e-20 0.00193306 -0.00411704
-0.0296592 -6.77626e-21 -6.00186e-17 0.0339477
0.0296598 6.77626e-21 -5.89086e-17 -0.00411783
-0.0293408 3.16226e-21 0.00435957 0.0339859
0.0293409 4.06576e-21 0.00435961 -0.00411685
-0.0296739 5.42101e-20 0.00278626 0.0340074
0.0296739 -2.71051e-20 0.00278626 -0.00411701
-0.0294232 6.77626e-21 0.0048781 0.0339815
0.0294234 2.03288e-20 0.00487815 -0.00411682
-0.029651 -2.71051e-20 0.00350308 0.0339849
0.029651 2.71051e-20 0.00350309 -0.00411697
-0.0298815 0 -1.91561e-16 0.033997
0.0298818 1.35525e-20 -1.91567e-16 -0.00411709
-0.0295072 1.35525e-20 0.00479828 0.0339868
0.0295074 -6.77626e-21 0.00479831 -0.00411686
-0.0295244 -1.35525e-20 0.0049162 0.0339933
0.0295246 6.77626e-21 0.00491626 -0.00411689
-0.0295732 0 0.00467621 0.0339928
0.0295734 4.51751e-21 0.00467625 -0.00411691
-0.0296719 0 0.00412281 0.0339954
0.0296719 0 0.00412282 -0.00411701
-0.0299617 7.52918e-22 0.000815835 0.0340055
0.0299618 -3.76459e-21 0.000815876 -0.00411703
-0.0299758 0 0.000107543 0.0340095
0.0299759 -2.71051e-20 0.000107299 -0.00411676
-0.0299859 -1.35525e-20 2.26926e-16 0.0340095
0.029986 -2.71051e-20 2.28937e-16 -0.00411675
-0.0300036 1.12938e-21 0.00165375 0.0340348
0.0300036 3.76459e-22 0.00165376 -0.00411712
0.0300698 2.71051e-20 -5.95075e-16 -0.00411705
-0.0300699 2.71051e-20 -5.95895e-16 0.0340244
-0.0299914 0 0.00233928 0.0340489
0.0299915 0 0.00233928 -0.00411717
-0.0297028 -2.71051e-20 0.00498341 0.0340119
0.029703 0 0.00498346 -0.00411702
-0.0299738 -2.25875e-21 0.00312121 0.0340209
0.0299738 1.807e-21 0.00312121 -0.00411713
0.030181 -1.35525e-20 0.000217163 -0.00411733
-0.0301813 0 0.000217574 0.0340647
-0.0299672 -3.38813e-21 0.00382607 0.0340132
0.0299673 -1.12938e-21 0.00382608 -0.00411713
0.0302278 0 -3.28141e-16 -0.00411736
-0.0302282 0 -3.2848e-16 0.034071
-0.0298589 -2.03288e-20 0.00504218 0.0340533
0.0298591 6.77626e-21 0.00504224 -0.00411729
-0.0299001 0 0.00489103 0.0340446
0.0299002 1.35525e-20 0.00489108 -0.00411726
-0.0299789 2.25875e-21 0.00451145 0.0340194
0.029979 0 0.00451148 -0.00411716
-0.0302909 2.71051e-20 0.00277109 0.0340401
0.0302909 0 0.0027711 -0.00411726
-0.0304299 0 0.000466563 0.0341073
0.0304299 -2.71051e-20 0.000466598 -0.00411752
-0.0304045 0 0.00137206 0.0340066
0.0304046 2.71051e-20 0.00137208 -0.00411717
-0.0304135 2.71051e-20 0.00193181 0.0340745
0.0304135 2.71051e-20 0.00193181 -0.00411733
-0.0302817 2.71051e-20 0.00348658 0.0340459
0.0302818 2.71051e-20 0.00348658 -0.0041173
-0.0300763 -3.38813e-21 0.00512403 0.0340284
0.0300764 0 0.00512407 -0.00411721
-0.0300986 0 0.00513244 0.0340265
0.0300987 0 0.00513249 -0.00411721
-0.0301131 1.69407e-21 0.00510514 0.0340246
0.0301132 0 0.00510518 -0.00411721
-0.0302754 2.71051e-20 0.00415049 0.0340274
0.0302754 0 0.00415051 -0.00411725
-0.0301558 0 0.00515398 0.0340312
0.0301559 -5.0822e-21 0.00515403 -0.00411723
-0.0306238 6.77626e-21 0.000140979 0.0340815
0.0306241 6.77626e-21 0.000140662 -0.00411748
-0.0306244 -6.77626e-21 -1.79493e-16 0.0340845
0.0306248 0 -1.79033e-16 -0.00411748
-0.0306423 0 0.00151867 0.0340435
0.0306423 -2.90411e-21 0.00151863 -0.00411737
-0.0306825 0 0.000897082 0.0340513
0.0306825 -6.77626e-21 0.000897119 -0.0041174