# U  POINT_DATA 14232
# x  y  z  U_x  U_y  U_z
0 -0.0115468 6.39774e-08 0 0 0
0 0.0115468 6.39774e-08 0 0 0
0 -0.0115468 0.000159933 0 0 0
6.77626e-21 0.0115468 0.000159966 0 0 0
1.35525e-20 -0.0115468 0.000505149 0 0 0
0 0.0115468 0.000505252 0 0 0
0 -0.0115468 0.000661354 0 0 0
0 0.0115468 0.00066149 0 0 0
-6.77626e-21 -0.0115468 0.000824682 0 0 0
0 0.0115468 0.000824823 0 0 0
6.77626e-21 -0.0115467 0.00119323 0 0 0
-6.77626e-21 0.0115467 0.00119337 0 0 0
0 0.0116176 9.48413e-05 3.57676e-06 -2.68691e-06 -1.69523e-07
0 -0.0116176 9.48284e-05 0.00130387 -0.000734278 4.35338e-05
0 0.0116191 6.70002e-08 0 0 0
0 -0.0116191 6.70007e-08 0 0 0
0 -0.0115467 0.00135636 0 0 0
0 0.0115467 0.0013565 0 0 0
0 -0.0116144 0.000567788 0.00124484 -0.000701032 4.15627e-05
0 0.0116144 0.000567904 3.41481e-06 -2.56525e-06 -1.61847e-07
-1.35525e-20 -0.0116106 0.000748384 0.00229451 -0.00126013 6.39412e-05
0 0.0116106 0.000748514 4.9149e-05 -2.64371e-05 -6.45823e-07
0 -0.0115467 0.00152899 0 0 0
6.77626e-21 0.0115467 0.00152911 0 0 0
-1.35525e-20 -0.0116105 0.00124699 0.00228912 -0.00125717 6.3791e-05
1.35525e-20 0.0116105 0.00124712 4.90347e-05 -2.63756e-05 -6.44322e-07
0 -0.0116054 0.00142615 0.00199421 -0.00108114 -4.39767e-05
-1.35525e-20 0.0116054 0.00142627 4.75207e-05 -2.5676e-05 5.7389e-07
6.77626e-21 -0.0115467 0.00190899 0 0 0
0 0.0115467 0.00190902 0 0 0
1.35525e-20 0.0117276 6.6334e-08 0 0 0
-1.35525e-20 -0.0117276 6.63364e-08 0 0 0
-6.77626e-21 -0.0117103 0.000650495 0.00416822 -0.00232428 5.37109e-05
2.03288e-20 0.0117103 0.000650588 5.92569e-05 -3.44862e-05 9.03182e-07
-1.35525e-20 0.0115467 0.002087 0 0 0
1.35525e-20 -0.0115467 0.002087 0 0 0
0 -0.011609 0.00193563 0.00211669 -0.00114753 -4.66776e-05
0 0.011609 0.00193565 5.04378e-05 -2.72521e-05 6.0912e-07
-6.77626e-21 -0.0117025 0.00130867 0.00552517 -0.00311952 2.95525e-05
6.77626e-21 0.0117025 0.00130876 0.000117345 -6.66546e-05 -1.33724e-07
0 0.0116004 0.00211165 0 0 0
-1.35525e-20 -0.0116004 0.00211165 0 0 0
0 0.0116425 0.00204727 4.80394e-05 -2.4577e-05 7.49735e-07
-1.35525e-20 -0.0116425 0.00204727 0.0022945 -0.00120056 -3.55088e-05
1.35525e-20 0.0116584 0.00213829 0 0 0
-1.35525e-20 -0.0116585 0.00213829 0 0 0
-1.35525e-20 -0.0117067 0.00192898 0.00480645 -0.00273843 -1.99844e-05
-1.35525e-20 0.0117067 0.00192897 0.000106925 -6.22629e-05 -1.54644e-06
4.51751e-21 -0.0118537 0.000959072 0.0104596 -0.00605465 7.14982e-05
4.51751e-21 0.0118537 0.000959138 0.000197436 -0.00011587 1.34405e-06
-4.51751e-21 0.0119178 0.000318651 2.85603e-05 -1.63503e-05 2.1035e-07
-1.12938e-20 -0.0119179 0.00031862 0.00539984 -0.00310866 -1.53489e-05
1.35525e-20 0.011932 7.04551e-08 0 0 0
-1.35525e-20 -0.011932 7.04586e-08 0 0 0
2.71051e-21 -0.0118325 0.00163065 0.00913551 -0.00543616 0.000142709
0 0.0118325 0.00163068 0.000202237 -0.000119852 -5.12809e-06
-1.35525e-20 -0.0118724 0.00142181 0.0115027 -0.00675761 0.000204837
0 0.0118724 0.00142183 0.000245768 -0.000144019 -4.25965e-06
-1.35525e-20 0.0117615 0.0021856 0 0 0
0 -0.0117616 0.0021856 0 0 0
-5.42101e-20 0.0118132 0.00220929 0 0 0
-2.71051e-20 -0.0118132 0.00220929 0 0 0
-3.76459e-22 0.0118989 0.00195768 0.00016479 -0.000107125 -4.75561e-06
-2.63521e-21 -0.0118989 0.00195769 0.00727116 -0.00465819 0.000231
0 -0.0119718 0.0015384 0.0129897 -0.00809815 0.000302972
6.77626e-21 0.0119718 0.0015384 0.000290185 -0.000176323 -1.21499e-05
0 0.0120982 7.96187e-08 0 0 0
0 -0.0120983 7.96213e-08 0 0 0
4.06576e-21 -0.0120695 0.00085261 0.0139459 -0.00840402 3.0374e-05
-2.71051e-21 0.0120694 0.000852623 0.000248974 -0.000150558 9.48191e-06
0 0.0122081 0.000167123 2.81939e-06 -2.27667e-06 4.55324e-07
-2.71051e-20 -0.0122082 0.000167145 0.00432511 -0.00252458 1.92074e-05
0 0.012221 7.14632e-08 0 0 0
0 -0.012221 7.14627e-08 0 0 0
2.71051e-21 0.0121684 0.00122551 0.000370387 -0.000215793 -1.79731e-07
-1.95759e-21 -0.0121684 0.00122551 0.0173704 -0.0103487 0.000108581
-2.71051e-20 0.012025 0.00230651 0 0 0
6.77626e-21 -0.0120251 0.00230652 0 0 0
3.22679e-21 0.0122349 0.000642359 0.000198554 -0.000117705 4.23635e-06
1.29072e-21 -0.0122349 0.000642359 0.0136 -0.00804638 5.10748e-05
-1.01644e-20 0.0120594 0.00232227 0 0 0
0 -0.0120594 0.00232227 0 0 0
0 0.0122855 6.71739e-08 0 0 0
2.71051e-20 -0.0122856 6.71709e-08 0 0 0
1.97641e-21 0.0122109 0.00173628 0.000350507 -0.000205609 -6.03398e-06
-2.82344e-22 -0.0122109 0.0017363 0.0148246 -0.00895909 0.000215629
-5.42101e-21 0.0121468 0.002146 0.000188432 -0.000112003 -2.55294e-06
8.13152e-21 -0.0121468 0.00214601 0.00689376 -0.00432253 0.000393048
-6.77626e-21 0.0122263 0.00229071 9.01e-05 -5.52024e-05 -1.56796e-06
6.77626e-21 -0.0122264 0.00229075 0.00326573 -0.00209432 0.000206973
0 0.0124605 5.58013e-08 0 0 0
0 -0.0124606 5.57971e-08 0 0 0
0 0.0125121 0.000225139 4.85723e-06 -2.88016e-06 3.71815e-07
0 -0.0125121 0.00022516 0.00739631 -0.00430838 1.60583e-05
0 0.0122889 0.00242764 0 0 0
0 -0.012289 0.00242766 0 0 0
0 0.0125901 0.000921782 0.000457316 -0.000250631 -1.55261e-06
-2.71051e-20 -0.0125902 0.000921784 0.0238358 -0.0137724 7.55819e-06
-1.35525e-20 0.012401 0.00241701 6.87286e-05 -3.87128e-05 -1.59711e-06
0 -0.0124011 0.00241703 0.00278084 -0.00162266 7.34253e-05
-6.77626e-21 0.0123956 0.00247648 0 0 0
-6.77626e-21 -0.0123956 0.00247647 0 0 0
-3.38813e-21 0.0124525 0.00218686 0.000280599 -0.000155674 -2.82924e-06
-1.69407e-21 -0.0124525 0.00218688 0.0110061 -0.00645744 0.000279182
0 0.0125382 0.00209403 0.000401408 -0.000215266 -2.44259e-06
2.71051e-20 -0.0125382 0.00209406 0.0156458 -0.00898206 0.000311722
1.0842e-20 0.0126447 0.00162116 0.000587263 -0.000325028 1.71995e-06
2.71051e-20 -0.0126447 0.00162119 0.0252444 -0.0146267 9.46978e-05
1.35525e-20 -0.012772 0.000141272 0.00486212 -0.00283806 1.25308e-05
0 0.0127721 0.000141226 3.12787e-06 -1.88903e-06 3.12511e-07
1.35525e-20 -0.0127747 1.51153e-08 0 0 0
1.35525e-20 0.0127748 1.5111e-08 0 0 0
-2.71051e-21 -0.0126131 0.00241882 0.00700561 -0.00405655 0.000192195
-1.35525e-20 0.0126131 0.00241885 0.000176058 -9.67071e-05 -2.76697e-06
1.35525e-20 -0.0125862 0.00256375 0 0 0
-2.71051e-20 0.0125863 0.00256377 0 0 0
0 -0.0129279 4.53095e-09 0 0 0
0 0.0129279 4.5309e-09 0 0 0
9.03502e-21 0.0129181 0.000605376 0.000268542 -0.000149993 -6.11646e-07
-1.88079e-37 -0.0129182 0.000605392 0.0197423 -0.0113494 6.54672e-06
-2.25875e-21 0.0129069 0.00122274 0.000628102 -0.000351211 2.29582e-07
0 -0.012907 0.00122277 0.0298803 -0.0171923 1.80822e-05
0 -0.0127463 0.00263701 0 0 0
-2.71051e-20 0.0127464 0.00263706 0 0 0
-9.03502e-21 0.0128745 0.00194112 0.000589743 -0.000330188 -1.57969e-06
-4.51751e-21 -0.0128746 0.00194114 0.0243096 -0.0141074 0.000185127
0 0.0130689 3.79654e-09 0 0 0
0 -0.0130689 3.79638e-09 0 0 0
2.71051e-20 0.0130684 0.000129725 3.03375e-06 -1.73849e-06 1.53042e-07
-1.35525e-20 -0.0130685 0.000129752 0.00560144 -0.00317518 -1.29707e-05
-4.51751e-21 0.0129105 0.00229689 0.000417098 -0.00023384 -3.17772e-06
-2.25875e-21 -0.0129106 0.00229692 0.016742 -0.00975515 0.000238198
-8.13152e-21 0.0131166 0.0016405 0.000771296 -0.000434484 1.79546e-08
8.13152e-21 -0.0131166 0.00164056 0.0336755 -0.019316 5.70689e-05
0 0.013248 0.000302964 6.94928e-06 -4.06754e-06 3.0816e-07
2.71051e-20 -0.013248 0.000302967 0.0127066 -0.0072497 -1.22251e-05
-6.77626e-21 -0.0129823 0.00274604 0 0 0
2.71051e-20 0.0129824 0.00274607 0 0 0
0 0.0132464 0.000911472 0.000619067 -0.000350052 -1.80661e-06
-2.71051e-20 -0.0132464 0.000911494 0.0328559 -0.0188017 1.19855e-05
9.03502e-21 0.0131304 0.00262467 0.000234915 -0.000132869 -1.76939e-06
0 -0.0131304 0.00262473 0.00968468 -0.00572037 0.000146721
2.71051e-20 0.0132415 0.00211425 0.000718355 -0.000404228 -2.82273e-06
0 -0.0132416 0.0021143 0.0294615 -0.0171026 0.000133118
1.35525e-20 0.0131185 0.00280836 0 0 0
0 -0.0131186 0.00280842 0 0 0
-1.35525e-20 -0.013437 2.08369e-09 0 0 0
-1.35525e-20 0.013437 2.0834e-09 0 0 0
0 -0.0134397 0.000120667 0.00520929 -0.00295289 -1.20626e-05
-1.35525e-20 0.0134397 0.000120639 2.82132e-06 -1.61675e-06 1.42325e-07
-1.35525e-20 0.0135679 1.40563e-09 0 0 0
0 -0.0135679 1.40572e-09 0 0 0
0 0.0135763 0.00059667 0.000338013 -0.000190901 -1.34116e-06
0 -0.0135763 0.000596688 0.0247613 -0.0141585 -4.86408e-07
9.03502e-21 0.0135724 0.00122413 0.000821877 -0.000463537 -1.78229e-06
2.25875e-21 -0.0135724 0.00122416 0.0397531 -0.0228012 -2.15739e-05
2.71051e-20 0.0133498 0.00291517 0 0 0
-2.71051e-20 -0.0133499 0.00291524 0 0 0
6.77626e-21 0.0134778 0.00238384 0.000624773 -0.000352823 -1.29909e-06
-6.77626e-21 -0.013478 0.00238391 0.0258591 -0.0149605 7.80648e-05
-4.51751e-21 0.0135676 0.00185527 0.000909833 -0.00051267 -8.1262e-07
-6.77626e-21 -0.0135677 0.00185532 0.0392155 -0.0225896 -1.34305e-05
1.35525e-20 0.0136939 1.2223e-09 0 0 0
0 -0.013694 1.22233e-09 0 0 0
0 0.0136952 0.000110039 2.7694e-06 -1.5468e-06 3.32511e-07
-1.35525e-20 -0.0136952 0.000110069 0.00543446 -0.00308675 -3.43921e-07
2.03288e-20 -0.0135431 0.00300575 0 0 0
3.72694e-20 0.0135431 0.00300574 0 0 0
0 -0.0139035 0.000294194 0.0142129 -0.00810303 2.41374e-05
0 0.0139035 0.000294183 7.24236e-06 -4.08285e-06 7.95582e-07
1.69407e-20 0.0135877 0.0030267 0 0 0
-1.69407e-20 -0.013588 0.00302686 0 0 0
0 0.0139156 0.000900746 0.000736105 -0.00041512 -4.85657e-06
0 -0.0139156 0.000900767 0.0399143 -0.0228384 -2.88861e-05
-4.51751e-21 0.0136798 0.00276423 0.000406364 -0.000230313 -1.10025e-07
-4.51751e-21 -0.0136798 0.00276433 0.0165373 -0.00929965 6.42815e-05
2.71051e-20 0.0139125 0.00154327 0.00108438 -0.000609818 -1.16494e-06
0 -0.0139126 0.00154331 0.0488591 -0.0281488 -6.1335e-05
-2.71051e-20 0.0138987 0.00219587 0.000998947 -0.000563634 3.67738e-07
-2.71051e-20 -0.0138988 0.00219593 0.0417054 -0.0240018 -0.000124849
0 -0.0141099 3.98855e-10 0 0 0
-1.35525e-20 0.01411 3.98723e-10 0 0 0
1.35525e-20 -0.0141138 9.87932e-05 0.00487777 -0.00277056 -3.08691e-07
1.35525e-20 0.0141138 9.87563e-05 2.48547e-06 -1.38821e-06 2.98421e-07
-1.35525e-20 0.0138003 0.00312616 0 0 0
-1.35525e-20 -0.0138004 0.00312625 0 0 0
0 -0.0142228 2.30732e-10 0 0 0
0 0.0142228 2.30673e-10 0 0 0
-2.25875e-21 0.0142415 0.000580992 0.000383522 -0.000217292 -2.83355e-06
-4.51751e-21 -0.0142415 0.000581005 0.0282548 -0.0161271 -8.61639e-06
-1.12938e-21 0.0142522 0.0012064 0.000970693 -0.000547887 -3.26326e-06
1.12938e-21 -0.0142522 0.00120643 0.047396 -0.027291 -6.48624e-05
-1.35525e-20 0.0143301 2.07135e-10 0 0 0
0 -0.0143301 2.07176e-10 0 0 0
0 0.0143313 8.88715e-05 2.48396e-06 -1.33112e-06 6.72485e-07
0 -0.0143313 8.89061e-05 0.00483816 -0.0026176 -3.33504e-05
-6.77626e-21 0.013971 0.00320516 0 0 0
-1.35525e-20 -0.0139711 0.00320521 0 0 0
2.25875e-21 0.0142439 0.0018749 0.00115803 -0.000652809 8.08942e-07
-1.12938e-21 -0.014244 0.00187495 0.0502579 -0.0289243 -0.000181272
0 0.0140732 0.00302489 0.000346717 -0.000210405 -2.98137e-06
-2.71051e-21 -0.0140733 0.003025 0.0123582 -0.00703779 0.000181188
9.03502e-22 0.0141848 0.00260879 0.000788711 -0.000449159 2.19906e-07
-9.03502e-22 -0.014185 0.00260885 0.031875 -0.0183227 -1.46287e-05
6.77626e-21 0.0140966 0.0032633 0 0 0
0 -0.014097 0.00326346 0 0 0
0 0.0142071 0.00316519 0.000232615 -0.000141782 -2.16929e-06
-1.35525e-20 -0.0142074 0.00316541 0.00832067 -0.00471839 0.000105716
0 -0.0145609 0.000281732 0.015061 -0.00824956 -3.89989e-05
-2.71051e-20 0.0145609 0.000281727 7.58104e-06 -4.12904e-06 1.71601e-06
0 0.0145815 0.000874352 0.000803162 -0.000456961 -9.22324e-06
0 -0.0145815 0.000874372 0.0445726 -0.0257419 9.21395e-06
-1.35525e-20 0.0142355 0.00332755 0 0 0
2.71051e-20 -0.0142357 0.00332766 0 0 0
0 0.0145904 0.00151948 0.00126822 -0.000714277 2.15006e-06
2.71051e-20 -0.0145905 0.00151951 0.0565333 -0.0326014 -0.000185893
0 0.0145713 0.00221296 0.00129141 -0.000729284 2.15492e-06
0 -0.0145714 0.00221301 0.0545194 -0.0312717 -0.000355291
0 0.014357 0.00338361 0 0 0
1.35525e-20 -0.0143572 0.00338367 0 0 0
4.51751e-21 0.0144398 0.00302856 0.000568518 -0.000323173 8.95351e-07
-6.02335e-21 -0.0144401 0.00302864 0.0218596 -0.0126042 3.58256e-05
-1.35525e-20 0.0143822 0.00330545 0.000152116 -8.23345e-05 3.05065e-06
-1.35525e-20 -0.0143823 0.00330556 0.00621813 -0.00358195 -0.000115887
-1.35525e-20 -0.0147852 4.2202e-11 0 0 0
0 0.0147853 4.21645e-11 0 0 0
-1.35525e-20 -0.0147878 7.95663e-05 0.00432991 -0.00234261 -2.98469e-05
-1.35525e-20 0.0147879 7.95165e-05 2.22249e-06 -1.191e-06 6.01698e-07
-1.35525e-20 -0.0148815 2.04947e-11 0 0 0
1.35525e-20 0.0148815 2.04768e-11 0 0 0
2.71051e-20 0.0146213 0.00280153 0.000918847 -0.000514616 2.44276e-06
0 -0.0146214 0.00280159 0.035915 -0.0208413 -5.57746e-05
-2.25875e-21 -0.0149014 0.000554709 0.0300683 -0.0171014 0.000115591
-4.51751e-21 0.0149014 0.000554705 0.000394388 -0.000225056 -3.3433e-06
0 0.0145853 0.00326151 0.000375162 -0.000204557 3.78765e-06
-2.71051e-20 -0.0145855 0.00326159 0.0152738 -0.0087335 -0.000143552
1.12938e-21 0.014922 0.00116916 0.00105995 -0.000601989 -1.17655e-06
-1.12938e-21 -0.014922 0.00116918 0.0527275 -0.0303784 -0.000175963
0 0.0149733 1.85798e-11 0 0 0
-1.35525e-20 -0.0149733 1.85939e-11 0 0 0
0 0.0149737 7.37377e-05 2.12895e-06 -1.02725e-06 6.8311e-07
0 -0.0149738 7.37977e-05 0.0042302 -0.00226736 0.000209056
2.71051e-20 0.0146077 0.00349933 0 0 0
1.35525e-20 -0.014608 0.00349943 0 0 0
-1.12938e-21 0.0149197 0.00184904 0.0013805 -0.000780323 4.48964e-06
0 -0.0149198 0.00184907 0.0602959 -0.0345861 -0.000348206
0 0.0146661 0.00343238 0.000159075 -8.61011e-05 3.19021e-06
0 -0.0146663 0.00343252 0.0065034 -0.00374628 -0.000121204
0 0.0149194 0.00252068 0.00124924 -0.000705046 1.78675e-06
-1.12938e-21 -0.0149195 0.00252073 0.0514607 -0.0294943 -0.000318818
2.71051e-20 0.0147321 0.00355666 0 0 0
0 -0.0147322 0.00355672 0 0 0
-2.25875e-21 0.0148879 0.00309611 0.000753384 -0.000425634 1.36445e-06
0 -0.0148881 0.00309617 0.029973 -0.0172353 -0.000200712
0 -0.0152102 0.000264579 0.015008 -0.00816456 0.000551083
2.71051e-20 0.0152103 0.00026457 7.53648e-06 -3.76869e-06 1.90198e-06
0 -0.0152372 0.000832817 0.0466171 -0.0268296 -6.34302e-05
2.71051e-20 0.0152372 0.000832812 0.000786651 -0.000450688 -8.16195e-06
0 0.0148481 0.0036099 0 0 0
0 -0.0148482 0.00360994 0 0 0
0 0.0148927 0.003477 0.000266935 -0.000153243 4.15641e-07
1.35525e-20 -0.0148928 0.00347709 0.0101956 -0.00573304 -9.24095e-05
-2.71051e-20 0.0152552 0.00147323 0.00139231 -0.00079064 1.02475e-05
2.71051e-20 -0.0152552 0.00147325 0.0634434 -0.0364886 -0.000468447
2.71051e-20 0.0152472 0.00216851 0.0015701 -0.000887128 3.55068e-06
5.42101e-20 -0.0152472 0.00216853 0.066741 -0.038014 -0.000391428
0 -0.0154526 2.80546e-12 0 0 0
0 0.0154528 2.79932e-12 0 0 0
0 -0.0154539 6.4364e-05 0.00368944 -0.00197752 0.000182332
0 0.0154541 6.42863e-05 1.85607e-06 -8.95581e-07 5.95552e-07
-2.71051e-20 0.0150217 0.00368977 0 0 0
2.71051e-20 -0.0150218 0.00368985 0 0 0
0 0.0150964 0.00340472 0.000547763 -0.000318275 2.40098e-07
2.71051e-20 -0.0150966 0.00340477 0.0213735 -0.012291 -0.000156831
0 0.0152384 0.002848 0.00126195 -0.000715104 -6.61763e-07
0 -0.0152385 0.00284804 0.0508429 -0.0290551 -0.000498023
0 -0.0155344 1.12584e-12 0 0 0
0 0.0155345 1.12356e-12 0 0 0
2.71051e-20 0.015136 0.00358108 0.000280578 -0.000161075 4.36885e-07
0 -0.0151361 0.00358119 0.0107186 -0.00602715 -9.715e-05
0 -0.0155483 0.000512811 0.0299127 -0.016556 0.000160945
0 0.0155483 0.000512813 0.000368417 -0.000204172 -6.15032e-06
0 -0.0156089 5.68786e-05 0.00351959 -0.00165209 1.87864e-05
6.77626e-21 0.0156089 5.68083e-05 1.40618e-06 -1.69448e-07 1.108e-07
0 -0.0156116 1.05395e-12 0 0 0
6.77626e-21 0.0156116 1.052e-12 0 0 0
1.35525e-20 0.0151553 0.00375102 0 0 0
-1.35525e-20 -0.0151554 0.00375107 0 0 0
-1.12938e-21 -0.0156 0.0011003 0.0552473 -0.0316393 -0.000251145
0 0.0156 0.0011003 0.00106958 -0.000603393 2.06646e-06
0 0.0155873 0.00178843 0.0015557 -0.000880896 1.18023e-05
-1.12938e-21 -0.0155873 0.00178845 0.0691824 -0.0397091 -0.000588543
0 0.0152736 0.00381163 0 0 0
-1.35525e-20 -0.0152737 0.00381166 0 0 0
1.35525e-20 0.015311 0.00369351 0.000259515 -0.000158628 -1.05881e-06
-4.06576e-20 -0.0153111 0.00369356 0.00881611 -0.00500476 3.3768e-05
3.38813e-21 0.0155683 0.00250748 0.00156227 -0.000888741 4.87198e-06
2.25875e-21 -0.0155684 0.00250751 0.0654998 -0.0374393 -0.000559735
0 -0.015842 0.000233949 0.0142445 -0.00688134 -2.26829e-05
-5.42101e-20 0.0158421 0.000233943 6.30248e-06 -2.66192e-06 8.44555e-07
-4.51751e-22 0.0155232 0.00325344 0.000969984 -0.000558456 7.45335e-07
1.35525e-21 -0.0155233 0.00325348 0.0376211 -0.0215101 -0.000287661
0 -0.0158871 0.000762453 0.0454533 -0.0253753 0.000176619
2.71051e-20 0.0158872 0.000762453 0.000716253 -0.000387862 -1.83954e-05
-1.35525e-20 0.0154852 0.00363865 0.000516319 -0.000312657 -2.49078e-06
-1.35525e-20 -0.0154853 0.00363869 0.017336 -0.00994153 0.000168984
6.77626e-21 0.0154927 0.00391521 0 0 0
0 -0.0154927 0.00391527 0 0 0
2.71051e-20 -0.0159268 0.00138123 0.0669752 -0.0387157 -0.000673148
0 0.0159268 0.00138123 0.00144693 -0.000812296 2.08358e-05
0 0.0155593 0.00385214 0.000180734 -0.000110474 -7.37385e-07
1.35525e-20 -0.0155593 0.00385222 0.00613891 -0.00348495 2.35136e-05
2.71051e-20 0.0158993 0.00212235 0.0018041 -0.0010275 1.27062e-05
2.71051e-20 -0.0158994 0.00212237 0.0791709 -0.045389 -0.000820112
0 0.0155754 0.0039559 0 0 0
0 -0.0155754 0.00395594 0 0 0
0 0.0158855 0.00284661 0.00162935 -0.000934343 4.35866e-06
0 -0.0158856 0.00284663 0.0661679 -0.037815 -0.000540166
6.77626e-21 0.0156482 0.00400349 0 0 0
1.35525e-20 -0.0156482 0.00400353 0 0 0
5.64689e-22 -0.0161504 0.000464681 0.0296605 -0.0161705 0.000184573
-3.95282e-21 0.0161505 0.000464663 0.000293253 -0.000176149 3.86379e-06
-1.35525e-20 0.0156709 0.00394832 0.000122073 -7.15429e-05 1.90368e-06
0 -0.0156709 0.00394837 0.00492015 -0.00286611 -7.56166e-05
2.25875e-21 0.0157655 0.00368363 0.00067624 -0.000392702 3.77115e-07
0 -0.0157655 0.00368367 0.0248246 -0.0142274 -0.000129931
4.23516e-21 0.0162446 7.65639e-14 0 0 0
0 -0.0162451 7.54652e-14 0 0 0
8.47033e-22 -0.0162671 1.41525e-05 0.000871589 -0.000473426 7.35037e-06
0 -0.0162672 1.73772e-06 5.03649e-05 -2.69761e-05 1.69454e-06
7.19978e-21 0.0162672 1.45818e-05 7.65727e-06 -4.86721e-06 1.41558e-07
0 0.0162715 1.44085e-06 1.96601e-08 -1.75389e-08 1.14937e-08
0 0.0159384 0.00346448 0.00109456 -0.00062231 2.85356e-06
2.71051e-20 -0.0159385 0.00346452 0.0408441 -0.0231843 -0.000556823
-2.25875e-22 -0.0162375 0.00174474 0.0746958 -0.0432007 -0.000611678
3.95282e-22 0.0162375 0.00174473 0.00167108 -0.000951046 2.86507e-05
2.25875e-21 -0.0163344 0.000944398 0.0505435 -0.028764 -0.000146345
-6.77626e-21 0.0163345 0.00094441 0.000843836 -0.000501725 2.49735e-05
0 0.015896 0.00392573 0.000429228 -0.000249347 5.0513e-07
-2.71051e-20 -0.0158961 0.00392576 0.0167963 -0.00983693 -2.69206e-05
-8.87368e-22 -0.0162554 0.00244443 0.0755759 -0.0435198 -0.000777916
5.64689e-22 0.0162554 0.0024444 0.00181378 -0.00103743 1.38161e-05
-1.35525e-20 -0.0159402 0.00419462 0 0 0
0 0.0159403 0.00419464 0 0 0
5.64689e-22 0.0162141 0.0031706 0.00153348 -0.000876592 4.68253e-06
-5.64689e-22 -0.0162141 0.00317063 0.0602794 -0.0343012 -0.000893064
0 -0.0159991 0.00414939 0.00588792 -0.00342987 -9.04901e-05
0 0.0159991 0.00414944 0.000145953 -8.55383e-05 2.27608e-06
1.35525e-20 -0.016026 0.00425069 0 0 0
0 0.0160261 0.00425068 0 0 0
9.41148e-23 -0.0166367 0.000352811 0.0222163 -0.0116504 0.000331792
-1.8823e-22 0.0166369 0.00035298 6.5866e-05 -2.25171e-05 -3.96481e-05
0 0.0160816 0.0042869 0 0 0
-1.35525e-20 -0.0160816 0.00428693 0 0 0
0 0.016105 0.00423208 0.000123335 -7.43129e-05 -1.21815e-06
1.35525e-20 -0.016105 0.00423207 0.00382814 -0.00220675 4.59873e-05
0 0.016226 0.00384224 0.000827413 -0.000471087 -1.16042e-06
1.90582e-21 -0.0162262 0.00384229 0.0306239 -0.0173133 -0.000424546
-6.35275e-22 0.0162339 0.00382556 0.000850682 -0.000484308 -1.01119e-06
0 -0.016234 0.00382567 0.0315871 -0.0178608 -0.000443797
1.05879e-22 0.0162401 0.00384589 0.000829581 -0.000472154 -1.19054e-06
5.29396e-22 -0.0162402 0.00384591 0.0307074 -0.0173557 -0.000430404
-6.77626e-21 -0.0167083 1.01691e-14 0 0 0
-6.77626e-21 0.0167085 1.01518e-14 0 0 0
2.71051e-20 -0.0166691 0.00146462 0.0748867 -0.0436229 -0.000419781
-2.71051e-20 0.0166691 0.0014646 0.00164205 -0.000942236 6.63764e-05
-2.71051e-20 0.0165265 0.00282081 0.00195761 -0.00112265 9.42558e-06
2.71051e-20 -0.0165265 0.00282082 0.0787178 -0.0452578 -0.00116789
-1.35525e-20 0.0161983 0.00436312 0 0 0
6.77626e-21 -0.0161984 0.00436321 0 0 0
0 0.0166645 0.00194624 0.00194594 -0.00111416 3.6814e-05
0 -0.0166645 0.00194624 0.0830034 -0.0485872 -0.000453838
0 0.0165187 0.00350446 0.00151423 -0.000863136 2.6916e-06
0 -0.0165187 0.00350448 0.0581382 -0.032534 -0.00134449
1.35525e-20 -0.0169424 1.10016e-15 0 0 0
-1.35525e-20 0.0169426 1.10457e-15 0 0 0
0 0.0163499 0.0044621 0 0 0
1.35525e-20 -0.0163499 0.00446215 0 0 0
-3.10579e-21 0.0169272 0.000866318 0.000672033 -0.00039857 2.46663e-05
2.82344e-22 -0.0169272 0.000866359 0.0455023 -0.0260591 -0.000105409
0 -0.0168736 0.00168495 0.0794909 -0.0465205 -0.000464721
1.35525e-20 0.0168736 0.00168495 0.00182558 -0.00104216 5.02422e-05
0 0.0164548 0.00427999 0.000505612 -0.00027125 -5.3025e-06
0 -0.0164549 0.00428004 0.0178563 -0.00984555 -0.000195086
1.41172e-22 0.0168849 0.00243443 0.00210353 -0.0012012 1.92744e-05
-4.23516e-22 -0.0168849 0.00243444 0.0847038 -0.0491291 -0.00105684
-6.77626e-21 -0.0164962 0.00455767 0 0 0
6.77626e-21 0.0164963 0.00455763 0 0 0
5.64689e-22 0.0168359 0.00316003 0.00191948 -0.00109631 7.07207e-06
0 -0.0168359 0.00316005 0.0747386 -0.0424992 -0.00154559
2.03288e-20 -0.0171338 1.74503e-16 0 0 0
0 0.0171342 1.75422e-16 0 0 0
-5.42101e-20 -0.0170775 0.00142438 0.0753947 -0.0443735 -0.000460638
-2.71051e-20 0.0170775 0.00142436 0.00167479 -0.000951974 5.8859e-05
0 -0.0171371 0.000271939 0.0190575 -0.0103887 0.000306826
-8.13152e-21 0.0171374 0.000272002 2.06255e-05 -3.2342e-06 -4.2019e-05
-2.71051e-20 -0.0170666 0.00192551 0.0851551 -0.0498703 -0.000561205
-2.71051e-20 0.0170666 0.00192552 0.00207797 -0.00118458 4.0078e-05
0 0.0167863 0.00388665 0.00124314 -0.000706213 -2.00941e-06
1.12938e-21 -0.0167864 0.00388666 0.0462697 -0.0257024 -0.00108501
0 0.0166207 0.00463877 0 0 0
1.35525e-20 -0.0166207 0.00463882 0 0 0
-2.71051e-20 0.0166524 0.00459992 0.000111256 -6.42549e-05 -2.45614e-06
1.35525e-20 -0.0166524 0.00459996 0.00408219 -0.00232964 7.11672e-06
0 0.0166794 0.00467712 0 0 0
1.35525e-20 -0.0166795 0.00467717 0 0 0
4.70574e-23 0.0168452 0.00433528 0.000760498 -0.000428535 -6.6987e-06
-1.8823e-22 -0.0168452 0.00433533 0.0275516 -0.0151284 -0.00044968
0 0.0171764 0.00277493 0.00228637 -0.00130386 9.93845e-06
2.71051e-20 -0.0171764 0.00277494 0.0891546 -0.0515046 -0.0015899
0 0.0174301 3.02821e-16 0 0 0
-1.35525e-20 -0.0174308 3.00143e-16 0 0 0
0 0.0168042 0.00464355 0.00021818 -0.000123157 -9.98662e-07
1.35525e-20 -0.0168042 0.0046436 0.00804037 -0.00442876 -0.0001186
-6.77626e-21 0.0167886 0.00474831 0 0 0
-1.35525e-20 -0.0167887 0.00474841 0 0 0
-6.77626e-21 0.017449 0.000139075 1.09592e-05 -1.66191e-06 -2.2157e-05
0 -0.0174496 0.000138384 0.0091415 -0.00494692 0.000160024
0 0.0171294 0.00350658 0.00193884 -0.00110623 6.43833e-06
-5.42101e-20 -0.0171294 0.00350658 0.0737439 -0.0412015 -0.00207599
6.77626e-21 0.0175668 -2.95376e-17 0 0 0
-6.77626e-21 -0.0175669 -2.94894e-17 0 0 0
-1.55289e-21 -0.0175583 0.000896637 0.0477314 -0.0279501 -0.000173527
8.47033e-22 0.0175583 0.000896566 0.000731454 -0.000413425 1.58253e-05
4.23516e-22 0.0175189 0.00167533 0.001939 -0.00110109 3.81935e-05
-5.64689e-22 -0.0175189 0.00167527 0.0801047 -0.0471516 -0.000631144
0 -0.0176062 4.62633e-05 0.00301684 -0.00173711 4.33788e-05
0 0.0176064 4.65549e-05 1.54091e-06 -1.16425e-06 4.40898e-06
0 -0.0176089 -8.34911e-18 0 0 0
-6.77626e-21 0.0176091 -8.34566e-18 0 0 0
-5.42101e-20 0.0171399 0.00413685 0.00131112 -0.00074377 -5.77749e-06
2.71051e-20 -0.01714 0.00413687 0.0489672 -0.0268648 -0.00132776
0 -0.0176343 -4.66438e-18 0 0 0
6.77626e-21 0.0176347 -4.59267e-18 0 0 0
2.71051e-20 0.0170445 0.00462908 0.000537431 -0.000300885 -4.21555e-06
-2.71051e-20 -0.0170446 0.00462915 0.0199584 -0.01091 -0.000123142
5.64689e-22 0.0175376 0.00228764 0.00229785 -0.00130744 1.78196e-05
5.64689e-22 -0.0175376 0.00228764 0.0890712 -0.0519105 -0.00124595
1.35525e-20 0.0170023 0.00488776 0 0 0
1.35525e-20 -0.0170024 0.00488785 0 0 0
0 -0.0176972 4.73616e-05 0.0034563 -0.00207585 -3.18446e-05
0 0.017698 4.76654e-05 2.33704e-06 -2.15796e-06 -7.56281e-07
0 -0.0177005 -1.62469e-17 0 0 0
6.77626e-21 0.0177013 -1.6206e-17 0 0 0
9.03502e-22 0.0174646 0.00310785 0.00228613 -0.00130263 5.82786e-06
1.91994e-21 -0.0174646 0.00310784 0.08671 -0.0495275 -0.0018303
0 0.0171112 0.00481659 0.000269908 -0.000152356 -1.23543e-06
-1.35525e-20 -0.0171113 0.00481669 0.00994526 -0.005478 -0.000146699
0 0.0171346 0.00497401 0 0 0
1.35525e-20 -0.0171347 0.00497414 0 0 0
-4.51751e-21 0.0174342 0.00383429 0.00183651 -0.00104647 7.31945e-07
1.12938e-21 -0.0174342 0.0038343 0.0691671 -0.0383924 -0.00190844
-2.71051e-20 0.0172171 0.00502787 0 0 0
-1.35525e-20 -0.0172173 0.005028 0 0 0
1.35525e-20 0.0172554 0.00493142 0.000233824 -0.000136984 -5.16813e-06
0 -0.0172556 0.00493155 0.00762685 -0.00397189 -1.98006e-05
-3.76459e-22 0.0174076 0.00453333 0.000994086 -0.000561735 -4.19623e-06
-1.69407e-21 -0.0174076 0.00453337 0.0373165 -0.0201891 -0.000926018
-2.71051e-20 0.0177905 0.00276845 0.00255756 -0.00145435 2.3641e-06
2.71051e-20 -0.0177905 0.00276845 0.0959031 -0.0556182 -0.0017341
0 0.0177573 0.00348298 0.00235568 -0.00134287 6.82676e-07
-2.71051e-20 -0.0177574 0.003483 0.0872172 -0.0489761 -0.00211645
-6.77626e-21 0.017378 0.00513278 0 0 0
6.77626e-21 -0.0173781 0.00513291 0 0 0
0 0.0174497 0.00517959 0 0 0
6.77626e-21 -0.0174498 0.00517965 0 0 0
0 0.0177264 0.00417356 0.00179724 -0.00102529 1.93391e-06
-2.71051e-20 -0.0177264 0.00417357 0.0688156 -0.0377237 -0.00215102
6.77626e-21 0.0175029 0.00510088 0.000221106 -0.000117056 -8.2558e-07
0 -0.0175029 0.005101 0.00847864 -0.00447532 -0.000134242
5.42101e-20 -0.0181611 0.00171797 0.0834557 -0.0495248 -0.00087916
0 0.0181612 0.00171798 0.00221851 -0.00125817 2.46253e-05
6.77626e-21 -0.0175201 0.0052255 0 0 0
1.35525e-20 0.0175201 0.00522553 0 0 0
-5.42101e-20 -0.0182822 0.000515621 0.0382565 -0.0235218 -0.000173879
0 0.0182823 0.000515628 8.72702e-05 -5.0997e-05 2.80849e-06
1.05879e-22 0.0181327 0.00240414 0.00259442 -0.00147384 4.93917e-06
-1.2282e-20 -0.0181332 0.00240535 0.0939786 -0.0549013 -0.0015255
-1.05879e-21 -0.0181316 0.00242435 0.0940018 -0.0548857 -0.00153535
1.05879e-22 0.0181316 0.0024249 0.00259545 -0.00147452 4.7556e-06
-3.01167e-21 0.0176138 0.0049468 0.0006482 -0.000349979 -4.6004e-06
0 -0.0176139 0.00494683 0.0247037 -0.0130655 -0.000371564
0 0.0180947 0.00311468 0.00263178 -0.00149855 -1.35699e-06
0 -0.0180947 0.00311469 0.0948994 -0.0543732 -0.00188307
0 0.0180563 0.00382343 0.00230378 -0.00131666 -1.14211e-06
2.25875e-21 -0.0180564 0.00382344 0.0850854 -0.0474775 -0.00207002
0 -0.0177083 0.00534827 0 0 0
0 0.0177083 0.00534827 0 0 0
0 -0.0177632 0.00528867 0.00768374 -0.004059 6.59736e-05
0 0.0177632 0.00528872 0.000186953 -0.000103889 -3.50261e-06
-4.51751e-21 0.0179883 0.0045481 0.00152572 -0.000870871 -7.59308e-07
-2.25875e-21 -0.0179884 0.00454809 0.0586906 -0.0319703 -0.00166436
2.71051e-20 0.0178024 0.00540967 0 0 0
2.71051e-20 -0.0178025 0.0054097 0 0 0
2.71051e-20 -0.0184402 0.00274762 0.0983653 -0.0573906 -0.00171047
0 0.0184402 0.00274761 0.00284861 -0.00161803 -3.9939e-06
2.25875e-21 0.0180053 0.00502464 0.000918614 -0.000522961 -1.44642e-06
-1.807e-21 -0.0180053 0.00502466 0.0368326 -0.01969 -0.00101968
0 0.0183918 0.00345434 0.00275666 -0.00157359 -4.4582e-06
2.71051e-20 -0.0183918 0.00345433 0.0978077 -0.0553332 -0.00197731
6.77626e-21 0.0179451 0.00550277 0 0 0
6.77626e-21 -0.0179453 0.00550285 0 0 0
-2.71051e-20 0.0183611 0.00415361 0.00231517 -0.00133021 -2.82843e-06
0 -0.0183611 0.00415361 0.0867874 -0.0480566 -0.00203683
0 0.0188421 7.04156e-05 3.45249e-06 -3.18793e-06 -1.11725e-06
-1.35525e-20 -0.0188422 7.03634e-05 0.00513489 -0.00308401 -4.73103e-05
0 0.0188477 1.10464e-18 0 0 0
0 -0.0188477 1.06275e-18 0 0 0
1.12938e-21 -0.0188602 0.00112833 0.0616625 -0.0372281 -0.000517236
4.51751e-21 0.0188602 0.00112834 0.00129609 -0.000734944 1.29885e-06
-6.77626e-21 -0.0180592 0.00557717 0 0 0
1.35525e-20 0.0180593 0.00557723 0 0 0
0 0.0181347 0.00538311 0.000451469 -0.000259316 8.31164e-07
-4.51751e-21 -0.0181348 0.00538307 0.0188819 -0.00970436 -0.000750759
-1.35525e-20 -0.018942 6.21258e-19 0 0 0
-1.35525e-20 0.018942 6.17799e-19 0 0 0
-1.12938e-21 -0.0188166 0.00228404 0.0926252 -0.0542969 -0.00115474
-4.51751e-21 0.0188167 0.00228404 0.00276259 -0.00157258 -6.32279e-06
0 0.0183535 0.00480356 0.00161655 -0.000927761 5.64651e-06
0 -0.0183536 0.00480356 0.0656057 -0.0356637 -0.00210473
-5.64689e-22 -0.0187311 0.00307208 0.0987755 -0.0568528 -0.00149179
-1.41172e-22 0.0187311 0.00307209 0.00293564 -0.00167532 -8.20149e-06
0 -0.0190249 8.52317e-05 0.00651629 -0.00402783 -4.17788e-05
1.35525e-20 0.019025 8.52886e-05 4.21458e-05 -2.24805e-05 1.80441e-06
0 -0.0190315 5.66653e-19 0 0 0
1.35525e-20 0.0190316 5.63374e-19 0 0 0
-1.35525e-20 -0.0182205 0.00568238 0 0 0
-1.35525e-20 0.0182205 0.00568238 0 0 0
-4.5881e-22 0.0187398 0.00374577 0.00274698 -0.00157549 -7.01025e-06
-1.76465e-22 -0.0187398 0.00374577 0.0960581 -0.0540717 -0.0016679
-1.12938e-21 0.0186713 0.00447942 0.00222206 -0.00127626 -8.84179e-07
-1.12938e-21 -0.0186713 0.00447942 0.0847074 -0.046776 -0.00189435
-1.35525e-20 0.0183608 0.00577389 0 0 0
6.77626e-21 -0.0183608 0.00577392 0 0 0
1.35525e-20 0.018471 0.00561106 0.000483837 -0.000291952 -3.27468e-06
1.6263e-20 -0.018471 0.00561103 0.0183629 -0.00984951 -0.000334585
3.61401e-21 -0.0186129 0.00519728 0.0517018 -0.0281126 -0.00124855
2.71051e-21 0.0186129 0.00519728 0.00126248 -0.000727725 8.41771e-07
0 -0.0191646 0.00284903 0.0998522 -0.0577393 -0.000913824
-2.71051e-20 0.0191646 0.00284904 0.00321619 -0.0018388 -1.50082e-05