# UMean  POINT_DATA 14232
# x  y  z  UMean_x  UMean_y  UMean_z
0 -0.0115468 6.39774e-08 0 0 0
0 0.0115468 6.39774e-08 0 0 0
0 -0.0115468 0.000159933 0 0 0
6.77626e-21 0.0115468 0.000159966 0 0 0
1.35525e-20 -0.0115468 0.000505149 0 0 0
0 0.0115468 0.000505252 0 0 0
0 -0.0115468 0.000661354 0 0 0
0 0.0115468 0.00066149 0 0 0
-6.77626e-21 -0.0115468 0.000824682 0 0 0
0 0.0115468 0.000824823 0 0 0
6.77626e-21 -0.0115467 0.00119323 0 0 0
-6.77626e-21 0.0115467 0.00119337 0 0 0
0 0.0116176 9.48413e-05 1.93486e-06 -1.43347e-06 -1.08799e-07
0 -0.0116176 9.48284e-05 0.00126133 -0.000709826 4.25591e-05
0 0.0116191 6.70002e-08 0 0 0
0 -0.0116191 6.70007e-08 0 0 0
0 -0.0115467 0.00135636 0 0 0
0 0.0115467 0.0013565 0 0 0
0 -0.0116144 0.000567788 0.00120422 -0.000677687 4.06322e-05
0 0.0116144 0.000567904 1.84725e-06 -1.36857e-06 -1.03873e-07
-1.35525e-20 -0.0116106 0.000748384 0.00223421 -0.00122558 6.33391e-05
0 0.0116106 0.000748514 2.05584e-05 -1.11197e-05 -4.31589e-07
0 -0.0115467 0.00152899 0 0 0
6.77626e-21 0.0115467 0.00152911 0 0 0
-1.35525e-20 -0.0116105 0.00124699 0.00222896 -0.0012227 6.31904e-05
1.35525e-20 0.0116105 0.00124712 2.05106e-05 -1.10938e-05 -4.30586e-07
0 -0.0116054 0.00142615 0.00194117 -0.0010514 -4.29517e-05
-1.35525e-20 0.0116054 0.00142627 1.98466e-05 -1.08346e-05 2.57385e-07
6.77626e-21 -0.0115467 0.00190899 0 0 0
0 0.0115467 0.00190902 0 0 0
1.35525e-20 0.0117276 6.6334e-08 0 0 0
-1.35525e-20 -0.0117276 6.63364e-08 0 0 0
-6.77626e-21 -0.0117103 0.000650495 0.00405912 -0.002264 5.31113e-05
2.03288e-20 0.0117103 0.000650588 2.49066e-05 -1.4727e-05 2.92314e-07
-1.35525e-20 0.0115467 0.002087 0 0 0
1.35525e-20 -0.0115467 0.002087 0 0 0
0 -0.011609 0.00193563 0.00206038 -0.00111597 -4.55896e-05
0 0.011609 0.00193565 2.10649e-05 -1.14997e-05 2.73185e-07
-6.77626e-21 -0.0117025 0.00130867 0.00539404 -0.00304668 3.04399e-05
6.77626e-21 0.0117025 0.00130876 4.90062e-05 -2.83131e-05 -2.57892e-07
0 0.0116004 0.00211165 0 0 0
-1.35525e-20 -0.0116004 0.00211165 0 0 0
0 0.0116425 0.00204727 1.99799e-05 -1.0286e-05 3.63024e-07
-1.35525e-20 -0.0116425 0.00204727 0.00222943 -0.00116492 -3.45359e-05
1.35525e-20 0.0116584 0.00213829 0 0 0
-1.35525e-20 -0.0116585 0.00213829 0 0 0
-1.35525e-20 -0.0117067 0.00192898 0.00468669 -0.00267243 -1.79555e-05
-1.35525e-20 0.0117067 0.00192897 4.45367e-05 -2.64396e-05 -8.06591e-07
4.51751e-21 -0.0118537 0.000959072 0.0101871 -0.00590157 7.06136e-05
4.51751e-21 0.0118537 0.000959138 8.26079e-05 -4.90059e-05 3.72395e-07
-4.51751e-21 0.0119178 0.000318651 1.30557e-05 -7.54676e-06 -4.17794e-08
-1.12938e-20 -0.0119179 0.00031862 0.00523508 -0.00301456 -1.48766e-05
1.35525e-20 0.011932 7.04551e-08 0 0 0
-1.35525e-20 -0.011932 7.04586e-08 0 0 0
2.71051e-21 -0.0118325 0.00163065 0.00889508 -0.00530033 0.000146561
0 0.0118325 0.00163068 8.44643e-05 -5.06488e-05 -2.36623e-06
-1.35525e-20 -0.0118724 0.00142181 0.0112152 -0.00659576 0.000207686
0 0.0118724 0.00142183 0.000102709 -6.09899e-05 -2.16556e-06
-1.35525e-20 0.0117615 0.0021856 0 0 0
0 -0.0117616 0.0021856 0 0 0
-5.42101e-20 0.0118132 0.00220929 0 0 0
-2.71051e-20 -0.0118132 0.00220929 0 0 0
-3.76459e-22 0.0118989 0.00195768 6.7995e-05 -4.52793e-05 -1.87262e-06
-2.63521e-21 -0.0118989 0.00195769 0.00706453 -0.00453849 0.000227986
0 -0.0119718 0.0015384 0.0126705 -0.00791698 0.000308119
6.77626e-21 0.0119718 0.0015384 0.000120579 -7.52753e-05 -5.95384e-06
0 0.0120982 7.96187e-08 0 0 0
0 -0.0120983 7.96213e-08 0 0 0
4.06576e-21 -0.0120695 0.00085261 0.013598 -0.00820671 2.90001e-05
-2.71051e-21 0.0120694 0.000852623 0.000103721 -6.40665e-05 3.94453e-06
0 0.0122081 0.000167123 1.49966e-06 -1.1822e-06 1.04724e-08
-2.71051e-20 -0.0122082 0.000167145 0.00419593 -0.00244928 2.12306e-05
0 0.012221 7.14632e-08 0 0 0
0 -0.012221 7.14627e-08 0 0 0
2.71051e-21 0.0121684 0.00122551 0.000154467 -9.19794e-05 -7.33901e-07
-1.95759e-21 -0.0121684 0.00122551 0.016979 -0.010119 0.000110291
-2.71051e-20 0.012025 0.00230651 0 0 0
6.77626e-21 -0.0120251 0.00230652 0 0 0
3.22679e-21 0.0122349 0.000642359 8.32367e-05 -5.03883e-05 1.5577e-06
1.29072e-21 -0.0122349 0.000642359 0.0132664 -0.00785044 5.02596e-05
-1.01644e-20 0.0120594 0.00232227 0 0 0
0 -0.0120594 0.00232227 0 0 0
0 0.0122855 6.71739e-08 0 0 0
2.71051e-20 -0.0122856 6.71709e-08 0 0 0
1.97641e-21 0.0122109 0.00173628 0.000145834 -8.779e-05 -3.31913e-06
-2.82344e-22 -0.0122109 0.0017363 0.0144876 -0.00875982 0.000217635
-5.42101e-21 0.0121468 0.002146 7.76446e-05 -4.7443e-05 -1.47441e-06
8.13152e-21 -0.0121468 0.00214601 0.00671205 -0.00420844 0.000388626
-6.77626e-21 0.0122263 0.00229071 3.70361e-05 -2.33587e-05 -8.85743e-07
6.77626e-21 -0.0122264 0.00229075 0.00317771 -0.00203827 0.000204333
0 0.0124605 5.58013e-08 0 0 0
0 -0.0124606 5.57971e-08 0 0 0
0 0.0125121 0.000225139 2.53271e-06 -1.61937e-06 7.56067e-08
0 -0.0125121 0.00022516 0.00719739 -0.00418817 1.47706e-05
0 0.0122889 0.00242764 0 0 0
0 -0.012289 0.00242766 0 0 0
0 0.0125901 0.000921782 0.000191355 -0.000106914 -1.50216e-06
-2.71051e-20 -0.0125902 0.000921784 0.0233384 -0.013469 6.80008e-06
-1.35525e-20 0.012401 0.00241701 2.85539e-05 -1.66771e-05 -8.82928e-07
0 -0.0124011 0.00241703 0.00271661 -0.00158427 7.32793e-05
-6.77626e-21 0.0123956 0.00247648 0 0 0
-6.77626e-21 -0.0123956 0.00247647 0 0 0
-3.38813e-21 0.0124525 0.00218686 0.000116868 -6.67362e-05 -1.78607e-06
-1.69407e-21 -0.0124525 0.00218688 0.0107618 -0.00631082 0.000278369
0 0.0125382 0.00209403 0.000167693 -9.25009e-05 -1.85896e-06
2.71051e-20 -0.0125382 0.00209406 0.0153158 -0.00878578 0.000312395
1.0842e-20 0.0126447 0.00162116 0.000245597 -0.000139099 -2.8718e-07
2.71051e-20 -0.0126447 0.00162119 0.0247647 -0.0143354 9.77461e-05
1.35525e-20 -0.012772 0.000141272 0.00473226 -0.0027596 1.16909e-05
0 0.0127721 0.000141226 1.62607e-06 -1.06902e-06 6.97729e-08
1.35525e-20 -0.0127747 1.51153e-08 0 0 0
1.35525e-20 0.0127748 1.5111e-08 0 0 0
-2.71051e-21 -0.0126131 0.00241882 0.00684237 -0.00395951 0.000192042
-1.35525e-20 0.0126131 0.00241885 7.3195e-05 -4.1536e-05 -1.57353e-06
1.35525e-20 -0.0125862 0.00256375 0 0 0
-2.71051e-20 0.0125863 0.00256377 0 0 0
0 -0.0129279 4.53095e-09 0 0 0
0 0.0129279 4.5309e-09 0 0 0
9.03502e-21 0.0129181 0.000605376 0.000112994 -6.49241e-05 -7.21795e-07
-1.88079e-37 -0.0129182 0.000605392 0.0193424 -0.0111082 5.86195e-06
-2.25875e-21 0.0129069 0.00122274 0.000263494 -0.000151487 -8.90048e-07
0 -0.012907 0.00122277 0.0293614 -0.0168783 1.97792e-05
0 -0.0127463 0.00263701 0 0 0
-2.71051e-20 0.0127464 0.00263706 0 0 0
-9.03502e-21 0.0128745 0.00194112 0.00024778 -0.000143177 -1.81798e-06
-4.51751e-21 -0.0128746 0.00194114 0.0238839 -0.0138513 0.000184762
0 0.0130689 3.79654e-09 0 0 0
0 -0.0130689 3.79638e-09 0 0 0
2.71051e-20 0.0130684 0.000129725 1.55626e-06 -1.0176e-06 4.60128e-08
-1.35525e-20 -0.0130685 0.000129752 0.00547399 -0.00309962 -1.33476e-05
-4.51751e-21 0.0129105 0.00229689 0.000175015 -0.000101518 -2.29385e-06
-2.25875e-21 -0.0129106 0.00229692 0.0164305 -0.00956832 0.000236514
-8.13152e-21 0.0131166 0.0016405 0.000324559 -0.000189015 -1.16134e-06
8.13152e-21 -0.0131166 0.00164056 0.0331743 -0.0190144 5.88426e-05
0 0.013248 0.000302964 3.56742e-06 -2.34514e-06 8.11704e-08
2.71051e-20 -0.013248 0.000302967 0.0124097 -0.00707304 -1.29175e-05
-6.77626e-21 -0.0129823 0.00274604 0 0 0
2.71051e-20 0.0129824 0.00274607 0 0 0
0 0.0132464 0.000911472 0.000260154 -0.000151982 -1.64903e-06
-2.71051e-20 -0.0132464 0.000911494 0.0323184 -0.0184793 1.25199e-05
9.03502e-21 0.0131304 0.00262467 9.89218e-05 -5.81658e-05 -1.4067e-06
0 -0.0131304 0.00262473 0.00950467 -0.00561194 0.000146001
2.71051e-20 0.0132415 0.00211425 0.000303159 -0.00017677 -2.68276e-06
0 -0.0132416 0.0021143 0.0289945 -0.0168232 0.000130644
1.35525e-20 0.0131185 0.00280836 0 0 0
0 -0.0131186 0.00280842 0 0 0
-1.35525e-20 -0.013437 2.08369e-09 0 0 0
-1.35525e-20 0.013437 2.0834e-09 0 0 0
0 -0.0134397 0.000120667 0.00509076 -0.00288262 -1.24132e-05
-1.35525e-20 0.0134397 0.000120639 1.44729e-06 -9.46348e-07 4.27908e-08
-1.35525e-20 0.0135679 1.40563e-09 0 0 0
0 -0.0135679 1.40572e-09 0 0 0
0 0.0135763 0.00059667 0.000143151 -8.41177e-05 -1.02197e-06
0 -0.0135763 0.000596688 0.0243647 -0.0139209 -6.84736e-07
9.03502e-21 0.0135724 0.00122413 0.000348055 -0.000204051 -1.80853e-06
2.25875e-21 -0.0135724 0.00122416 0.0392446 -0.0224967 -2.07834e-05
2.71051e-20 0.0133498 0.00291517 0 0 0
-2.71051e-20 -0.0133499 0.00291524 0 0 0
6.77626e-21 0.0134778 0.00238384 0.000266168 -0.000156331 -1.88669e-06
-6.77626e-21 -0.013478 0.00238391 0.0254954 -0.014744 7.70831e-05
-4.51751e-21 0.0135676 0.00185527 0.00038697 -0.000226604 -1.78148e-06
-6.77626e-21 -0.0135677 0.00185532 0.0387311 -0.0222996 -1.33082e-05
1.35525e-20 0.0136939 1.2223e-09 0 0 0
0 -0.013694 1.22233e-09 0 0 0
0 0.0136952 0.000110039 1.43126e-06 -8.95106e-07 1.1467e-07
-1.35525e-20 -0.0136952 0.000110069 0.00533363 -0.00302594 -2.21014e-07
2.03288e-20 -0.0135431 0.00300575 0 0 0
3.72694e-20 0.0135431 0.00300574 0 0 0
0 -0.0139035 0.000294194 0.0139388 -0.00793763 2.44856e-05
0 0.0139035 0.000294183 3.73408e-06 -2.36283e-06 2.69429e-07
1.69407e-20 0.0135877 0.0030267 0 0 0
-1.69407e-20 -0.013588 0.00302686 0 0 0
0 0.0139156 0.000900746 0.000312397 -0.000184026 -2.89393e-06
0 -0.0139156 0.000900767 0.0394304 -0.0225489 -2.98379e-05
-4.51751e-21 0.0136798 0.00276423 0.000174377 -0.000103324 -1.22244e-06
-4.51751e-21 -0.0136798 0.00276433 0.0163008 -0.00916404 6.35837e-05
2.71051e-20 0.0139125 0.00154327 0.000462863 -0.000271771 -1.77385e-06
0 -0.0139126 0.00154331 0.0483898 -0.0278696 -6.08191e-05
-2.71051e-20 0.0138987 0.00219587 0.000429647 -0.000252312 -1.61479e-06
-2.71051e-20 -0.0138988 0.00219593 0.0412464 -0.0237263 -0.000125246
0 -0.0141099 3.98855e-10 0 0 0
-1.35525e-20 0.01411 3.98723e-10 0 0 0
1.35525e-20 -0.0141138 9.87932e-05 0.00478727 -0.00271597 -1.98374e-07
1.35525e-20 0.0141138 9.87563e-05 1.28452e-06 -8.03337e-07 1.02914e-07
-1.35525e-20 0.0138003 0.00312616 0 0 0
-1.35525e-20 -0.0138004 0.00312625 0 0 0
0 -0.0142228 2.30732e-10 0 0 0
0 0.0142228 2.30673e-10 0 0 0
-2.25875e-21 0.0142415 0.000580992 0.000164131 -9.78941e-05 -1.59108e-06
-4.51751e-21 -0.0142415 0.000581005 0.0279089 -0.0159196 -7.54747e-06
-1.12938e-21 0.0142522 0.0012064 0.000416782 -0.000246967 -2.22332e-06
1.12938e-21 -0.0142522 0.00120643 0.0469704 -0.0270374 -6.57029e-05
-1.35525e-20 0.0143301 2.07135e-10 0 0 0
0 -0.0143301 2.07176e-10 0 0 0
0 0.0143313 8.88715e-05 1.31112e-06 -7.86588e-07 2.27098e-07
0 -0.0143313 8.89061e-05 0.00476637 -0.00257423 -3.15953e-05
-6.77626e-21 0.013971 0.00320516 0 0 0
-1.35525e-20 -0.0139711 0.00320521 0 0 0
2.25875e-21 0.0142439 0.0018749 0.000501559 -0.00029567 -1.09166e-06
-1.12938e-21 -0.014244 0.00187495 0.0498502 -0.0286805 -0.000182167
0 0.0140732 0.00302489 0.000151446 -9.60009e-05 -2.59538e-06
-2.71051e-21 -0.0140733 0.003025 0.0121899 -0.00694121 0.000179722
9.03502e-22 0.0141848 0.00260879 0.000344147 -0.000204556 -1.79112e-06
-9.03502e-22 -0.014185 0.00260885 0.0315592 -0.0181362 -1.52922e-05
6.77626e-21 0.0140966 0.0032633 0 0 0
0 -0.014097 0.00326346 0 0 0
0 0.0142071 0.00316519 0.000101881 -6.4868e-05 -1.8149e-06
-1.35525e-20 -0.0142074 0.00316541 0.00820941 -0.00465517 0.000104857
0 -0.0145609 0.000281732 0.0148262 -0.00810769 -3.42403e-05
-2.71051e-20 0.0145609 0.000281727 3.97682e-06 -2.44338e-06 5.85396e-07
0 0.0145815 0.000874352 0.000344869 -0.000207666 -4.45127e-06
0 -0.0145815 0.000874372 0.0441765 -0.0255057 9.36186e-06
-1.35525e-20 0.0142355 0.00332755 0 0 0
2.71051e-20 -0.0142357 0.00332766 0 0 0
0 0.0145904 0.00151948 0.0005509 -0.000326501 1.89241e-07
2.71051e-20 -0.0145905 0.00151951 0.0561809 -0.0323923 -0.000188978
0 0.0145713 0.00221296 0.000567626 -0.00033487 -1.02403e-06
0 -0.0145714 0.00221301 0.054172 -0.0310619 -0.000355994
0 0.014357 0.00338361 0 0 0
1.35525e-20 -0.0143572 0.00338367 0 0 0
4.51751e-21 0.0144398 0.00302856 0.000250441 -0.000148652 -1.51742e-06
-6.02335e-21 -0.0144401 0.00302864 0.0216183 -0.0124626 3.59519e-05
-1.35525e-20 0.0143822 0.00330545 6.76476e-05 -3.82106e-05 8.32812e-07
-1.35525e-20 -0.0143823 0.00330556 0.00614256 -0.00353784 -0.000114291
-1.35525e-20 -0.0147852 4.2202e-11 0 0 0
0 0.0147853 4.21645e-11 0 0 0
-1.35525e-20 -0.0147878 7.95663e-05 0.00426566 -0.0023038 -2.82762e-05
-1.35525e-20 0.0147879 7.95165e-05 1.17311e-06 -7.0379e-07 2.03193e-07
-1.35525e-20 -0.0148815 2.04947e-11 0 0 0
1.35525e-20 0.0148815 2.04768e-11 0 0 0
2.71051e-20 0.0146213 0.00280153 0.000407206 -0.00023798 -1.74069e-06
0 -0.0146214 0.00280159 0.0355954 -0.0206517 -5.54494e-05
-2.25875e-21 -0.0149014 0.000554709 0.0297928 -0.0169359 0.000116886
-4.51751e-21 0.0149014 0.000554705 0.000170047 -0.000103527 -1.5487e-06
0 0.0145853 0.00326151 0.00016548 -9.44408e-05 3.1284e-07
-2.71051e-20 -0.0145855 0.00326159 0.0150801 -0.00862097 -0.000140915
1.12938e-21 0.014922 0.00116916 0.000461715 -0.000277673 -7.53806e-07
-1.12938e-21 -0.014922 0.00116918 0.0524129 -0.0301908 -0.000177567
0 0.0149733 1.85798e-11 0 0 0
-1.35525e-20 -0.0149733 1.85939e-11 0 0 0
0 0.0149737 7.37377e-05 1.0578e-06 -6.42181e-07 2.08412e-07
0 -0.0149738 7.37977e-05 0.00418035 -0.00223776 0.000209797
2.71051e-20 0.0146077 0.00349933 0 0 0
1.35525e-20 -0.014608 0.00349943 0 0 0
-1.12938e-21 0.0149197 0.00184904 0.000610577 -0.000362191 5.40603e-07
0 -0.0149198 0.00184907 0.0600191 -0.0344197 -0.000350509
0 0.0146661 0.00343238 7.07423e-05 -3.99587e-05 8.70911e-07
0 -0.0146663 0.00343252 0.00642436 -0.00370014 -0.000119534
0 0.0149194 0.00252068 0.000559164 -0.000329214 -2.01151e-06
-1.12938e-21 -0.0149195 0.00252073 0.0511737 -0.0293207 -0.000320232
2.71051e-20 0.0147321 0.00355666 0 0 0
0 -0.0147322 0.00355672 0 0 0
-2.25875e-21 0.0148879 0.00309611 0.000338941 -0.000199876 -1.93208e-06
0 -0.0148881 0.00309617 0.029725 -0.0170888 -0.000200338
0 -0.0152102 0.000264579 0.0148221 -0.00805349 0.000552614
2.71051e-20 0.0152103 0.00026457 3.8266e-06 -2.31429e-06 5.74758e-07
0 -0.0152372 0.000832817 0.0463252 -0.0266531 -6.45734e-05
2.71051e-20 0.0152372 0.000832812 0.00033926 -0.000208484 -3.18047e-06
0 0.0148481 0.0036099 0 0 0
0 -0.0148482 0.00360994 0 0 0
0 0.0148927 0.003477 0.000121974 -7.32817e-05 -9.7479e-07
1.35525e-20 -0.0148928 0.00347709 0.010101 -0.00567794 -9.21685e-05
-2.71051e-20 0.0152552 0.00147323 0.000616353 -0.000370096 4.20919e-06
2.71051e-20 -0.0152552 0.00147325 0.0632261 -0.0363603 -0.000470917
2.71051e-20 0.0152472 0.00216851 0.000707435 -0.000417467 -1.11743e-06
5.42101e-20 -0.0152472 0.00216853 0.0665529 -0.0378963 -0.000394412
0 -0.0154526 2.80546e-12 0 0 0
0 0.0154528 2.79932e-12 0 0 0
0 -0.0154539 6.4364e-05 0.00364597 -0.0019517 0.000182978
0 0.0154541 6.42863e-05 9.22218e-07 -5.59869e-07 1.81699e-07
-2.71051e-20 0.0150217 0.00368977 0 0 0
2.71051e-20 -0.0150218 0.00368985 0 0 0
0 0.0150964 0.00340472 0.0002487 -0.000151508 -2.35197e-06
2.71051e-20 -0.0150966 0.00340477 0.0211646 -0.0121703 -0.000156018
0 0.0152384 0.002848 0.000575354 -0.000339068 -3.99341e-06
0 -0.0152385 0.00284804 0.050558 -0.0288819 -0.000500517
0 -0.0155344 1.12584e-12 0 0 0
0 0.0155345 1.12356e-12 0 0 0
2.71051e-20 0.015136 0.00358108 0.000128208 -7.70271e-05 -1.02461e-06
0 -0.0151361 0.00358119 0.0106192 -0.00596921 -9.68967e-05
0 -0.0155483 0.000512811 0.0297063 -0.016434 0.000160536
0 0.0155483 0.000512813 0.000160986 -9.51039e-05 -3.12046e-06
0 -0.0156089 5.68786e-05 0.0034865 -0.00163391 1.86834e-05
6.77626e-21 0.0156089 5.68083e-05 6.09375e-07 -2.13516e-07 -1.51221e-08
0 -0.0156116 1.05395e-12 0 0 0
6.77626e-21 0.0156116 1.052e-12 0 0 0
1.35525e-20 0.0151553 0.00375102 0 0 0
-1.35525e-20 -0.0151554 0.00375107 0 0 0
-1.12938e-21 -0.0156 0.0011003 0.055039 -0.0315165 -0.000253605
0 0.0156 0.0011003 0.000475352 -0.000283028 -4.05229e-07
0 0.0155873 0.00178843 0.000704348 -0.000417666 2.30905e-06
-1.12938e-21 -0.0155873 0.00178845 0.0690446 -0.0396264 -0.000592717
0 0.0152736 0.00381163 0 0 0
-1.35525e-20 -0.0152737 0.00381166 0 0 0
1.35525e-20 0.015311 0.00369351 0.000121615 -7.72102e-05 -1.75056e-06
-4.06576e-20 -0.0153111 0.00369356 0.00873421 -0.00495641 3.33352e-05
3.38813e-21 0.0155683 0.00250748 0.000718914 -0.000425689 -2.06023e-06
2.25875e-21 -0.0155684 0.00250751 0.0653293 -0.0373334 -0.000563423
0 -0.015842 0.000233949 0.014104 -0.00680215 -2.28581e-05
-5.42101e-20 0.0158421 0.000233943 3.00575e-06 -1.70871e-06 1.5436e-07
-4.51751e-22 0.0155232 0.00325344 0.000451527 -0.000270187 -3.47885e-06
1.35525e-21 -0.0155233 0.00325348 0.037411 -0.0213822 -0.000289621
0 -0.0158871 0.000762453 0.0452383 -0.0252494 0.000174891
2.71051e-20 0.0158872 0.000762453 0.000316647 -0.000180611 -9.85845e-06
-1.35525e-20 0.0154852 0.00363865 0.000239835 -0.000150945 -3.8253e-06
-1.35525e-20 -0.0154853 0.00363869 0.0171649 -0.00983746 0.000167361
6.77626e-21 0.0154927 0.00391521 0 0 0
0 -0.0154927 0.00391527 0 0 0
2.71051e-20 -0.0159268 0.00138123 0.0668582 -0.0386506 -0.000677688
0 0.0159268 0.00138123 0.000654681 -0.000385324 5.8162e-06
0 0.0155593 0.00385214 8.46968e-05 -5.37716e-05 -1.21914e-06
1.35525e-20 -0.0155593 0.00385222 0.00608188 -0.00345129 2.32122e-05
2.71051e-20 0.0158993 0.00212235 0.000834353 -0.000494829 4.13617e-07
2.71051e-20 -0.0158994 0.00212237 0.0791413 -0.0453689 -0.000826787
0 0.0155754 0.0039559 0 0 0
0 -0.0155754 0.00395594 0 0 0
0 0.0158855 0.00284661 0.000766292 -0.000455901 -3.36397e-06
0 -0.0158856 0.00284663 0.0659969 -0.0377076 -0.000542884
6.77626e-21 0.0156482 0.00400349 0 0 0
1.35525e-20 -0.0156482 0.00400353 0 0 0
5.64689e-22 -0.0161504 0.000464681 0.0295015 -0.0160792 0.000183089
-3.95282e-21 0.0161505 0.000464663 0.000132325 -8.24061e-05 1.18698e-06
-1.35525e-20 0.0156709 0.00394832 5.7987e-05 -3.55533e-05 6.65528e-08
0 -0.0156709 0.00394837 0.00487462 -0.00284072 -7.39476e-05
2.25875e-21 0.0157655 0.00368363 0.000319285 -0.000192632 -3.47299e-06
0 -0.0157655 0.00368367 0.0246386 -0.014115 -0.000130607
4.23516e-21 0.0162446 7.65639e-14 0 0 0
0 -0.0162451 7.54652e-14 0 0 0
8.47033e-22 -0.0162671 1.41525e-05 0.000866445 -0.000470478 7.31326e-06
0 -0.0162672 1.73772e-06 4.98652e-05 -2.67014e-05 1.69947e-06
7.19978e-21 0.0162672 1.45818e-05 3.42502e-06 -2.24028e-06 5.00572e-08
0 0.0162715 1.44085e-06 1.03317e-08 -9.19835e-09 4.45258e-09
0 0.0159384 0.00346448 0.000520741 -0.000306911 -4.03877e-06
2.71051e-20 -0.0159385 0.00346452 0.0406165 -0.0230425 -0.000560825
-2.25875e-22 -0.0162375 0.00174474 0.0746383 -0.0431688 -0.000616698
3.95282e-22 0.0162375 0.00174473 0.000776679 -0.000459876 5.09164e-06
2.25875e-21 -0.0163344 0.000944398 0.0503966 -0.02868 -0.000149138
-6.77626e-21 0.0163345 0.00094441 0.0003903 -0.000239082 7.64112e-06
0 0.015896 0.00392573 0.000202865 -0.000123263 -2.72409e-06
-2.71051e-20 -0.0158961 0.00392576 0.0166346 -0.00974495 -2.30337e-05
-8.87368e-22 -0.0162554 0.00244443 0.0755071 -0.043477 -0.000784824
5.64689e-22 0.0162554 0.0024444 0.00085933 -0.000510373 -1.85884e-06
-1.35525e-20 -0.0159402 0.00419462 0 0 0
0 0.0159403 0.00419464 0 0 0
5.64689e-22 0.0162141 0.0031706 0.000737122 -0.000436863 -4.39244e-06
-5.64689e-22 -0.0162141 0.00317063 0.0601211 -0.0342002 -0.000900327
0 -0.0159991 0.00414939 0.00583345 -0.00339947 -8.84929e-05
0 0.0159991 0.00414944 6.93306e-05 -4.25083e-05 7.95721e-08
1.35525e-20 -0.016026 0.00425069 0 0 0
0 0.0160261 0.00425068 0 0 0
9.41148e-23 -0.0166367 0.000352811 0.0220788 -0.0115768 0.000330799
-1.8823e-22 0.0166369 0.00035298 2.73544e-05 -8.85597e-06 -1.42565e-05
0 0.0160816 0.0042869 0 0 0
-1.35525e-20 -0.0160816 0.00428693 0 0 0
0 0.016105 0.00423208 5.96344e-05 -3.71174e-05 -1.48279e-06
1.35525e-20 -0.016105 0.00423207 0.00379 -0.00218135 4.51846e-05
0 0.016226 0.00384224 0.000401081 -0.000236889 -5.19757e-06
1.90582e-21 -0.0162262 0.00384229 0.0304475 -0.0172042 -0.000428215
-6.35275e-22 0.0162339 0.00382556 0.000412323 -0.000243504 -5.20191e-06
0 -0.016234 0.00382567 0.0314114 -0.0177518 -0.000447623
1.05879e-22 0.0162401 0.00384589 0.000402318 -0.000237531 -5.22714e-06
5.29396e-22 -0.0162402 0.00384591 0.0305313 -0.0172468 -0.000434131
-6.77626e-21 -0.0167083 1.01691e-14 0 0 0
-6.77626e-21 0.0167085 1.01518e-14 0 0 0
2.71051e-20 -0.0166691 0.00146462 0.0748377 -0.0435993 -0.000422155
-2.71051e-20 0.0166691 0.0014646 0.000776783 -0.000460622 1.65059e-05
-2.71051e-20 0.0165265 0.00282081 0.000948819 -0.000564625 -4.17557e-06
2.71051e-20 -0.0165265 0.00282082 0.0786762 -0.0452298 -0.0011782
-1.35525e-20 0.0161983 0.00436312 0 0 0
6.77626e-21 -0.0161984 0.00436321 0 0 0
0 0.0166645 0.00194624 0.000925916 -0.000549506 1.36655e-06
0 -0.0166645 0.00194624 0.0830047 -0.0485943 -0.000461122
0 0.0165187 0.00350446 0.000743367 -0.000438587 -5.89724e-06
0 -0.0165187 0.00350448 0.0579572 -0.0324141 -0.00135678
1.35525e-20 -0.0169424 1.10016e-15 0 0 0
-1.35525e-20 0.0169426 1.10457e-15 0 0 0
0 0.0163499 0.0044621 0 0 0
1.35525e-20 -0.0163499 0.00446215 0 0 0
-3.10579e-21 0.0169272 0.000866318 0.000325987 -0.000195921 5.4944e-06
2.82344e-22 -0.0169272 0.000866359 0.0453695 -0.0259887 -0.000109238
0 -0.0168736 0.00168495 0.0794699 -0.0465139 -0.000469877
1.35525e-20 0.0168736 0.00168495 0.000870406 -0.000514828 7.26147e-06
0 0.0164548 0.00427999 0.000247335 -0.000138108 -6.04368e-06
0 -0.0164549 0.00428004 0.0177163 -0.00976274 -0.000195705
1.41172e-22 0.0168849 0.00243443 0.00102593 -0.00060809 -3.28545e-06
-4.23516e-22 -0.0168849 0.00243444 0.0847135 -0.049136 -0.00106865
-6.77626e-21 -0.0164962 0.00455767 0 0 0
6.77626e-21 0.0164963 0.00455763 0 0 0
5.64689e-22 0.0168359 0.00316003 0.000950316 -0.000562712 -5.47532e-06
0 -0.0168359 0.00316005 0.0746766 -0.0424546 -0.00156115
2.03288e-20 -0.0171338 1.74503e-16 0 0 0
0 0.0171342 1.75422e-16 0 0 0
-5.42101e-20 -0.0170775 0.00142438 0.0753502 -0.0443551 -0.000464748
-2.71051e-20 0.0170775 0.00142436 0.000799773 -0.000471492 9.77626e-06
0 -0.0171371 0.000271939 0.0189177 -0.0103171 0.000306095
-8.13152e-21 0.0171374 0.000272002 1.12572e-05 -3.72187e-06 -1.38588e-05
-2.71051e-20 -0.0170666 0.00192551 0.0851641 -0.0498807 -0.000569539
-2.71051e-20 0.0170666 0.00192552 0.00100144 -0.000591903 4.21955e-07
0 0.0167863 0.00388665 0.000621984 -0.00036624 -7.57114e-06
1.12938e-21 -0.0167864 0.00388666 0.0461227 -0.0256047 -0.00109718
0 0.0166207 0.00463877 0 0 0
1.35525e-20 -0.0166207 0.00463882 0 0 0
-2.71051e-20 0.0166524 0.00459992 5.51334e-05 -3.32104e-05 -2.1226e-06
1.35525e-20 -0.0166524 0.00459996 0.00404658 -0.00230821 7.03667e-06
0 0.0166794 0.00467712 0 0 0
1.35525e-20 -0.0166795 0.00467717 0 0 0
4.70574e-23 0.0168452 0.00433528 0.000381627 -0.000223436 -8.21747e-06
-1.8823e-22 -0.0168452 0.00433533 0.0274024 -0.0150336 -0.000456619
0 0.0171764 0.00277493 0.00113871 -0.000674102 -5.83926e-06
2.71051e-20 -0.0171764 0.00277494 0.0892056 -0.0515344 -0.00160783
0 0.0174301 3.02821e-16 0 0 0
-1.35525e-20 -0.0174308 3.00143e-16 0 0 0
0 0.0168042 0.00464355 0.000110842 -6.52314e-05 -2.17808e-06
1.35525e-20 -0.0168042 0.0046436 0.00798857 -0.00439718 -0.000120493
-6.77626e-21 0.0167886 0.00474831 0 0 0
-1.35525e-20 -0.0167887 0.00474841 0 0 0
-6.77626e-21 0.017449 0.000139075 3.97163e-06 -1.01941e-06 -7.50929e-06
0 -0.0174496 0.000138384 0.00907312 -0.00491206 0.00015975
0 0.0171294 0.00350658 0.000979774 -0.000579001 -5.97003e-06
-5.42101e-20 -0.0171294 0.00350658 0.0736737 -0.0411454 -0.00209772
6.77626e-21 0.0175668 -2.95376e-17 0 0 0
-6.77626e-21 -0.0175669 -2.94894e-17 0 0 0
-1.55289e-21 -0.0175583 0.000896637 0.0475753 -0.0278701 -0.000178765
8.47033e-22 0.0175583 0.000896566 0.000362228 -0.000211455 1.19034e-06
4.23516e-22 0.0175189 0.00167533 0.000940821 -0.000556397 1.5217e-06
-5.64689e-22 -0.0175189 0.00167527 0.0800653 -0.0471377 -0.000638452
0 -0.0176062 4.62633e-05 0.0029947 -0.00172434 4.27912e-05
0 0.0176064 4.65549e-05 5.5964e-07 -7.08696e-07 2.18291e-06
0 -0.0176089 -8.34911e-18 0 0 0
-6.77626e-21 0.0176091 -8.34566e-18 0 0 0
-5.42101e-20 0.0171399 0.00413685 0.000666185 -0.000392489 -1.04335e-05
2.71051e-20 -0.01714 0.00413687 0.0488062 -0.0267544 -0.00134444
0 -0.0176343 -4.66438e-18 0 0 0
6.77626e-21 0.0176347 -4.59267e-18 0 0 0
2.71051e-20 0.0170445 0.00462908 0.000271116 -0.000158259 -6.41681e-06
-2.71051e-20 -0.0170446 0.00462915 0.0198194 -0.0108255 -0.000127794
5.64689e-22 0.0175376 0.00228764 0.00114156 -0.000676621 -5.88929e-06
5.64689e-22 -0.0175376 0.00228764 0.0891054 -0.0519357 -0.00126027
1.35525e-20 0.0170023 0.00488776 0 0 0
1.35525e-20 -0.0170024 0.00488785 0 0 0
0 -0.0176972 4.73616e-05 0.0034313 -0.00206297 -3.2481e-05
0 0.017698 4.76654e-05 4.37193e-07 -3.44453e-07 -1.26408e-07
0 -0.0177005 -1.62469e-17 0 0 0
6.77626e-21 0.0177013 -1.6206e-17 0 0 0
9.03502e-22 0.0174646 0.00310785 0.0011597 -0.000687091 -8.48097e-06
1.91994e-21 -0.0174646 0.00310784 0.0867441 -0.0495425 -0.00185091
0 0.0171112 0.00481659 0.000137122 -8.06971e-05 -2.69448e-06
-1.35525e-20 -0.0171113 0.00481669 0.00988118 -0.00543894 -0.00014904
0 0.0171346 0.00497401 0 0 0
1.35525e-20 -0.0171347 0.00497414 0 0 0
-4.51751e-21 0.0174342 0.00383429 0.000944092 -0.00055852 -9.15768e-06
1.12938e-21 -0.0174342 0.0038343 0.0691043 -0.0383389 -0.00193051
-2.71051e-20 0.0172171 0.00502787 0 0 0
-1.35525e-20 -0.0172173 0.005028 0 0 0
1.35525e-20 0.0172554 0.00493142 0.000120277 -7.29511e-05 -4.39103e-06
0 -0.0172556 0.00493155 0.00757556 -0.00393695 -2.27538e-05
-3.76459e-22 0.0174076 0.00453333 0.000512288 -0.000301317 -8.70852e-06
-1.69407e-21 -0.0174076 0.00453337 0.0371976 -0.020107 -0.000939673
-2.71051e-20 0.0177905 0.00276845 0.00130234 -0.000773526 -1.20682e-05
2.71051e-20 -0.0177905 0.00276845 0.09601 -0.0556855 -0.00175305
0 0.0177573 0.00348298 0.00122244 -0.000724128 -1.08994e-05
-2.71051e-20 -0.0177574 0.003483 0.0872654 -0.0489917 -0.00214225
-6.77626e-21 0.017378 0.00513278 0 0 0
6.77626e-21 -0.0173781 0.00513291 0 0 0
0 0.0174497 0.00517959 0 0 0
6.77626e-21 -0.0174498 0.00517965 0 0 0
0 0.0177264 0.00417356 0.00093848 -0.000556434 -9.32125e-06
-2.71051e-20 -0.0177264 0.00417357 0.0687595 -0.0376683 -0.00217559
6.77626e-21 0.0175029 0.00510088 0.000113295 -6.30432e-05 -2.33448e-06
0 -0.0175029 0.005101 0.00843804 -0.00444986 -0.000137134
5.42101e-20 -0.0181611 0.00171797 0.0833789 -0.0494958 -0.000889186
0 0.0181612 0.00171798 0.00109359 -0.000650316 -4.4578e-06
6.77626e-21 -0.0175201 0.0052255 0 0 0
1.35525e-20 0.0175201 0.00522553 0 0 0
-5.42101e-20 -0.0182822 0.000515621 0.0379607 -0.0233693 -0.000178811
0 0.0182823 0.000515628 5.44213e-05 -3.13481e-05 -6.39246e-07
1.05879e-22 0.0181327 0.00240414 0.00132232 -0.000786782 -1.00562e-05
-1.2282e-20 -0.0181332 0.00240535 0.0940284 -0.0549404 -0.00154336
-1.05879e-21 -0.0181316 0.00242435 0.0940525 -0.054925 -0.00155336
1.05879e-22 0.0181316 0.0024249 0.00132353 -0.000787501 -1.0103e-05
-3.01167e-21 0.0176138 0.0049468 0.000333989 -0.000189081 -7.88921e-06
0 -0.0176139 0.00494683 0.0245926 -0.0129935 -0.000380286
0 0.0180947 0.00311468 0.00136561 -0.000812434 -1.16616e-05
0 -0.0180947 0.00311469 0.0949858 -0.054423 -0.00190658
0 0.0180563 0.00382343 0.00121301 -0.000722364 -1.15571e-05
2.25875e-21 -0.0180564 0.00382344 0.0851288 -0.0474871 -0.00209672
0 -0.0177083 0.00534827 0 0 0
0 0.0177083 0.00534827 0 0 0
0 -0.0177632 0.00528867 0.00764563 -0.00403386 6.42952e-05
0 0.0177632 0.00528872 9.7105e-05 -5.66456e-05 -3.89157e-06
-4.51751e-21 0.0179883 0.0045481 0.000807998 -0.000480698 -9.89308e-06
-2.25875e-21 -0.0179884 0.00454809 0.0586514 -0.0319275 -0.00168703
2.71051e-20 0.0178024 0.00540967 0 0 0
2.71051e-20 -0.0178025 0.0054097 0 0 0
2.71051e-20 -0.0184402 0.00274762 0.0984364 -0.0574435 -0.00173189
0 0.0184402 0.00274761 0.00147475 -0.000878877 -1.14127e-05
2.25875e-21 0.0180053 0.00502464 0.000485692 -0.000289026 -7.84183e-06
-1.807e-21 -0.0180053 0.00502466 0.036755 -0.0196299 -0.0010349
0 0.0183918 0.00345434 0.00145765 -0.000869742 -1.21752e-05
2.71051e-20 -0.0183918 0.00345433 0.0979242 -0.0553948 -0.00200516
6.77626e-21 0.0179451 0.00550277 0 0 0
6.77626e-21 -0.0179453 0.00550285 0 0 0
-2.71051e-20 0.0183611 0.00415361 0.00123839 -0.000742078 -1.37814e-05
0 -0.0183611 0.00415361 0.0868543 -0.0480748 -0.00206536
0 0.0188421 7.04156e-05 6.4586e-07 -5.08856e-07 -1.86741e-07
-1.35525e-20 -0.0188422 7.03634e-05 0.00509775 -0.00306488 -4.82559e-05
0 0.0188477 1.10464e-18 0 0 0
0 -0.0188477 1.06275e-18 0 0 0
1.12938e-21 -0.0188602 0.00112833 0.0614021 -0.0370969 -0.000523719
4.51751e-21 0.0188602 0.00112834 0.000653306 -0.000392433 -3.82486e-06
-6.77626e-21 -0.0180592 0.00557717 0 0 0
1.35525e-20 0.0180593 0.00557723 0 0 0
0 0.0181347 0.00538311 0.000240035 -0.000144952 -3.59132e-06
-4.51751e-21 -0.0181348 0.00538307 0.0188326 -0.00966643 -0.000761447
-1.35525e-20 -0.018942 6.21258e-19 0 0 0
-1.35525e-20 0.018942 6.17799e-19 0 0 0
-1.12938e-21 -0.0188166 0.00228404 0.0925809 -0.0542836 -0.00116904
-4.51751e-21 0.0188167 0.00228404 0.00141503 -0.000847626 -1.07587e-05
0 0.0183535 0.00480356 0.000866979 -0.000518667 -7.99877e-06
0 -0.0183536 0.00480356 0.0655971 -0.0356308 -0.00213313
-5.64689e-22 -0.0187311 0.00307208 0.0988327 -0.056889 -0.00151267
-1.41172e-22 0.0187311 0.00307209 0.0015376 -0.000920231 -1.37267e-05
0 -0.0190249 8.52317e-05 0.00645561 -0.00399601 -4.22466e-05
1.35525e-20 0.019025 8.52886e-05 2.50678e-05 -1.50176e-05 -6.95493e-08
0 -0.0190315 5.66653e-19 0 0 0
1.35525e-20 0.0190316 5.63374e-19 0 0 0
-1.35525e-20 -0.0182205 0.00568238 0 0 0
-1.35525e-20 0.0182205 0.00568238 0 0 0
-4.5881e-22 0.0187398 0.00374577 0.00146735 -0.000880098 -1.51067e-05
-1.76465e-22 -0.0187398 0.00374577 0.0961452 -0.0541115 -0.00169413
-1.12938e-21 0.0186713 0.00447942 0.00120255 -0.000721229 -1.28802e-05
-1.12938e-21 -0.0186713 0.00447942 0.0847826 -0.0467969 -0.00192362
-1.35525e-20 0.0183608 0.00577389 0 0 0
6.77626e-21 -0.0183608 0.00577392 0 0 0
1.35525e-20 0.018471 0.00561106 0.000261389 -0.000164101 -6.18633e-06
1.6263e-20 -0.018471 0.00561103 0.0183141 -0.00980952 -0.000342589
3.61401e-21 -0.0186129 0.00519728 0.0516941 -0.0280861 -0.00126906
2.71051e-21 0.0186129 0.00519728 0.000684285 -0.000412254 -9.2359e-06