# UMean  POINT_DATA 29169
# x  y  z  UMean_x  UMean_y  UMean_z
0.0199996 0 6.27196e-08 0 0 0
-0.0199996 0 6.27196e-08 0 0 0
0.0199996 0 0.000164442 0 0 0
-0.0199996 0 0.00016442 0 0 0
0.0199996 6.77626e-21 0.000494346 0 0 0
-0.0199996 -3.38813e-21 0.000494294 0 0 0
0.0199996 -6.77626e-21 0.000661321 0 0 0
-0.0199996 6.77626e-21 0.000661243 0 0 0
-0.0199996 6.77626e-21 0.000837166 0 0 0
0.0199996 -3.38813e-21 0.000837249 0 0 0
-0.0199996 6.77626e-21 0.0011807 0 0 0
0.0199996 3.38813e-21 0.00118076 0 0 0
-0.0199996 0 0.00135636 0 0 0
0.0199996 -6.77626e-21 0.00135644 0 0 0
-0.0199996 -3.38813e-21 0.00154016 0 0 0
0.0199996 -3.38813e-21 0.00154025 0 0 0
0.0200767 0 6.659e-05 1.61055e-06 -7.4966e-07 1.67902e-08
-0.0200767 0 6.65901e-05 0.000816724 -0.000469393 -3.49184e-06
-0.0200781 0 6.52655e-08 0 0 0
0.0200781 0 6.52657e-08 0 0 0
0.0200799 -6.77626e-21 0.000590246 1.67661e-06 -7.8041e-07 1.74789e-08
-0.0200799 0 0.000590204 0.000850206 -0.000488635 -3.63499e-06
-0.0200759 0 0.000728756 0.00161458 -0.000983797 2.67566e-05
0.0200759 6.77626e-21 0.000728801 1.49823e-05 -8.83319e-06 1.60449e-07
-0.0199996 -3.38813e-21 0.00190617 0 0 0
0.0199996 -3.38813e-21 0.00190619 0 0 0
0.0199996 -6.77626e-21 0.002087 0 0 0
-0.0199996 6.77626e-21 0.002087 0 0 0
-0.0200757 -6.77626e-21 0.00127189 0.00161125 -0.000981768 2.67014e-05
0.0200757 -6.77626e-21 0.00127193 1.49522e-05 -8.81546e-06 1.60127e-07
-0.0200724 6.77626e-21 0.00141167 0.00145856 -0.000901746 3.98444e-05
0.0200724 1.35525e-20 0.00141172 1.52867e-05 -8.82591e-06 -4.53712e-07
-0.0201349 4.06576e-20 6.62424e-08 0 0 0
0.0201349 0 6.62432e-08 0 0 0
-0.0201347 -1.35525e-20 0.00065509 0.00197503 -0.00111616 1.99179e-05
0.0201347 0 0.000655092 1.33056e-05 -7.83016e-06 1.8787e-07
-0.0200697 6.77626e-21 0.00197791 0.00140387 -0.000867934 3.83504e-05
0.0200697 6.77626e-21 0.00197791 1.47124e-05 -8.49433e-06 -4.36667e-07
-0.0201289 -2.03288e-20 0.00132685 0.00258849 -0.00152048 2.41311e-05
0.0201289 2.71051e-20 0.00132685 2.62028e-05 -1.52531e-05 -6.72725e-08
-0.0200872 0 0.00211021 0 0 0
0.0200872 6.77626e-21 0.00211021 0 0 0
-0.0201043 0 0.00206082 0.00124244 -0.000802858 1.83012e-05
0.0201043 0 0.00206081 1.28345e-05 -8.19736e-06 -3.81157e-07
0.0201292 0 0.00199355 2.34298e-05 -1.37657e-05 -5.14668e-07
-0.0201291 -6.77626e-21 0.00199358 0.00221378 -0.00129499 -7.6431e-06
-0.0201574 0 0.00212882 0 0 0
0.0201575 -6.77626e-21 0.00212883 0 0 0
-0.020211 6.77626e-21 0.00203552 0.00264841 -0.00150737 -3.96292e-05
0.020211 -6.77626e-21 0.0020355 2.62007e-05 -1.43272e-05 1.64963e-07
0.0203752 1.69407e-20 7.14249e-08 0 0 0
-0.0203752 -1.35525e-20 7.14223e-08 0 0 0
0.0203552 6.77626e-22 0.000964574 6.43006e-05 -3.48645e-05 -6.85207e-07
-0.0203552 0 0.000964653 0.00671578 -0.00375295 0.000147247
-0.0203848 -1.807e-21 0.00031854 0.00359856 -0.00204922 5.71452e-05
0.0203848 4.51751e-22 0.000318497 9.46014e-06 -5.41643e-06 -7.71268e-08
0.0203485 1.8823e-22 0.00158862 6.63455e-05 -3.66431e-05 6.14352e-07
-0.0203485 -9.41148e-22 0.00158869 0.00617234 -0.00343884 -0.000152583
-0.0204541 -5.0822e-21 7.18949e-08 0 0 0
0.0204542 1.69407e-21 7.18988e-08 0 0 0
0.0203479 3.38813e-21 0.0020921 2.12508e-05 -1.16205e-05 1.33797e-07
-0.0203479 -6.77626e-21 0.00209212 0.00214792 -0.00122251 -3.21401e-05
-0.0203454 0 0.00217864 0 0 0
0.0203454 -1.35525e-20 0.00217865 0 0 0
0.0204014 0 0.00198909 4.98124e-05 -2.72387e-05 3.13625e-07
-0.0204014 -1.35525e-20 0.00198912 0.00503525 -0.00286586 -7.53443e-05
0.0204481 -5.42101e-20 0.00220585 0 0 0
-0.0204481 -2.71051e-20 0.00220584 0 0 0
-0.0206171 6.77626e-21 7.35947e-08 0 0 0
0.0206171 -6.77626e-21 7.35999e-08 0 0 0
0.0206345 2.25875e-21 0.00124186 0.000111128 -6.41885e-05 -4.12979e-08
-0.0206345 -2.25875e-21 0.00124198 0.0109754 -0.00634074 2.49743e-05
0.0206729 0 7.48669e-08 0 0 0
-0.0206729 6.77626e-21 7.48621e-08 0 0 0
0.0206741 6.77626e-21 7.00031e-05 1.36577e-06 -9.55247e-07 -2.68063e-08
-0.0206742 6.77626e-21 7.0039e-05 0.000904202 -0.000548333 2.41516e-06
0.0206667 4.51751e-21 0.000657407 6.23618e-05 -3.54118e-05 -3.81185e-07
-0.0206667 -7.90564e-21 0.000657517 0.00894117 -0.00502466 6.1379e-05
0.0206275 1.35525e-21 0.0016945 0.000103331 -5.90143e-05 2.60662e-07
-0.0206275 -4.06576e-21 0.00169457 0.00962964 -0.00548363 -9.54159e-05
0.0205976 0 0.00224546 0 0 0
-0.0205976 -1.35525e-20 0.00224545 0 0 0
0.020822 6.77626e-21 8.13398e-08 0 0 0
-0.0208222 0 8.13398e-08 0 0 0
-0.0208462 1.35525e-20 0.000330944 0.00620195 -0.00358694 4.98172e-06
0.0208462 0 0.000330924 5.22947e-06 -3.33258e-06 -1.38381e-07
0.0208502 2.71051e-20 0.000953835 0.000115376 -6.74646e-05 5.41246e-07
-0.0208502 -1.35525e-20 0.000953873 0.0126982 -0.0074825 -1.19007e-05
0.0208443 -1.35525e-20 0.00153528 0.000136345 -7.9823e-05 1.19671e-06
-0.0208443 2.71051e-20 0.00153531 0.0125872 -0.00742068 -9.14911e-06
0.0208065 -1.41172e-21 0.00198301 8.88241e-05 -5.0862e-05 2.32817e-06
-0.0208065 2.82344e-22 0.00198302 0.00881405 -0.0054156 8.56463e-05
0.0209014 -6.77626e-21 0.00232595 0 0 0
-0.0209014 6.77626e-21 0.00232594 0 0 0
0.0210643 -1.35525e-20 9.1532e-05 1.0444e-06 -5.34886e-07 -4.20073e-08
-0.0210643 0 9.15048e-05 0.00234004 -0.00131433 -7.18412e-07
0.021067 1.35525e-20 7.81651e-08 0 0 0
-0.021067 0 7.81689e-08 0 0 0
-0.0209629 4.06576e-20 0.00234223 0 0 0
0.0209629 -6.77626e-21 0.00234225 0 0 0
-0.0210006 -6.77626e-21 0.00235224 0 0 0
0.0210006 0 0.00235226 0 0 0
-0.0211368 1.35525e-20 7.77042e-08 0 0 0
0.0211368 0 7.76997e-08 0 0 0
-0.021129 -9.03502e-21 0.00122302 0.0159937 -0.00951351 3.77548e-05
0.021129 -4.51751e-21 0.00122304 0.000158423 -9.33537e-05 8.48782e-09
-0.0211316 -1.16165e-20 0.00168768 0.0144101 -0.00865133 8.78222e-05
0.0211316 -5.80823e-21 0.00168768 0.000155866 -9.25522e-05 -1.89284e-06
-0.0210928 -3.38813e-21 0.00225831 0.00383876 -0.00221287 7.58933e-05
0.0210928 3.38813e-21 0.0022583 4.16393e-05 -2.3861e-05 -1.11669e-06
-0.0212074 -2.25875e-21 0.000639305 0.0123881 -0.007346 1.40116e-05
0.0212074 4.51751e-21 0.000639333 8.17132e-05 -4.84263e-05 7.91421e-07
-0.0212432 1.35525e-20 6.9493e-08 0 0 0
0.0212432 0 6.94858e-08 0 0 0
-0.0212484 0 0.000106497 0.00325355 -0.00191166 1.37001e-06
0.0212484 -6.77626e-21 0.000106548 1.20292e-06 -7.50222e-07 5.56677e-08
-0.0211906 0 0.00240258 0 0 0
0.0211906 0 0.00240261 0 0 0
0.0213439 5.64689e-21 0.0020251 0.000140919 -8.1021e-05 -2.82305e-06
-0.0213439 -4.51751e-21 0.00202507 0.0129352 -0.0074664 0.000185765
-0.021371 0 0.00245037 0 0 0
0.021371 -6.77626e-21 0.00245038 0 0 0
-0.0213837 0 0.00242601 0.00109523 -0.00063646 1.95955e-05
0.0213837 0 0.00242602 1.37657e-05 -8.64746e-06 -2.39239e-07
-0.0214676 -6.77626e-21 0.00151459 0.0200461 -0.0117135 2.61509e-05
0.0214676 -9.03502e-21 0.00151465 0.000211636 -0.000121684 -1.73388e-06
-0.0215176 1.35525e-20 0.000962569 0.0190534 -0.0111569 3.97428e-05
0.0215177 6.77626e-21 0.000962662 0.000170391 -9.77638e-05 -1.17916e-06
-0.0215442 1.0842e-20 0.000394958 0.0102573 -0.00601287 1.75672e-05
0.0215442 -5.42101e-21 0.000395018 3.00508e-05 -1.79672e-05 2.06476e-07
0.0214146 0 0.00239563 2.22276e-05 -1.27875e-05 -1.11956e-07
-0.0214146 0 0.00239562 0.00201826 -0.00117029 3.77917e-06
0.0214166 -6.77626e-21 0.00246246 0 0 0
-0.0214166 -2.71051e-20 0.00246245 0 0 0
0.0216582 1.35525e-20 0.000128741 1.45429e-06 -9.06991e-07 6.73003e-08
-0.0216582 0 0.000128718 0.0039346 -0.00231182 1.65678e-06
0.0216619 -1.35525e-20 1.14562e-08 0 0 0
-0.021662 0 1.14549e-08 0 0 0
-0.0217415 -2.71051e-20 0.000612322 0.0152983 -0.00884718 2.92296e-05
0.0217415 0 0.000612439 9.97937e-05 -5.86189e-05 1.86306e-07
-0.021737 0 0.00121881 0.021903 -0.0127935 1.30367e-05
0.021737 0 0.00121894 0.000216927 -0.000126616 -7.51413e-07
0.021641 0 0.0025219 0 0 0
-0.021641 0 0.00252189 0 0 0
0.02179 1.35525e-20 2.38075e-09 0 0 0
-0.02179 1.35525e-20 2.38045e-09 0 0 0
-0.02171 -2.71051e-20 0.0018706 0.0178708 -0.0104609 1.96205e-05
0.02171 -2.71051e-20 0.00187066 0.00019603 -0.000114102 -1.85895e-06
0.0216778 1.8823e-21 0.00229009 0.000113171 -6.038e-05 -2.11448e-06
-0.0216778 -3.76459e-22 0.00229005 0.0094746 -0.005443 0.000139212
-0.0219185 0 2.30219e-09 0 0 0
0.0219185 -1.35525e-20 2.30245e-09 0 0 0
-0.0219202 1.35525e-20 0.000137029 0.00487634 -0.00282905 4.43036e-06
0.0219202 0 0.000137066 1.54019e-06 -9.25882e-07 -1.48822e-08
-0.0218192 0 0.00256913 0 0 0
0.0218192 0 0.00256913 0 0 0
-0.0219845 5.42101e-21 0.00039594 0.0115206 -0.00666917 1.45742e-05
0.0219845 5.42101e-21 0.000396027 2.89315e-05 -1.71528e-05 1.03882e-07
0.0219638 0 0.00229016 0.000140126 -7.97731e-05 -9.90409e-07
-0.0219638 1.12938e-21 0.00229013 0.0118524 -0.00699654 0.000172832
-0.022074 0 0.000916488 0.0233512 -0.0135093 -1.86132e-05
0.022074 -2.25875e-21 0.000916652 0.000201765 -0.000117478 -3.79766e-07
0.0219561 -1.35525e-20 0.0025286 3.91501e-05 -2.20922e-05 -3.99652e-07
-0.0219561 0 0.00252859 0.00354735 -0.00203203 4.93026e-05
-0.0220578 0 0.00154542 0.0261288 -0.0151735 -7.40592e-05
0.0220578 -2.25875e-21 0.00154554 0.000274447 -0.000159062 1.01001e-06
0.0219647 6.77626e-21 0.00260764 0 0 0
-0.0219647 -1.35525e-20 0.00260764 0 0 0
-0.0220662 4.51751e-21 0.00204922 0.018569 -0.0109434 0.000128795
0.0220662 -4.51751e-21 0.00204927 0.000213856 -0.000122501 -6.64713e-07
0.0222375 -1.35525e-20 0.000149298 1.67762e-06 -1.0085e-06 -1.62101e-08
-0.0222375 0 0.000149261 0.00531161 -0.00308158 4.82582e-06
0.0222467 0 3.22502e-09 0 0 0
-0.0222467 1.35525e-20 3.22489e-09 0 0 0
0.0221408 1.89735e-20 0.00250166 7.95761e-05 -4.63368e-05 -5.6414e-07
-0.0221408 -5.42101e-21 0.00250165 0.00688175 -0.0040548 0.000141373
-0.0221237 -1.35525e-20 0.00264976 0 0 0
0.0221238 0 0.00264976 0 0 0
-0.0223263 -1.93608e-20 0.000544368 0.0157819 -0.00912624 -1.10157e-05
0.0223263 7.7443e-21 0.000544521 7.80814e-05 -4.50256e-05 -2.26332e-07
-0.0223861 1.35525e-20 3.11769e-09 0 0 0
0.0223861 1.35525e-20 3.11777e-09 0 0 0
-0.0223888 0 0.00123026 0.0282872 -0.0163391 -3.53842e-05
0.0223888 2.71051e-20 0.00123046 0.000273387 -0.000157692 -4.38891e-08
-0.0223621 0 0.00189307 0.0242486 -0.0141032 3.56103e-05
0.0223621 0 0.00189318 0.000265307 -0.000153424 -1.93427e-08
0.022297 0 0.00269561 0 0 0
-0.022297 1.35525e-20 0.00269561 0 0 0
0.0223597 2.11758e-22 0.00232885 0.00017512 -0.000101429 -2.38171e-07
-0.0223597 7.05861e-23 0.00232881 0.0150648 -0.00882344 0.000105016
-0.0225373 -1.35525e-20 3.03035e-09 0 0 0
0.0225373 0 3.03039e-09 0 0 0
-0.0225385 0 0.000146287 0.0057642 -0.00332778 -2.53735e-05
0.0225385 1.35525e-20 0.000146333 1.71351e-06 -9.97649e-07 5.70879e-08
-0.0227012 -2.25875e-21 0.000916023 0.0278372 -0.016007 -4.90496e-05
0.0227012 6.77626e-21 0.000916234 0.000237075 -0.000137305 -7.58258e-07
-0.0226844 -4.51751e-21 0.00155903 0.0324427 -0.0186918 -4.90745e-07
0.0226844 2.25875e-21 0.00155921 0.000333355 -0.000192686 -3.89463e-08
-0.0227492 -9.03502e-21 0.000352645 0.0120836 -0.00698205 -3.11204e-05
0.0227492 4.51751e-21 0.000352762 3.43987e-05 -1.98372e-05 -7.96508e-08
0.0226132 -1.2282e-20 0.00277935 0 0 0
-0.0226133 1.82112e-20 0.00277937 0 0 0
-0.0226206 1.52466e-20 0.00278132 0 0 0
0.0226206 -9.74088e-21 0.00278132 0 0 0
-0.0227194 6.77626e-21 0.00213973 0.0241536 -0.0140155 3.36196e-05
0.0227194 -9.03502e-21 0.00213981 0.000273114 -0.000156394 9.52654e-08
-0.0226786 0 0.00257495 0.0109386 -0.00638897 -0.000103114
0.0226786 0 0.00257497 0.000122071 -6.81444e-05 1.47142e-06
-0.0228459 1.35525e-20 3.06872e-09 0 0 0
0.0228459 0 3.06855e-09 0 0 0
-0.0230054 -2.71051e-20 2.97301e-09 0 0 0
0.0230055 2.71051e-20 2.97281e-09 0 0 0
-0.0230123 2.71051e-20 0.000601967 0.02133 -0.0122853 1.61874e-05
0.0230123 0 0.000602177 0.00013497 -7.81614e-05 -8.34563e-07
-0.023008 0 0.00123165 0.0335716 -0.0193493 -9.24307e-06
0.023008 0 0.0012319 0.000322752 -0.000186326 -9.4627e-07
-0.0229679 2.71051e-20 0.00191396 0.0303028 -0.0174917 1.20488e-06
0.0229679 5.42101e-20 0.0019141 0.000330636 -0.000189874 -5.64625e-07
0.0229069 -2.71051e-20 0.00285715 0 0 0
-0.0229069 0 0.00285715 0 0 0
-0.0230246 -2.71051e-20 0.0024179 0.0197306 -0.011446 5.24575e-05
0.0230246 2.71051e-20 0.00241795 0.000227272 -0.000130056 -4.88943e-07
-0.0231706 2.71051e-20 2.61999e-09 0 0 0
0.0231707 -1.35525e-20 2.6198e-09 0 0 0
-0.0232775 -6.77626e-21 0.000961767 0.0324904 -0.018683 3.35944e-05
0.0232775 4.51751e-21 0.000962019 0.00028236 -0.000163489 -1.87328e-06
-0.0231303 1.35525e-20 0.00291661 0 0 0
0.0231303 4.06576e-20 0.00291662 0 0 0
-0.0233249 6.77626e-21 0.000300575 0.0118928 -0.00683358 4.32985e-05
0.023325 2.25875e-21 0.000300687 3.10518e-05 -1.78834e-05 -7.00855e-08
-0.0233201 0 0.00155413 0.0380197 -0.0219445 -1.75569e-05
0.0233201 1.12938e-20 0.00155433 0.000392717 -0.000226239 -8.49666e-07
-0.0233275 4.51751e-21 0.00215862 0.0306408 -0.0177488 -4.00311e-05
0.0233275 1.58113e-20 0.00215872 0.000345497 -0.000198699 -7.1093e-07
-0.0232742 1.12938e-21 0.00268392 0.0141747 -0.00857743 8.13531e-05
0.0232742 1.807e-21 0.00268395 0.000153352 -9.36393e-05 -8.29924e-08
-0.023471 0 1.49916e-09 0 0 0
0.023471 0 1.49905e-09 0 0 0
0.0233563 -6.77626e-21 0.0029773 0 0 0
-0.0233564 -6.77626e-21 0.00297732 0 0 0
-0.0236362 -2.71051e-20 1.14287e-09 0 0 0
0.0236362 -2.71051e-20 1.14277e-09 0 0 0
-0.0236942 -6.77626e-21 0.000643529 0.0254483 -0.0145673 9.88841e-06
0.0236943 0 0.000643725 0.000172614 -9.97175e-05 -1.32353e-06
-0.0235255 -5.42101e-20 0.00302244 0 0 0
0.0235255 1.35525e-20 0.00302244 0 0 0
-0.0236289 2.71051e-20 0.00246429 0.0246527 -0.0142511 5.41836e-05
0.0236289 0 0.00246434 0.000284107 -0.00016372 -3.73741e-07
-0.0237458 -4.51751e-21 0.00121852 0.0394324 -0.022656 -2.64571e-05
0.0237458 -4.51751e-21 0.00121876 0.000377028 -0.000216949 -1.36599e-06
0.023712 3.67854e-20 0.00179082 0.000430148 -0.00024671 -2.74215e-07
-0.023712 1.54886e-20 0.00179064 0.0404043 -0.0233034 -3.12664e-05
-0.0238007 1.35525e-20 1.02427e-09 0 0 0
0.0238007 1.35525e-20 1.02417e-09 0 0 0
-0.0236242 0 0.00304884 0 0 0
0.0236242 0 0.00304886 0 0 0
-0.0238637 8.13152e-21 0.000205193 0.00902563 -0.00512124 -3.21644e-06
0.0238637 1.0842e-20 0.000205258 2.58085e-06 -1.36913e-06 1.9689e-07
0.0238647 0 0.00216536 0.000411364 -0.000235873 3.44086e-07
-0.0238648 9.03502e-21 0.00216526 0.0368061 -0.0211817 -4.60861e-05
-0.0239679 -2.71051e-20 0.000897771 0.0369173 -0.0210898 -3.77849e-05
0.023968 0 0.00089799 0.000316568 -0.000181995 -2.72093e-06
-0.0239683 0 0.00153338 0.0452792 -0.0260428 -3.18804e-05
0.0239683 0 0.00153358 0.000467951 -0.000268262 -3.34179e-07
-0.0238625 -5.29396e-23 0.00276289 0.0184372 -0.0102968 7.30013e-05
0.0238638 5.29396e-23 0.00276308 0.000215456 -0.000124849 -1.27245e-07
-0.0238739 -4.23516e-21 0.00276895 0.0184643 -0.0102996 7.25563e-05
0.0238718 5.82335e-21 0.00276533 0.000215947 -0.000125044 -1.28568e-07
0.024114 0 6.40638e-10 0 0 0
-0.024114 0 6.40703e-10 0 0 0
-0.0241188 2.71051e-20 0.000144133 0.00663361 -0.0037645 -3.12798e-07
0.0241188 0 0.000144175 1.88787e-06 -9.92209e-07 1.55712e-07
0.023916 0 0.00312792 0 0 0
-0.0239161 0 0.00312794 0 0 0
-0.0239647 0 0.00314097 0 0 0
0.0239647 0 0.00314096 0 0 0
-0.0242749 0 5.21808e-10 0 0 0
0.0242749 0 5.21745e-10 0 0 0
-0.0242836 -4.51751e-21 0.000580904 0.0254411 -0.0145514 -3.00135e-05
0.0242836 2.25875e-21 0.000581052 0.000162562 -9.33303e-05 -7.91407e-07
-0.0242888 0 0.00120234 0.0428126 -0.0246298 -1.63033e-05
0.0242889 1.12938e-20 0.00120253 0.000408752 -0.000234938 -1.1378e-06
-0.0242868 -9.03502e-21 0.00186197 0.0445423 -0.025712 -6.58781e-05
0.0242869 0 0.00186211 0.000481978 -0.000276888 -1.19167e-07
-0.0241659 0 0.003195 0 0 0
0.0241661 1.69407e-21 0.00319503 0 0 0
0.0241862 4.23516e-22 0.00320043 0 0 0
-0.0241863 -4.23516e-22 0.00320044 0 0 0
0.0241881 5.50571e-21 0.00319265 5.87148e-06 -3.11868e-06 -4.99326e-08
-0.0241882 0 0.0031926 0.000464242 -0.000258023 5.52745e-06
-0.0244313 2.71051e-20 0.000134539 0.00640089 -0.00371965 -5.63421e-05
0.0244313 0 0.00013457 1.90075e-06 -9.79809e-07 -4.13725e-08
-0.0244331 0 4.67599e-10 0 0 0
0.0244331 0 4.67535e-10 0 0 0
-0.0243349 2.25875e-21 0.00249839 0.0313996 -0.018087 1.79303e-05
0.0243349 -4.51751e-21 0.00249847 0.000367251 -0.000210166 -7.45184e-07
0.0242974 4.51751e-21 0.0029262 0.000197215 -0.000108178 -1.71418e-06
-0.0242974 0 0.00292619 0.0155942 -0.00877864 0.00018642
-0.0243695 6.77626e-21 0.00315162 0.00547886 -0.00304512 6.52336e-05
0.0243695 0 0.00315166 6.97883e-05 -3.70686e-05 -5.93499e-07
-0.0246008 -2.71051e-20 0.000284661 0.0131693 -0.00758584 -7.79761e-05
0.0246009 0 0.000284725 3.87607e-06 -2.02051e-06 -8.00491e-08
-0.0243971 -6.77626e-21 0.00325796 0 0 0
0.0243971 -6.77626e-21 0.00325796 0 0 0
-0.0246107 -2.71051e-20 0.000878458 0.0395645 -0.0226785 8.56711e-06
0.0246107 2.71051e-20 0.000878612 0.000337516 -0.000193598 -6.49019e-07
-0.0246166 -2.71051e-20 0.00151509 0.0499965 -0.0290003 -4.84284e-06
0.0246166 0 0.00151523 0.000518582 -0.000298848 -8.68074e-07
0.0244715 -6.77626e-21 0.00314417 8.82534e-05 -4.95182e-05 -8.69683e-07
-0.0244715 0 0.00314413 0.00690482 -0.00391803 8.9548e-05
0.024504 -6.77626e-21 0.00290416 0.000233373 -0.000133051 -2.28476e-06
-0.024504 -3.38813e-21 0.00290416 0.0183819 -0.0104992 0.000239594
0.024478 -6.77626e-21 0.00323287 3.31041e-05 -1.80828e-05 -2.00074e-07
-0.024478 6.77626e-21 0.00323286 0.00268652 -0.00147006 4.91824e-05
0.0244844 6.77626e-21 0.00328126 0 0 0
-0.0244844 0 0.00328126 0 0 0
-0.0246093 0 0.00219408 0.0452035 -0.026116 -0.000171241
0.0246093 -5.42101e-20 0.00219416 0.000514595 -0.00029538 3.63691e-07
-0.0247622 -1.35525e-20 2.5336e-10 0 0 0
0.0247622 0 2.5332e-10 0 0 0
-0.0247664 1.35525e-20 0.000132487 0.0063033 -0.00366294 -5.5483e-05
0.0247664 2.71051e-20 0.000132517 1.87176e-06 -9.64864e-07 -4.07414e-08
0.0246224 -2.03288e-20 0.00297464 0.000219738 -0.00012725 -2.72939e-06
-0.0246224 -6.77626e-21 0.00297462 0.0167736 -0.00960903 0.000299545
-0.0249174 0 1.99007e-10 0 0 0
0.0249175 1.35525e-20 1.98966e-10 0 0 0
0.0247048 1.35525e-20 0.00334016 0 0 0
-0.0247048 0 0.00334016 0 0 0
-0.0249272 2.25875e-21 0.00056588 0.0265708 -0.0153993 -6.62138e-05
0.0249272 1.12938e-20 0.000565967 0.00017102 -9.50152e-05 -2.6559e-07
-0.0249353 9.03502e-21 0.00118332 0.0462248 -0.026771 -3.49314e-05
0.0249353 2.25875e-21 0.00118344 0.000443102 -0.000252233 -1.07398e-06
0.0247708 -1.35525e-20 0.00325092 7.58056e-05 -4.1408e-05 -4.58152e-07
-0.0247708 -1.35525e-20 0.00325093 0.00614934 -0.00336492 0.000112577
-0.0249332 -4.51751e-21 0.0018542 0.0501726 -0.02905 -0.00015072
0.0249332 0 0.00185429 0.000547861 -0.000315413 -7.15074e-07
-0.0249124 1.12938e-20 0.00254742 0.0363515 -0.0209743 -5.36779e-05
0.0249124 1.12938e-20 0.00254746 0.000433026 -0.000247901 -1.24061e-06
-0.02507 0 0.000129685 0.00624617 -0.00387406 -0.000119243
0.02507 0 0.000129701 1.93052e-06 -8.47196e-07 -2.09272e-07
-0.0250722 0 1.71469e-10 0 0 0
0.0250723 0 1.71434e-10 0 0 0
0.0248681 0 0.00338376 0 0 0
-0.0248681 -5.42101e-20 0.00338375 0 0 0
-0.024966 -1.807e-21 0.00300203 0.020867 -0.0119745 0.000131457
0.024966 -1.807e-21 0.00300205 0.000261888 -0.00014888 -2.41846e-06
-0.0252401 -2.71051e-20 0.000277338 0.0131361 -0.00797548 -0.000179883
0.0252401 0 0.000277376 3.95516e-06 -1.85263e-06 -3.78298e-07
-0.0252519 0 0.000862008 0.0417105 -0.0241501 -4.53575e-06
0.0252519 0 0.000862093 0.000355059 -0.00019158 1.2548e-07
-0.0252581 2.71051e-20 0.0015011 0.0541574 -0.0315666 -0.000143965
0.0252581 0 0.00150118 0.000567934 -0.000328492 -2.96874e-06
-0.025094 0 0.00344393 0 0 0
0.025094 2.03288e-20 0.00344395 0 0 0
-0.0252522 0 0.00218233 0.0519085 -0.0298629 -0.000279314
0.0252522 -5.42101e-20 0.00218237 0.000595403 -0.000341882 5.81611e-07
-0.0253959 0 6.82351e-11 0 0 0
0.0253959 0 6.82188e-11 0 0 0
-0.0254017 -1.35525e-20 0.000130113 0.00626681 -0.00388686 -0.000119637
0.0254017 -1.35525e-20 0.000130131 1.93692e-06 -8.50004e-07 -2.09966e-07
-0.0252838 0 0.00277254 0.034677 -0.0200305 -6.06073e-05
0.0252839 0 0.00277257 0.000431185 -0.000247035 -2.35953e-06
-0.0252273 0 0.00330818 0.00995589 -0.00574474 4.44788e-05
0.0252273 0 0.00330821 0.00012248 -7.0712e-05 -1.29103e-06
-0.0252595 6.77626e-21 0.00348812 0 0 0
0.0252596 6.77626e-21 0.00348815 0 0 0
-0.0255539 0 4.13675e-11 0 0 0
0.0255539 2.71051e-20 4.13565e-11 0 0 0
-0.0255655 -2.25875e-21 0.000552596 0.027423 -0.0161833 -5.81209e-05
0.0255655 2.25875e-21 0.000552632 0.000175985 -9.45728e-05 -1.08207e-07
-0.0255758 2.25875e-21 0.00116683 0.0491075 -0.0286325 -0.000157891
0.0255758 -4.51751e-21 0.00116688 0.000472982 -0.000265965 -9.71343e-07
-0.0255762 -2.25875e-21 0.00183976 0.0555615 -0.0321958 -0.000304465
0.0255763 0 0.0018398 0.000612715 -0.000352563 -6.94808e-07
-0.0255827 -2.25875e-21 0.00249854 0.0463664 -0.0267383 -0.000259917
0.0255827 -4.51751e-21 0.00249856 0.000551385 -0.000316362 -3.43321e-07
-0.0257081 1.35525e-20 0.000131339 0.00652105 -0.00415233 2.1376e-05
0.0257081 2.71051e-20 0.000131348 2.05078e-06 -9.96937e-07 -2.6946e-07
-0.0257119 -2.71051e-20 3.51853e-11 0 0 0
0.0257119 0 3.51759e-11 0 0 0
-0.0254803 -1.35525e-20 0.00354694 0 0 0
0.0254804 1.35525e-20 0.00354697 0 0 0
-0.0255732 -1.12938e-21 0.00306848 0.0263783 -0.0152424 -0.000114703
0.0255733 0 0.0030685 0.000329631 -0.000189436 -1.34799e-06
-0.0258709 2.71051e-20 0.000270934 0.0133333 -0.00828868 4.47929e-05
0.0258709 2.71051e-20 0.000270944 4.04822e-06 -2.04802e-06 -4.30405e-07
-0.0258866 -2.71051e-20 0.000846945 0.0433754 -0.0254502 -7.8019e-05
0.0258867 0 0.00084698 0.000363941 -0.000195793 4.69774e-07
-0.0258956 -5.42101e-20 0.00148553 0.0577643 -0.0337058 -0.000413549
0.0258957 -2.71051e-20 0.00148556 0.000613463 -0.000352875 -1.47517e-06
-0.025711 0 0.0036084 0 0 0
0.025711 -1.35525e-20 0.0036084 0 0 0
-0.0258953 5.42101e-20 0.00216695 0.0586848 -0.0338204 -0.000382119
0.0258954 0 0.00216699 0.000676428 -0.000388543 1.00267e-06
-0.0260182 1.35525e-20 1.4385e-11 0 0 0
0.0260182 -1.35525e-20 1.43834e-11 0 0 0
-0.0257708 1.01644e-20 0.00362432 0 0 0
0.025771 -1.01644e-20 0.00362438 0 0 0
0.0260277 1.35525e-20 0.000129333 2.01932e-06 -9.81646e-07 -2.65327e-07
-0.0260277 1.35525e-20 0.000129319 0.00642077 -0.00408848 2.10473e-05
-0.0258188 4.51751e-21 0.00342146 0.0126816 -0.00731916 -7.96454e-05
0.0258189 -4.51751e-21 0.00342152 0.000167079 -9.73479e-05 -9.21731e-07
-0.0259037 0 0.00281559 0.0423014 -0.0244479 -0.000340258
0.0259038 2.71051e-20 0.0028156 0.000524757 -0.00030098 -3.98734e-07
-0.0261762 2.71051e-20 8.34289e-12 0 0 0
0.0261762 0 8.34292e-12 0 0 0
-0.0261907 6.77626e-21 0.000536235 0.027996 -0.0165498 7.91488e-05
0.0261907 4.51751e-21 0.000536244 0.00017453 -9.59548e-05 -2.8779e-07
-0.0262092 -7.90564e-21 0.00114363 0.051324 -0.029994 -0.000284096
0.0262093 1.12938e-21 0.00114365 0.000493187 -0.000279193 -1.14224e-07
-0.0260128 0 0.00368882 0 0 0
0.026013 -1.35525e-20 0.00368885 0 0 0
-0.026215 1.12938e-21 0.00181908 0.0604126 -0.0349531 -0.000467236
0.026215 0 0.0018191 0.000674506 -0.000385656 8.59593e-07
-0.0263228 -1.35525e-20 0.000121177 0.00634944 -0.00378168 0.000344167
0.0263228 1.35525e-20 0.000121199 1.928e-06 -1.25066e-06 1.37106e-07
-0.0263263 1.35525e-20 7.18223e-12 0 0 0
0.0263263 -2.71051e-20 7.1822e-12 0 0 0
-0.0262139 1.12938e-21 0.00250529 0.0534206 -0.0307025 -0.00047153
0.026214 -3.38813e-21 0.0025053 0.000643116 -0.000366497 7.85001e-07
-0.0261378 -2.71051e-20 0.00372349 0 0 0
0.0261379 -1.35525e-20 0.00372351 0 0 0
-0.0261644 4.06576e-20 0.00360602 0.0082696 -0.00441698 -1.21675e-05
0.0261645 -1.35525e-20 0.00360608 0.000116332 -6.08615e-05 -1.22867e-06
-0.0262302 -1.50584e-21 0.0032085 0.0286768 -0.0163979 -0.000211352
0.0262302 1.8823e-21 0.00320851 0.000374109 -0.000212364 -5.32721e-07
-0.0264875 0 0.000258943 0.0134311 -0.00790224 0.000506883
0.0264876 0 0.000258951 4.03459e-06 -2.49587e-06 2.96258e-07
-0.0265116 0 0.000819231 0.0441347 -0.0259427 -0.000133116
0.0265116 0 0.000819229 0.000353716 -0.000199739 -1.17111e-06
-0.0265313 0 0.00145474 0.0606595 -0.0352482 -0.000517813
0.0265313 2.71051e-20 0.00145476 0.000651709 -0.000374531 2.02294e-06
-0.026307 0 0.00376734 0 0 0
0.026307 -6.77626e-21 0.00376734 0 0 0
-0.0265288 0 0.00214917 0.0645834 -0.0370708 -0.000563616
0.0265289 0 0.00214918 0.000756308 -0.000426956 1.99568e-06
0.0266623 1.35525e-20 2.30473e-12 0 0 0
-0.0266624 -1.35525e-20 2.30271e-12 0 0 0
0.0266707 -1.35525e-20 0.000106431 1.69308e-06 -1.09827e-06 1.204e-07
-0.0266707 -1.35525e-20 0.000106394 0.00557486 -0.00332035 0.000302181
-0.0265278 0 0.00283317 0.0498013 -0.0284243 -0.000617451
0.0265278 -2.71051e-20 0.00283318 0.00063288 -0.000359438 7.33218e-07
-0.0264226 0 0.00379806 0 0 0
0.0264228 6.77626e-21 0.00379808 0 0 0
-0.0265365 -2.82344e-21 0.00359658 0.0133326 -0.00756478 0.000200542
0.0265365 1.69407e-21 0.00359658 0.000203813 -0.000117044 -9.35904e-07
-0.0267959 -1.35525e-20 1.18602e-12 0 0 0
0.0267959 0 1.1879e-12 0 0 0
-0.0268045 -1.12938e-21 0.0005015 0.0273447 -0.0159174 0.000157238
0.0268045 -3.38813e-21 0.000501498 0.000157949 -9.54306e-05 1.81144e-06
-0.0268426 1.12938e-21 0.00108827 0.0520446 -0.0303899 -0.000345073
0.0268426 -2.25875e-21 0.00108827 0.000490794 -0.000287938 4.44161e-06
-0.0269065 1.35525e-20 8.39063e-05 0.00488844 -0.00276846 0.000358342
0.0269065 0 8.3937e-05 9.66312e-07 -6.8721e-07 5.87905e-07
-0.0269105 2.71051e-20 1.09878e-12 0 0 0
0.0269105 0 1.1004e-12 0 0 0
-0.0268569 0 0.00177521 0.064596 -0.0374413 -0.000608671
0.0268569 -5.64689e-22 0.00177521 0.00072614 -0.000414597 4.44373e-06
-0.0268455 1.12938e-21 0.00249636 0.0604604 -0.0347082 -0.000696614
0.0268456 -1.12938e-21 0.00249637 0.000736619 -0.000416752 2.05958e-06
-0.0268309 1.807e-21 0.00322447 0.0356242 -0.0202976 -0.00034588
0.0268309 9.48677e-21 0.00322448 0.000475745 -0.000271435 3.96313e-07
0.0267577 8.47033e-22 0.00386138 2.15096e-05 -1.25213e-05 -1.0377e-07
-0.0267577 0 0.00386154 0.00136187 -0.000781792 3.15338e-05
-0.0267686 0 0.00388947 0 0 0
0.0267686 0 0.00388946 0 0 0
-0.0267817 0 0.00389295 0 0 0
0.0267818 0 0.00389296 0 0 0
-0.0267895 -1.69407e-21 0.00389519 0 0 0
0.0267897 0 0.00389521 0 0 0
-0.0267977 0 0.00388306 0.000861768 -0.000492736 8.03608e-06
0.0267979 0 0.00388302 1.34665e-05 -8.30744e-06 -1.47459e-07
-0.0268077 8.47033e-22 0.00390073 0 0 0
0.0268079 -1.01644e-20 0.00390078 0 0 0
-0.0270953 0 0.00023099 0.0128776 -0.00720291 0.000453426
0.0270953 -2.71051e-20 0.000230989 3.06874e-06 -2.19757e-06 1.14545e-06
-0.0271307 2.71051e-20 0.000745242 0.0413064 -0.0240682 -0.000172023
0.0271307 2.71051e-20 0.000745245 0.000299523 -0.000194695 7.08223e-06
-0.0271876 0 0.00136721 0.0623552 -0.0364306 -0.000554856
0.0271876 0 0.00136721 0.000663107 -0.000386737 1.02195e-05
-0.02717 2.71051e-20 0.00211415 0.0707649 -0.0410021 -0.000810412
0.02717 0 0.00211415 0.000831212 -0.000469553 4.20669e-06
-0.0270374 -9.68038e-21 0.00364688 0.0199467 -0.0113111 -2.11009e-05
0.0270374 -1.93608e-21 0.00364689 0.00029619 -0.000175572 -8.09193e-07
-0.0271535 0 0.00283769 0.0579059 -0.0330438 -0.000810241
0.0271535 -2.71051e-20 0.0028377 0.000737967 -0.000417594 1.57484e-06
0.0273865 -6.02335e-21 0.0004332 0.000108107 -6.64391e-05 6.46621e-07
-0.0273866 -1.50584e-21 0.000433203 0.024293 -0.0139698 -8.58489e-05
-0.0272025 -1.35525e-20 0.00404241 0 0 0
0.0272025 0 0.00404243 0 0 0
0.0275127 0 2.93966e-06 1.4624e-08 -5.70225e-09 -1.49529e-08
-0.0275208 4.23516e-22 1.06317e-13 8.51515e-05 -4.79063e-05 3.24222e-06
-0.0275278 4.23516e-22 1.05538e-13 0 0 0
0.027528 -4.23516e-22 1.05132e-13 0 0 0
-0.0275176 -4.14105e-21 0.000876077 0.0440929 -0.0258458 -0.000283837
0.0275176 -2.44698e-21 0.00087607 0.000376243 -0.000220402 3.12855e-06
-0.0275406 0 1.8613e-05 0.00120445 -0.00071782 -1.78687e-05
0.027541 0 1.89803e-05 -3.72802e-08 -3.21467e-07 2.91221e-07
-0.0272667 1.35525e-20 0.00395781 0.00693751 -0.0038773 -0.000103958
0.0272668 -2.71051e-20 0.00395784 9.63389e-05 -5.34001e-05 1.39226e-06
0.0275129 -7.05861e-23 0.00171283 0.000765175 -0.000439847 5.40679e-06
-0.0275266 -1.41172e-22 0.00170612 0.0678561 -0.0396025 -0.000690989
-0.0274757 3.38813e-21 0.00247994 0.0670807 -0.0387238 -0.000983634
0.0274757 -2.25875e-21 0.00247995 0.000827075 -0.000469863 4.00672e-06
-0.0274313 2.25875e-21 0.00322709 0.0443622 -0.0252381 -0.000715945
0.0274313 0 0.0032271 0.000601299 -0.000341395 1.13081e-06
-0.0273527 1.35525e-20 0.00409792 0 0 0
0.0273528 1.35525e-20 0.00409794 0 0 0
-0.0274774 1.12938e-21 0.00369772 0.0253152 -0.0143401 -0.000288722
0.0274774 1.12938e-21 0.00369774 0.000365798 -0.000207095 -4.85527e-07
-0.0278217 0 0.00130219 0.0630034 -0.0369842 -0.000322566
0.0278218 -2.71051e-20 0.00130219 0.000679604 -0.000396773 1.53023e-06
-0.0277987 0 0.00208828 0.0760604 -0.0444191 -0.00106935
0.0277987 -2.71051e-20 0.00208828 0.000898553 -0.000513371 6.23391e-06
-0.0278795 -3.76459e-21 0.000330555 0.0205305 -0.0121883 -0.000297454
0.0278795 0 0.000330552 1.66888e-05 -1.38295e-05 3.98935e-06
-0.0275673 -1.69407e-20 0.00417883 0 0 0
0.0275674 1.69407e-20 0.00417885 0 0 0
-0.0277779 0 0.0028342 0.0644114 -0.0369304 -0.00125267
0.027778 0 0.00283422 0.000847686 -0.000483042 4.1368e-06
-0.0276683 -3.38813e-21 0.00421687 0 0 0
0.0276684 1.01644e-20 0.00421691 0 0 0
-0.0277108 0 0.00403356 0.0110941 -0.00637451 -7.22625e-05
0.0277109 0 0.00403359 0.00016852 -9.60789e-05 -5.24337e-07
-0.0278036 -2.71051e-20 0.00346787 0.0415459 -0.0234197 -0.000862005
0.0278037 2.71051e-20 0.00346788 0.000595081 -0.000335013 -1.27876e-06
0.0280306 1.35525e-20 3.72316e-14 0 0 0
-0.0280306 1.35525e-20 3.73072e-14 0 0 0
-0.0281597 -3.61401e-21 0.000826379 0.0433533 -0.0257918 -0.00041726
0.0281598 1.35525e-21 0.000826365 0.000360345 -0.000200456 -1.78669e-07
-0.0281239 3.38813e-22 0.00170643 0.0714606 -0.0417552 -0.000880108
0.0281239 -4.51751e-22 0.00170641 0.00082231 -0.000470045 4.44955e-06
-0.0281926 2.71051e-20 2.34313e-14 0 0 0
0.0281927 -2.71051e-20 2.34156e-14 0 0 0
-0.0281037 -5.64689e-22 0.00246047 0.0732369 -0.0424152 -0.00126698
0.0281037 -5.64689e-22 0.00246047 0.000923252 -0.000526658 5.70665e-06
-0.0278976 0 0.00430333 0 0 0
0.0278978 1.35525e-20 0.00430337 0 0 0
-0.0280998 -3.95282e-21 0.00316536 0.0566312 -0.0321713 -0.00125061