# Force       
# CofR        : (0.000000e+00 0.000000e+00 0.000000e+00)
#
# Time        	(total_x total_y total_z)	(pressure_x pressure_y pressure_z)	(viscous_x viscous_y viscous_z)
1             	(1.493341e+00 3.654132e+00 -4.697537e+02)	(1.456691e+00 3.654247e+00 -4.697538e+02)	(3.665039e-02 -1.141498e-04 3.616157e-05)
2             	(1.364390e+00 3.630804e+00 -4.697460e+02)	(1.334952e+00 3.632449e+00 -4.697460e+02)	(2.943836e-02 -1.645663e-03 -5.281714e-05)
3             	(8.000694e-01 2.749282e+00 -4.697688e+02)	(7.750284e-01 2.751967e+00 -4.697687e+02)	(2.504102e-02 -2.684822e-03 -1.978457e-05)
4             	(-2.228089e-01 1.480504e+00 -4.698279e+02)	(-2.444384e-01 1.483845e+00 -4.698278e+02)	(2.162957e-02 -3.341098e-03 -5.077022e-05)
5             	(-9.423954e-01 1.170648e-01 -4.699168e+02)	(-9.630518e-01 1.201998e-01 -4.699169e+02)	(2.065634e-02 -3.135025e-03 1.952950e-05)
6             	(-1.118501e+00 -8.556599e-01 -4.699906e+02)	(-1.140021e+00 -8.530636e-01 -4.699907e+02)	(2.152018e-02 -2.596246e-03 1.019626e-04)
7             	(-9.443711e-01 -1.267278e+00 -4.700257e+02)	(-9.673459e-01 -1.265336e+00 -4.700258e+02)	(2.297475e-02 -1.942466e-03 1.626058e-04)
8             	(-6.044881e-01 -1.266284e+00 -4.700226e+02)	(-6.274963e-01 -1.265018e+00 -4.700228e+02)	(2.300819e-02 -1.265915e-03 2.111245e-04)
9             	(-1.179950e-01 -1.034650e+00 -4.700031e+02)	(-1.393740e-01 -1.033956e+00 -4.700033e+02)	(2.137902e-02 -6.942791e-04 2.508428e-04)
10            	(2.946870e-01 -5.171129e-01 -4.699782e+02)	(2.756496e-01 -5.166983e-01 -4.699785e+02)	(1.903740e-02 -4.146190e-04 2.670335e-04)
11            	(4.908124e-01 3.649607e-02 -4.699410e+02)	(4.743871e-01 3.683062e-02 -4.699413e+02)	(1.642526e-02 -3.345477e-04 2.708307e-04)
12            	(5.034634e-01 4.437874e-01 -4.699198e+02)	(4.895523e-01 4.441800e-01 -4.699200e+02)	(1.391113e-02 -3.926207e-04 2.345044e-04)
13            	(3.922908e-01 5.925064e-01 -4.699096e+02)	(3.803432e-01 5.930460e-01 -4.699098e+02)	(1.194760e-02 -5.396111e-04 1.811039e-04)
14            	(2.329470e-01 6.028314e-01 -4.699126e+02)	(2.221374e-01 6.035451e-01 -4.699128e+02)	(1.080951e-02 -7.136966e-04 1.396144e-04)
15            	(7.797061e-02 5.187830e-01 -4.699173e+02)	(6.758913e-02 5.196283e-01 -4.699174e+02)	(1.038147e-02 -8.453204e-04 1.241570e-04)
16            	(-3.414339e-02 3.493858e-01 -4.699231e+02)	(-4.451586e-02 3.502369e-01 -4.699233e+02)	(1.037247e-02 -8.510815e-04 1.256417e-04)
17            	(-8.326576e-02 1.910122e-01 -4.699274e+02)	(-9.383031e-02 1.917528e-01 -4.699276e+02)	(1.056455e-02 -7.406247e-04 1.227944e-04)
18            	(-8.802587e-02 2.972431e-02 -4.699232e+02)	(-9.875421e-02 3.030267e-02 -4.699233e+02)	(1.072834e-02 -5.783634e-04 1.267492e-04)
19            	(-5.024385e-02 4.810261e-03 -4.699224e+02)	(-6.101135e-02 5.222074e-03 -4.699226e+02)	(1.076750e-02 -4.118133e-04 1.242619e-04)
20            	(-4.915560e-03 -3.203611e-02 -4.699193e+02)	(-1.549462e-02 -3.176627e-02 -4.699195e+02)	(1.057906e-02 -2.698436e-04 1.158348e-04)
21            	(3.838287e-02 -2.585789e-02 -4.699108e+02)	(2.822443e-02 -2.568940e-02 -4.699109e+02)	(1.015844e-02 -1.684897e-04 1.032610e-04)
22            	(6.273815e-02 -4.966717e-03 -4.699093e+02)	(5.313137e-02 -4.861585e-03 -4.699094e+02)	(9.606787e-03 -1.051313e-04 9.311366e-05)
23            	(7.449601e-02 3.523263e-02 -4.699074e+02)	(6.544788e-02 3.530666e-02 -4.699074e+02)	(9.048127e-03 -7.402851e-05 8.400882e-05)
24            	(7.434082e-02 7.376868e-02 -4.699006e+02)	(6.577922e-02 7.383465e-02 -4.699006e+02)	(8.561607e-03 -6.597212e-05 7.446535e-05)
25            	(6.599426e-02 1.080548e-01 -4.698994e+02)	(5.781232e-02 1.081200e-01 -4.698995e+02)	(8.181943e-03 -6.518524e-05 6.342204e-05)
26            	(6.342877e-02 1.599355e-01 -4.698925e+02)	(5.550119e-02 1.600031e-01 -4.698925e+02)	(7.927587e-03 -6.764011e-05 5.432785e-05)
27            	(5.470915e-02 1.729033e-01 -4.698924e+02)	(4.695621e-02 1.729681e-01 -4.698925e+02)	(7.752941e-03 -6.478566e-05 4.674863e-05)
28            	(4.975682e-02 1.819757e-01 -4.698929e+02)	(4.213185e-02 1.820304e-01 -4.698929e+02)	(7.624963e-03 -5.467390e-05 4.470811e-05)
29            	(4.794477e-02 1.824739e-01 -4.698967e+02)	(4.043119e-02 1.825130e-01 -4.698968e+02)	(7.513581e-03 -3.915944e-05 4.709918e-05)
30            	(4.899080e-02 1.795454e-01 -4.699007e+02)	(4.159133e-02 1.795675e-01 -4.699007e+02)	(7.399471e-03 -2.209571e-05 5.274246e-05)
31            	(5.064524e-02 1.718925e-01 -4.699050e+02)	(4.337495e-02 1.719004e-01 -4.699051e+02)	(7.270290e-03 -7.930234e-06 5.989883e-05)
32            	(4.934315e-02 1.542078e-01 -4.699152e+02)	(4.222384e-02 1.542053e-01 -4.699153e+02)	(7.119311e-03 2.487399e-06 6.417617e-05)
33            	(5.083519e-02 1.434994e-01 -4.699164e+02)	(4.386807e-02 1.434933e-01 -4.699164e+02)	(6.967123e-03 6.118590e-06 6.689106e-05)
34            	(5.039300e-02 1.336642e-01 -4.699205e+02)	(4.358227e-02 1.336578e-01 -4.699206e+02)	(6.810728e-03 6.432782e-06 6.531043e-05)
35            	(4.844978e-02 1.241875e-01 -4.699239e+02)	(4.179275e-02 1.241824e-01 -4.699240e+02)	(6.657029e-03 5.072949e-06 6.022771e-05)
36            	(4.600626e-02 1.160464e-01 -4.699263e+02)	(3.949680e-02 1.160435e-01 -4.699264e+02)	(6.509462e-03 2.926386e-06 5.232851e-05)
37            	(4.416126e-02 1.100863e-01 -4.699264e+02)	(3.778831e-02 1.100865e-01 -4.699265e+02)	(6.372953e-03 -1.407911e-07 4.297276e-05)
38            	(4.273515e-02 1.060696e-01 -4.699266e+02)	(3.648836e-02 1.060738e-01 -4.699267e+02)	(6.246790e-03 -4.157173e-06 3.299898e-05)
39            	(4.135472e-02 1.009211e-01 -4.699289e+02)	(3.522699e-02 1.009309e-01 -4.699290e+02)	(6.127726e-03 -9.854046e-06 2.320467e-05)
40            	(4.082197e-02 9.728077e-02 -4.699310e+02)	(3.480707e-02 9.729856e-02 -4.699310e+02)	(6.014899e-03 -1.779352e-05 1.387631e-05)
41            	(4.101329e-02 9.497519e-02 -4.699326e+02)	(3.510614e-02 9.500328e-02 -4.699326e+02)	(5.907143e-03 -2.808257e-05 5.283575e-06)
42            	(4.167731e-02 9.383948e-02 -4.699338e+02)	(3.587373e-02 9.387990e-02 -4.699338e+02)	(5.803579e-03 -4.041789e-05 -2.293308e-06)
43            	(4.275956e-02 9.435295e-02 -4.699340e+02)	(3.705476e-02 9.440686e-02 -4.699339e+02)	(5.704798e-03 -5.391442e-05 -8.747148e-06)
44            	(4.381246e-02 9.585249e-02 -4.699342e+02)	(3.820283e-02 9.592029e-02 -4.699342e+02)	(5.609628e-03 -6.779448e-05 -1.401992e-05)
45            	(4.442735e-02 9.737053e-02 -4.699360e+02)	(3.891115e-02 9.745188e-02 -4.699360e+02)	(5.516202e-03 -8.135780e-05 -1.803872e-05)
46            	(4.492326e-02 9.970161e-02 -4.699378e+02)	(3.949764e-02 9.979524e-02 -4.699378e+02)	(5.425627e-03 -9.362622e-05 -2.090923e-05)
47            	(4.532398e-02 1.026204e-01 -4.699395e+02)	(3.998588e-02 1.027242e-01 -4.699395e+02)	(5.338099e-03 -1.038400e-04 -2.285900e-05)
48            	(4.566331e-02 1.057574e-01 -4.699409e+02)	(4.040956e-02 1.058690e-01 -4.699409e+02)	(5.253755e-03 -1.116320e-04 -2.406943e-05)
49            	(4.594702e-02 1.088404e-01 -4.699420e+02)	(4.077467e-02 1.089571e-01 -4.699420e+02)	(5.172357e-03 -1.166717e-04 -2.484222e-05)
50            	(4.620341e-02 1.117747e-01 -4.699429e+02)	(4.110993e-02 1.118936e-01 -4.699429e+02)	(5.093475e-03 -1.189461e-04 -2.549485e-05)
51            	(4.655231e-02 1.148613e-01 -4.699431e+02)	(4.153443e-02 1.149800e-01 -4.699430e+02)	(5.017888e-03 -1.186847e-04 -2.618204e-05)
52            	(4.688986e-02 1.178444e-01 -4.699432e+02)	(4.194451e-02 1.179604e-01 -4.699432e+02)	(4.945349e-03 -1.160343e-04 -2.699735e-05)
53            	(4.720392e-02 1.207124e-01 -4.699434e+02)	(4.232796e-02 1.208237e-01 -4.699433e+02)	(4.875958e-03 -1.112448e-04 -2.806144e-05)
54            	(4.732498e-02 1.230495e-01 -4.699441e+02)	(4.251607e-02 1.231541e-01 -4.699441e+02)	(4.808908e-03 -1.046411e-04 -2.939934e-05)
55            	(4.741516e-02 1.253712e-01 -4.699447e+02)	(4.267041e-02 1.254678e-01 -4.699447e+02)	(4.744746e-03 -9.659246e-05 -3.091334e-05)
56            	(4.744141e-02 1.275424e-01 -4.699452e+02)	(4.275771e-02 1.276296e-01 -4.699452e+02)	(4.683701e-03 -8.721165e-05 -3.243650e-05)
57            	(4.738210e-02 1.293782e-01 -4.699456e+02)	(4.275630e-02 1.294546e-01 -4.699456e+02)	(4.625801e-03 -7.641685e-05 -3.380922e-05)
58            	(4.729864e-02 1.310885e-01 -4.699459e+02)	(4.272751e-02 1.311525e-01 -4.699458e+02)	(4.571126e-03 -6.405415e-05 -3.484565e-05)
59            	(4.726858e-02 1.327540e-01 -4.699457e+02)	(4.274878e-02 1.328041e-01 -4.699456e+02)	(4.519802e-03 -5.013099e-05 -3.529099e-05)
60            	(4.724171e-02 1.344470e-01 -4.699454e+02)	(4.277029e-02 1.344815e-01 -4.699454e+02)	(4.471423e-03 -3.449565e-05 -3.497664e-05)
61            	(4.723394e-02 1.362094e-01 -4.699452e+02)	(4.280840e-02 1.362266e-01 -4.699452e+02)	(4.425534e-03 -1.726808e-05 -3.412286e-05)
62            	(4.725359e-02 1.380567e-01 -4.699450e+02)	(4.287181e-02 1.380557e-01 -4.699449e+02)	(4.381772e-03 1.054127e-06 -3.310672e-05)
63            	(4.729693e-02 1.399360e-01 -4.699448e+02)	(4.295733e-02 1.399161e-01 -4.699447e+02)	(4.339599e-03 1.992656e-05 -3.243276e-05)
64            	(4.736433e-02 1.418669e-01 -4.699446e+02)	(4.306604e-02 1.418280e-01 -4.699446e+02)	(4.298290e-03 3.895256e-05 -3.256509e-05)
65            	(4.744955e-02 1.437929e-01 -4.699445e+02)	(4.319211e-02 1.437352e-01 -4.699445e+02)	(4.257448e-03 5.772532e-05 -3.391464e-05)
66            	(4.754667e-02 1.456435e-01 -4.699445e+02)	(4.332994e-02 1.455677e-01 -4.699444e+02)	(4.216724e-03 7.579044e-05 -3.680928e-05)
67            	(4.766913e-02 1.475723e-01 -4.699445e+02)	(4.349321e-02 1.474795e-01 -4.699444e+02)	(4.175914e-03 9.278566e-05 -4.138007e-05)
68            	(4.779183e-02 1.493158e-01 -4.699445e+02)	(4.365682e-02 1.492074e-01 -4.699445e+02)	(4.135012e-03 1.083919e-04 -4.769043e-05)
69            	(4.791343e-02 1.508661e-01 -4.699446e+02)	(4.381915e-02 1.507437e-01 -4.699445e+02)	(4.094286e-03 1.224129e-04 -5.547019e-05)
70            	(4.803419e-02 1.522207e-01 -4.699447e+02)	(4.397992e-02 1.520859e-01 -4.699447e+02)	(4.054266e-03 1.347155e-04 -6.398275e-05)
71            	(4.815370e-02 1.533610e-01 -4.699449e+02)	(4.413867e-02 1.532157e-01 -4.699448e+02)	(4.015034e-03 1.453380e-04 -7.276987e-05)
72            	(4.826618e-02 1.542247e-01 -4.699452e+02)	(4.428973e-02 1.540704e-01 -4.699451e+02)	(3.976445e-03 1.543278e-04 -8.162760e-05)
73            	(4.835862e-02 1.546685e-01 -4.699454e+02)	(4.442014e-02 1.545069e-01 -4.699453e+02)	(3.938476e-03 1.616571e-04 -9.073379e-05)
74            	(4.844566e-02 1.549394e-01 -4.699458e+02)	(4.454473e-02 1.547721e-01 -4.699457e+02)	(3.900933e-03 1.673078e-04 -1.001435e-04)
75            	(4.851499e-02 1.549951e-01 -4.699462e+02)	(4.465142e-02 1.548240e-01 -4.699461e+02)	(3.863571e-03 1.711559e-04 -1.098075e-04)
76            	(4.855117e-02 1.547997e-01 -4.699466e+02)	(4.472495e-02 1.546266e-01 -4.699465e+02)	(3.826216e-03 1.730681e-04 -1.195473e-04)
77            	(4.853772e-02 1.542736e-01 -4.699470e+02)	(4.474906e-02 1.541007e-01 -4.699469e+02)	(3.788665e-03 1.729259e-04 -1.291445e-04)
78            	(4.846181e-02 1.533427e-01 -4.699475e+02)	(4.471100e-02 1.531721e-01 -4.699474e+02)	(3.750814e-03 1.706365e-04 -1.382745e-04)
79            	(4.830999e-02 1.519214e-01 -4.699479e+02)	(4.459737e-02 1.517553e-01 -4.699478e+02)	(3.712621e-03 1.661332e-04 -1.465015e-04)
80            	(4.807751e-02 1.499229e-01 -4.699483e+02)	(4.440346e-02 1.497634e-01 -4.699482e+02)	(3.674043e-03 1.595129e-04 -1.534789e-04)
81            	(4.779951e-02 1.476342e-01 -4.699487e+02)	(4.416434e-02 1.474831e-01 -4.699485e+02)	(3.635164e-03 1.510985e-04 -1.589780e-04)
82            	(4.749052e-02 1.451775e-01 -4.699489e+02)	(4.389435e-02 1.450362e-01 -4.699488e+02)	(3.596172e-03 1.413456e-04 -1.629488e-04)
83            	(4.717091e-02 1.427184e-01 -4.699491e+02)	(4.361352e-02 1.425875e-01 -4.699489e+02)	(3.557387e-03 1.308610e-04 -1.654046e-04)
84            	(4.685922e-02 1.404036e-01 -4.699492e+02)	(4.333997e-02 1.402833e-01 -4.699490e+02)	(3.519249e-03 1.203549e-04 -1.664573e-04)
85            	(4.656449e-02 1.383035e-01 -4.699492e+02)	(4.308224e-02 1.381929e-01 -4.699491e+02)	(3.482252e-03 1.105337e-04 -1.662898e-04)
86            	(4.631061e-02 1.365904e-01 -4.699492e+02)	(4.286417e-02 1.364888e-01 -4.699490e+02)	(3.446440e-03 1.016415e-04 -1.649624e-04)
87            	(4.607976e-02 1.351210e-01 -4.699491e+02)	(4.266793e-02 1.350272e-01 -4.699490e+02)	(3.411839e-03 9.384059e-05 -1.626176e-04)
88            	(4.587370e-02 1.339013e-01 -4.699490e+02)	(4.249510e-02 1.338141e-01 -4.699488e+02)	(3.378601e-03 8.725298e-05 -1.594430e-04)
89            	(4.569480e-02 1.329167e-01 -4.699488e+02)	(4.234805e-02 1.328348e-01 -4.699487e+02)	(3.346747e-03 8.196483e-05 -1.556116e-04)
90            	(4.554463e-02 1.321617e-01 -4.699486e+02)	(4.222837e-02 1.320837e-01 -4.699484e+02)	(3.316260e-03 7.796606e-05 -1.512520e-04)
91            	(4.543549e-02 1.317088e-01 -4.699483e+02)	(4.214853e-02 1.316336e-01 -4.699482e+02)	(3.286966e-03 7.527529e-05 -1.463706e-04)
92            	(4.538236e-02 1.316542e-01 -4.699480e+02)	(4.212355e-02 1.315803e-01 -4.699479e+02)	(3.258811e-03 7.388528e-05 -1.410152e-04)
93            	(4.543645e-02 1.317312e-01 -4.699474e+02)	(4.220445e-02 1.316574e-01 -4.699473e+02)	(3.232003e-03 7.382325e-05 -1.351310e-04)
94            	(4.556266e-02 1.322845e-01 -4.699468e+02)	(4.235635e-02 1.322094e-01 -4.699467e+02)	(3.206304e-03 7.512002e-05 -1.287274e-04)
95            	(4.578056e-02 1.334810e-01 -4.699461e+02)	(4.259912e-02 1.334032e-01 -4.699460e+02)	(3.181435e-03 7.781963e-05 -1.218363e-04)
96            	(4.594431e-02 1.349133e-01 -4.699459e+02)	(4.278757e-02 1.348315e-01 -4.699458e+02)	(3.156746e-03 8.184369e-05 -1.145593e-04)
97            	(4.614558e-02 1.366461e-01 -4.699457e+02)	(4.301325e-02 1.365589e-01 -4.699456e+02)	(3.132336e-03 8.723075e-05 -1.070587e-04)
98            	(4.650495e-02 1.389436e-01 -4.699451e+02)	(4.339621e-02 1.388495e-01 -4.699450e+02)	(3.108738e-03 9.404323e-05 -9.948061e-05)
99            	(4.674897e-02 1.411457e-01 -4.699449e+02)	(4.366375e-02 1.410437e-01 -4.699448e+02)	(3.085218e-03 1.020055e-04 -9.197824e-05)
100           	(4.697710e-02 1.431770e-01 -4.699448e+02)	(4.391513e-02 1.430660e-01 -4.699447e+02)	(3.061965e-03 1.110046e-04 -8.454459e-05)
101           	(4.721281e-02 1.453446e-01 -4.699446e+02)	(4.417391e-02 1.452235e-01 -4.699446e+02)	(3.038905e-03 1.210154e-04 -7.725368e-05)
102           	(4.744957e-02 1.475859e-01 -4.699445e+02)	(4.443369e-02 1.474539e-01 -4.699445e+02)	(3.015875e-03 1.319834e-04 -7.030245e-05)
103           	(4.768447e-02 1.498807e-01 -4.699445e+02)	(4.469181e-02 1.497369e-01 -4.699444e+02)	(2.992664e-03 1.437254e-04 -6.383615e-05)
104           	(4.790088e-02 1.520312e-01 -4.699444e+02)	(4.493172e-02 1.518754e-01 -4.699443e+02)	(2.969162e-03 1.558466e-04 -5.802536e-05)
105           	(4.809442e-02 1.540017e-01 -4.699443e+02)	(4.514905e-02 1.538338e-01 -4.699443e+02)	(2.945369e-03 1.679042e-04 -5.289694e-05)
106           	(4.822447e-02 1.552737e-01 -4.699443e+02)	(4.530308e-02 1.550942e-01 -4.699443e+02)	(2.921392e-03 1.794455e-04 -4.831936e-05)
107           	(4.832978e-02 1.563528e-01 -4.699443e+02)	(4.543247e-02 1.561627e-01 -4.699443e+02)	(2.897308e-03 1.900941e-04 -4.421517e-05)
108           	(4.840990e-02 1.572231e-01 -4.699443e+02)	(4.553660e-02 1.570236e-01 -4.699443e+02)	(2.873299e-03 1.995018e-04 -4.046426e-05)
109           	(4.846872e-02 1.579023e-01 -4.699443e+02)	(4.561923e-02 1.576948e-01 -4.699442e+02)	(2.849489e-03 2.074995e-04 -3.693620e-05)
110           	(4.850766e-02 1.583873e-01 -4.699442e+02)	(4.568166e-02 1.581733e-01 -4.699442e+02)	(2.825999e-03 2.139679e-04 -3.357701e-05)
111           	(4.853085e-02 1.586907e-01 -4.699442e+02)	(4.572788e-02 1.584718e-01 -4.699442e+02)	(2.802975e-03 2.188428e-04 -3.036899e-05)
112           	(4.854046e-02 1.588003e-01 -4.699441e+02)	(4.575994e-02 1.585782e-01 -4.699441e+02)	(2.780522e-03 2.220516e-04 -2.724977e-05)
113           	(4.854045e-02 1.587447e-01 -4.699441e+02)	(4.578174e-02 1.585211e-01 -4.699441e+02)	(2.758714e-03 2.235746e-04 -2.426737e-05)
114           	(4.853305e-02 1.585465e-01 -4.699441e+02)	(4.579540e-02 1.583231e-01 -4.699441e+02)	(2.737653e-03 2.233538e-04 -2.144673e-05)
115           	(4.851999e-02 1.582342e-01 -4.699441e+02)	(4.580251e-02 1.580129e-01 -4.699441e+02)	(2.717480e-03 2.213706e-04 -1.886532e-05)
116           	(4.850345e-02 1.578433e-01 -4.699441e+02)	(4.580515e-02 1.576257e-01 -4.699441e+02)	(2.698309e-03 2.176514e-04 -1.657104e-05)
117           	(4.848877e-02 1.574450e-01 -4.699441e+02)	(4.580852e-02 1.572327e-01 -4.699441e+02)	(2.680253e-03 2.122914e-04 -1.469234e-05)
118           	(4.847302e-02 1.570347e-01 -4.699442e+02)	(4.580958e-02 1.568293e-01 -4.699441e+02)	(2.663438e-03 2.053918e-04 -1.330482e-05)
119           	(4.844962e-02 1.565874e-01 -4.699442e+02)	(4.580168e-02 1.563902e-01 -4.699442e+02)	(2.647935e-03 1.971513e-04 -1.246880e-05)
120           	(4.841415e-02 1.561128e-01 -4.699443e+02)	(4.578044e-02 1.559250e-01 -4.699443e+02)	(2.633705e-03 1.877886e-04 -1.222506e-05)
121           	(4.836173e-02 1.556212e-01 -4.699444e+02)	(4.574114e-02 1.554436e-01 -4.699443e+02)	(2.620588e-03 1.775989e-04 -1.258787e-05)
122           	(4.828747e-02 1.551226e-01 -4.699444e+02)	(4.567908e-02 1.549557e-01 -4.699444e+02)	(2.608392e-03 1.669079e-04 -1.349080e-05)
123           	(4.818786e-02 1.546153e-01 -4.699445e+02)	(4.559093e-02 1.544592e-01 -4.699445e+02)	(2.596929e-03 1.560306e-04 -1.473780e-05)
124           	(4.806233e-02 1.541018e-01 -4.699445e+02)	(4.547641e-02 1.539565e-01 -4.699445e+02)	(2.585918e-03 1.453051e-04 -1.612226e-05)
125           	(4.791231e-02 1.536260e-01 -4.699445e+02)	(4.533723e-02 1.534909e-01 -4.699445e+02)	(2.575079e-03 1.350982e-04 -1.760467e-05)
126           	(4.774721e-02 1.532042e-01 -4.699445e+02)	(4.518303e-02 1.530785e-01 -4.699445e+02)	(2.564187e-03 1.257053e-04 -1.917378e-05)
127           	(4.757142e-02 1.530133e-01 -4.699446e+02)	(4.501841e-02 1.528959e-01 -4.699445e+02)	(2.553004e-03 1.173336e-04 -2.082159e-05)
128           	(4.739649e-02 1.529101e-01 -4.699446e+02)	(4.485502e-02 1.528000e-01 -4.699445e+02)	(2.541473e-03 1.100822e-04 -2.251938e-05)
129           	(4.722737e-02 1.528818e-01 -4.699446e+02)	(4.469775e-02 1.527778e-01 -4.699446e+02)	(2.529625e-03 1.040182e-04 -2.426784e-05)
130           	(4.706879e-02 1.529195e-01 -4.699446e+02)	(4.455131e-02 1.528202e-01 -4.699446e+02)	(2.517480e-03 9.921040e-05 -2.606405e-05)
131           	(4.692678e-02 1.530228e-01 -4.699446e+02)	(4.442160e-02 1.529271e-01 -4.699446e+02)	(2.505176e-03 9.563656e-05 -2.792991e-05)
132           	(4.680868e-02 1.531995e-01 -4.699446e+02)	(4.431576e-02 1.531063e-01 -4.699446e+02)	(2.492926e-03 9.316259e-05 -2.977773e-05)
133           	(4.671636e-02 1.532660e-01 -4.699446e+02)	(4.423537e-02 1.531744e-01 -4.699445e+02)	(2.480988e-03 9.151841e-05 -3.150882e-05)
134           	(4.666023e-02 1.534648e-01 -4.699445e+02)	(4.419070e-02 1.533743e-01 -4.699445e+02)	(2.469521e-03 9.051891e-05 -3.309706e-05)
135           	(4.664489e-02 1.538141e-01 -4.699445e+02)	(4.418624e-02 1.537241e-01 -4.699445e+02)	(2.458649e-03 8.998581e-05 -3.449506e-05)
136           	(4.667263e-02 1.543294e-01 -4.699444e+02)	(4.422417e-02 1.542396e-01 -4.699444e+02)	(2.448461e-03 8.978779e-05 -3.564921e-05)
137           	(4.674358e-02 1.550245e-01 -4.699444e+02)	(4.430458e-02 1.549346e-01 -4.699443e+02)	(2.438998e-03 8.981103e-05 -3.646000e-05)
138           	(4.687278e-02 1.561265e-01 -4.699443e+02)	(4.444255e-02 1.560365e-01 -4.699443e+02)	(2.430227e-03 9.005550e-05 -3.682583e-05)
139           	(4.705044e-02 1.575308e-01 -4.699442e+02)	(4.462828e-02 1.574403e-01 -4.699442e+02)	(2.422158e-03 9.047521e-05 -3.662853e-05)
140           	(4.726168e-02 1.591269e-01 -4.699442e+02)	(4.484684e-02 1.590359e-01 -4.699441e+02)	(2.414845e-03 9.101383e-05 -3.581531e-05)
141           	(4.750037e-02 1.608985e-01 -4.699441e+02)	(4.509196e-02 1.608069e-01 -4.699441e+02)	(2.408416e-03 9.160647e-05 -3.441904e-05)
142           	(4.775234e-02 1.627724e-01 -4.699441e+02)	(4.534937e-02 1.626802e-01 -4.699440e+02)	(2.402978e-03 9.214840e-05 -3.248980e-05)
143           	(4.800483e-02 1.646733e-01 -4.699440e+02)	(4.560622e-02 1.645808e-01 -4.699440e+02)	(2.398613e-03 9.251984e-05 -3.006777e-05)
144           	(4.824554e-02 1.665203e-01 -4.699440e+02)	(4.585017e-02 1.664276e-01 -4.699440e+02)	(2.395370e-03 9.263174e-05 -2.721818e-05)
145           	(4.846339e-02 1.682359e-01 -4.699440e+02)	(4.607018e-02 1.681434e-01 -4.699439e+02)	(2.393206e-03 9.245551e-05 -2.400577e-05)
146           	(4.864953e-02 1.697602e-01 -4.699439e+02)	(4.625753e-02 1.696682e-01 -4.699439e+02)	(2.392007e-03 9.205308e-05 -2.052195e-05)
147           	(4.879734e-02 1.710514e-01 -4.699439e+02)	(4.640579e-02 1.709599e-01 -4.699439e+02)	(2.391543e-03 9.151346e-05 -1.700886e-05)
148           	(4.890355e-02 1.720902e-01 -4.699439e+02)	(4.651206e-02 1.719992e-01 -4.699439e+02)	(2.391494e-03 9.092672e-05 -1.372549e-05)
149           	(4.896023e-02 1.728195e-01 -4.699438e+02)	(4.656863e-02 1.727292e-01 -4.699438e+02)	(2.391597e-03 9.029780e-05 -1.070916e-05)
150           	(4.897131e-02 1.732633e-01 -4.699438e+02)	(4.657968e-02 1.731737e-01 -4.699438e+02)	(2.391632e-03 8.962262e-05 -7.996800e-06)
151           	(4.894533e-02 1.734985e-01 -4.699438e+02)	(4.655398e-02 1.734095e-01 -4.699438e+02)	(2.391348e-03 8.892556e-05 -5.605714e-06)
152           	(4.889084e-02 1.735650e-01 -4.699438e+02)	(4.650026e-02 1.734767e-01 -4.699438e+02)	(2.390585e-03 8.824803e-05 -3.573730e-06)
153           	(4.881228e-02 1.734547e-01 -4.699438e+02)	(4.642302e-02 1.733671e-01 -4.699438e+02)	(2.389261e-03 8.763701e-05 -1.946686e-06)
154           	(4.871287e-02 1.731552e-01 -4.699438e+02)	(4.632552e-02 1.730681e-01 -4.699438e+02)	(2.387351e-03 8.711596e-05 -7.815016e-07)
155           	(4.859224e-02 1.726110e-01 -4.699438e+02)	(4.620733e-02 1.725244e-01 -4.699438e+02)	(2.384911e-03 8.664320e-05 -8.941839e-08)
156           	(4.844640e-02 1.717398e-01 -4.699438e+02)	(4.606446e-02 1.716536e-01 -4.699438e+02)	(2.381933e-03 8.612217e-05 1.487493e-07)
157           	(4.827248e-02 1.705018e-01 -4.699439e+02)	(4.589406e-02 1.704164e-01 -4.699439e+02)	(2.378422e-03 8.540458e-05 -4.174599e-08)
158           	(4.807119e-02 1.688934e-01 -4.699439e+02)	(4.569673e-02 1.688090e-01 -4.699439e+02)	(2.374455e-03 8.434589e-05 -6.283923e-07)
159           	(4.788044e-02 1.673202e-01 -4.699440e+02)	(4.551032e-02 1.672374e-01 -4.699440e+02)	(2.370122e-03 8.283066e-05 -1.536393e-06)
160           	(4.770853e-02 1.658863e-01 -4.699441e+02)	(4.534307e-02 1.658055e-01 -4.699441e+02)	(2.365462e-03 8.077943e-05 -2.696568e-06)
161           	(4.755186e-02 1.646052e-01 -4.699441e+02)	(4.519132e-02 1.645271e-01 -4.699441e+02)	(2.360537e-03 7.811666e-05 -4.012126e-06)
162           	(4.741040e-02 1.635148e-01 -4.699442e+02)	(4.505506e-02 1.634400e-01 -4.699442e+02)	(2.355338e-03 7.482227e-05 -5.354151e-06)
163           	(4.728230e-02 1.626286e-01 -4.699443e+02)	(4.493243e-02 1.625577e-01 -4.699443e+02)	(2.349876e-03 7.090050e-05 -6.541878e-06)
164           	(4.717310e-02 1.620036e-01 -4.699443e+02)	(4.482889e-02 1.619372e-01 -4.699443e+02)	(2.344208e-03 6.644113e-05 -7.402248e-06)
165           	(4.710558e-02 1.618273e-01 -4.699443e+02)	(4.476710e-02 1.617657e-01 -4.699443e+02)	(2.338472e-03 6.162491e-05 -7.796181e-06)
166           	(4.703418e-02 1.617009e-01 -4.699443e+02)	(4.470148e-02 1.616443e-01 -4.699443e+02)	(2.332702e-03 5.662436e-05 -7.639489e-06)
167           	(4.695428e-02 1.615615e-01 -4.699443e+02)	(4.462735e-02 1.615099e-01 -4.699443e+02)	(2.326930e-03 5.165560e-05 -6.900312e-06)
168           	(4.687737e-02 1.614829e-01 -4.699442e+02)	(4.455618e-02 1.614359e-01 -4.699442e+02)	(2.321196e-03 4.699345e-05 -5.614003e-06)
169           	(4.680878e-02 1.615565e-01 -4.699442e+02)	(4.449327e-02 1.615137e-01 -4.699442e+02)	(2.315512e-03 4.289117e-05 -3.829529e-06)
170           	(4.675525e-02 1.617672e-01 -4.699442e+02)	(4.444533e-02 1.617277e-01 -4.699442e+02)	(2.309920e-03 3.953374e-05 -1.639093e-06)
171           	(4.672246e-02 1.621688e-01 -4.699441e+02)	(4.441795e-02 1.621318e-01 -4.699441e+02)	(2.304515e-03 3.706594e-05 8.362904e-07)
172           	(4.671077e-02 1.627312e-01 -4.699441e+02)	(4.441143e-02 1.626957e-01 -4.699441e+02)	(2.299334e-03 3.555853e-05 3.470276e-06)
173           	(4.672034e-02 1.634521e-01 -4.699441e+02)	(4.442592e-02 1.634171e-01 -4.699441e+02)	(2.294424e-03 3.501133e-05 6.143497e-06)
174           	(4.675069e-02 1.643101e-01 -4.699441e+02)	(4.446090e-02 1.642748e-01 -4.699441e+02)	(2.289789e-03 3.533832e-05 8.749941e-06)
175           	(4.679782e-02 1.652612e-01 -4.699442e+02)	(4.451240e-02 1.652248e-01 -4.699442e+02)	(2.285421e-03 3.642136e-05 1.119018e-05)
176           	(4.685573e-02 1.662384e-01 -4.699442e+02)	(4.457445e-02 1.662003e-01 -4.699442e+02)	(2.281284e-03 3.809420e-05 1.339106e-05)
177           	(4.691784e-02 1.671841e-01 -4.699443e+02)	(4.464053e-02 1.671439e-01 -4.699443e+02)	(2.277305e-03 4.019332e-05 1.532160e-05)
178           	(4.697969e-02 1.680539e-01 -4.699444e+02)	(4.470631e-02 1.680114e-01 -4.699444e+02)	(2.273388e-03 4.255914e-05 1.697718e-05)
179           	(4.704179e-02 1.688463e-01 -4.699445e+02)	(4.477233e-02 1.688013e-01 -4.699445e+02)	(2.269461e-03 4.505644e-05 1.838078e-05)
180           	(4.705509e-02 1.692649e-01 -4.699448e+02)	(4.478978e-02 1.692173e-01 -4.699448e+02)	(2.265318e-03 4.758246e-05 1.954496e-05)
181           	(4.705970e-02 1.694551e-01 -4.699449e+02)	(4.479865e-02 1.694051e-01 -4.699449e+02)	(2.261053e-03 4.997663e-05 2.049911e-05)
182           	(4.707486e-02 1.698732e-01 -4.699452e+02)	(4.481838e-02 1.698209e-01 -4.699452e+02)	(2.256484e-03 5.225817e-05 2.123418e-05)
183           	(4.709257e-02 1.703322e-01 -4.699454e+02)	(4.484088e-02 1.702778e-01 -4.699454e+02)	(2.251684e-03 5.433404e-05 2.178470e-05)
184           	(4.710847e-02 1.707998e-01 -4.699456e+02)	(4.486182e-02 1.707436e-01 -4.699457e+02)	(2.246648e-03 5.613101e-05 2.218461e-05)
185           	(4.711121e-02 1.709928e-01 -4.699456e+02)	(4.486970e-02 1.709352e-01 -4.699457e+02)	(2.241517e-03 5.756738e-05 2.248004e-05)
186           	(4.711769e-02 1.712394e-01 -4.699457e+02)	(4.488140e-02 1.711808e-01 -4.699457e+02)	(2.236298e-03 5.865312e-05 2.269816e-05)
187           	(4.713793e-02 1.716381e-01 -4.699457e+02)	(4.490694e-02 1.715787e-01 -4.699457e+02)	(2.230995e-03 5.940463e-05 2.284557e-05)
188           	(4.715953e-02 1.720650e-01 -4.699457e+02)	(4.493392e-02 1.720052e-01 -4.699457e+02)	(2.225613e-03 5.982668e-05 2.293704e-05)
189           	(4.717681e-02 1.724585e-01 -4.699457e+02)	(4.495670e-02 1.723986e-01 -4.699457e+02)	(2.220107e-03 5.992849e-05 2.299300e-05)
190           	(4.720883e-02 1.730042e-01 -4.699457e+02)	(4.499439e-02 1.729445e-01 -4.699458e+02)	(2.214445e-03 5.972501e-05 2.302996e-05)
191           	(4.724176e-02 1.735435e-01 -4.699458e+02)	(4.503319e-02 1.734842e-01 -4.699458e+02)	(2.208570e-03 5.925588e-05 2.306641e-05)
192           	(4.727245e-02 1.740440e-01 -4.699458e+02)	(4.507000e-02 1.739855e-01 -4.699458e+02)	(2.202455e-03 5.856399e-05 2.312528e-05)
193           	(4.729819e-02 1.744821e-01 -4.699458e+02)	(4.510213e-02 1.744244e-01 -4.699459e+02)	(2.196052e-03 5.769619e-05 2.320722e-05)
194           	(4.731663e-02 1.748438e-01 -4.699459e+02)	(4.512727e-02 1.747871e-01 -4.699459e+02)	(2.189364e-03 5.670257e-05 2.330726e-05)
195           	(4.732448e-02 1.751059e-01 -4.699459e+02)	(4.514210e-02 1.750502e-01 -4.699459e+02)	(2.182382e-03 5.564648e-05 2.341379e-05)
196           	(4.732382e-02 1.753040e-01 -4.699459e+02)	(4.514864e-02 1.752494e-01 -4.699460e+02)	(2.175176e-03 5.459321e-05 2.350968e-05)
197           	(4.731291e-02 1.754240e-01 -4.699459e+02)	(4.514512e-02 1.753704e-01 -4.699460e+02)	(2.167786e-03 5.360773e-05 2.357721e-05)
198           	(4.729549e-02 1.755009e-01 -4.699460e+02)	(4.513518e-02 1.754482e-01 -4.699460e+02)	(2.160311e-03 5.272758e-05 2.359515e-05)
199           	(4.727371e-02 1.755423e-01 -4.699460e+02)	(4.512084e-02 1.754903e-01 -4.699460e+02)	(2.152866e-03 5.199802e-05 2.354149e-05)
200           	(4.724982e-02 1.755519e-01 -4.699460e+02)	(4.510426e-02 1.755004e-01 -4.699460e+02)	(2.145555e-03 5.144130e-05 2.341534e-05)
201           	(4.722576e-02 1.755387e-01 -4.699460e+02)	(4.508725e-02 1.754876e-01 -4.699460e+02)	(2.138511e-03 5.107100e-05 2.322268e-05)
202           	(4.720367e-02 1.755101e-01 -4.699460e+02)	(4.507185e-02 1.754592e-01 -4.699460e+02)	(2.131821e-03 5.087889e-05 2.299287e-05)
203           	(4.718560e-02 1.754737e-01 -4.699460e+02)	(4.506006e-02 1.754228e-01 -4.699460e+02)	(2.125545e-03 5.086884e-05 2.276953e-05)
204           	(4.717321e-02 1.754375e-01 -4.699460e+02)	(4.505348e-02 1.753865e-01 -4.699460e+02)	(2.119737e-03 5.101450e-05 2.259991e-05)
205           	(4.716762e-02 1.754093e-01 -4.699460e+02)	(4.505319e-02 1.753580e-01 -4.699460e+02)	(2.114434e-03 5.131062e-05 2.251581e-05)
206           	(4.716985e-02 1.754055e-01 -4.699459e+02)	(4.506025e-02 1.753538e-01 -4.699460e+02)	(2.109598e-03 5.173349e-05 2.255333e-05)
207           	(4.717983e-02 1.754200e-01 -4.699459e+02)	(4.507461e-02 1.753677e-01 -4.699459e+02)	(2.105219e-03 5.226501e-05 2.272689e-05)
208           	(4.719691e-02 1.754567e-01 -4.699459e+02)	(4.509562e-02 1.754038e-01 -4.699459e+02)	(2.101292e-03 5.287297e-05 2.303284e-05)
209           	(4.721968e-02 1.755184e-01 -4.699459e+02)	(4.512188e-02 1.754649e-01 -4.699459e+02)	(2.097801e-03 5.354131e-05 2.344097e-05)
210           	(4.724605e-02 1.756093e-01 -4.699458e+02)	(4.515135e-02 1.755551e-01 -4.699459e+02)	(2.094695e-03 5.425087e-05 2.391212e-05)
211           	(4.727243e-02 1.757229e-01 -4.699458e+02)	(4.518050e-02 1.756679e-01 -4.699459e+02)	(2.091930e-03 5.499724e-05 2.438574e-05)