# Moment      
# CofR        : (0.000000e+00 0.000000e+00 0.000000e+00)
#
# Time        	(total_x total_y total_z)	(pressure_x pressure_y pressure_z)	(viscous_x viscous_y viscous_z)
1             	(-8.458145e-02 6.214147e-02 2.416788e-03)	(-8.458567e-02 6.135554e-02 2.413721e-03)	(4.228844e-06 7.859339e-04 3.067288e-06)
2             	(-8.396548e-02 5.932082e-02 1.694701e-03)	(-8.400703e-02 5.876112e-02 1.698261e-03)	(4.154999e-05 5.597063e-04 -3.559975e-06)
3             	(-6.358511e-02 3.905739e-02 -5.643362e-03)	(-6.365363e-02 3.858704e-02 -5.632388e-03)	(6.852698e-05 4.703508e-04 -1.097383e-05)
4             	(-3.440790e-02 3.382425e-03 -1.561468e-02)	(-3.449511e-02 2.934117e-03 -1.556597e-02)	(8.721507e-05 4.483082e-04 -4.871215e-05)
5             	(-2.931732e-03 -2.456280e-02 -2.743559e-02)	(-3.012800e-03 -2.502585e-02 -2.742046e-02)	(8.106729e-05 4.630496e-04 -1.512919e-05)
6             	(1.955861e-02 -3.603752e-02 -3.278380e-02)	(1.949107e-02 -3.657217e-02 -3.276249e-02)	(6.754000e-05 5.346515e-04 -2.130134e-05)
7             	(2.910991e-02 -3.450465e-02 -3.162858e-02)	(2.905910e-02 -3.510993e-02 -3.163211e-02)	(5.081248e-05 6.052781e-04 3.527705e-06)
8             	(2.914160e-02 -2.568563e-02 -2.958299e-02)	(2.910960e-02 -2.629621e-02 -2.959160e-02)	(3.200233e-05 6.105814e-04 8.607412e-06)
9             	(2.390216e-02 -1.098972e-02 -2.143506e-02)	(2.388659e-02 -1.153924e-02 -2.145451e-02)	(1.557083e-05 5.495173e-04 1.944507e-05)
10            	(1.200114e-02 3.609892e-03 -9.249628e-03)	(1.199407e-02 3.152492e-03 -9.255570e-03)	(7.062790e-06 4.574001e-04 5.942633e-06)
11            	(-7.984424e-04 1.262737e-02 6.192207e-04)	(-8.027688e-04 1.226671e-02 6.186672e-04)	(4.326425e-06 3.606593e-04 5.535047e-07)
12            	(-1.025455e-02 1.567936e-02 5.642053e-03)	(-1.025965e-02 1.540672e-02 5.646501e-03)	(5.101460e-06 2.726398e-04 -4.447623e-06)
13            	(-1.372612e-02 1.381799e-02 5.472142e-03)	(-1.373436e-02 1.361268e-02 5.486530e-03)	(8.244512e-06 2.053105e-04 -1.438745e-05)
14            	(-1.401379e-02 9.528499e-03 2.875573e-03)	(-1.402660e-02 9.353521e-03 2.894836e-03)	(1.280808e-05 1.749779e-04 -1.926366e-05)
15            	(-1.212586e-02 4.517282e-03 -2.261305e-03)	(-1.214309e-02 4.337077e-03 -2.238167e-03)	(1.722731e-05 1.802056e-04 -2.313827e-05)
16            	(-8.250239e-03 -5.374637e-07 -9.003319e-03)	(-8.268790e-03 -2.023044e-04 -8.972745e-03)	(1.855023e-05 2.017669e-04 -3.057354e-05)
17            	(-4.607062e-03 -2.664958e-03 -1.427292e-02)	(-4.623990e-03 -2.895557e-03 -1.423814e-02)	(1.692784e-05 2.305988e-04 -3.477768e-05)
18            	(-8.670438e-04 -3.954943e-03 -1.688884e-02)	(-8.806797e-04 -4.207698e-03 -1.684836e-02)	(1.363589e-05 2.527547e-04 -4.047870e-05)
19            	(-2.823347e-04 -3.144012e-03 -1.700021e-02)	(-2.924012e-04 -3.410643e-03 -1.695352e-02)	(1.006651e-05 2.666304e-04 -4.668530e-05)
20            	(5.844020e-04 -2.168849e-03 -1.492838e-02)	(5.775220e-04 -2.435102e-03 -1.487522e-02)	(6.880015e-06 2.662532e-04 -5.316555e-05)
21            	(4.633632e-04 -8.062539e-04 -1.232541e-02)	(4.589280e-04 -1.058562e-03 -1.227157e-02)	(4.435227e-06 2.523081e-04 -5.383154e-05)
22            	(-2.164168e-05 -5.149723e-05 -1.096553e-02)	(-2.445504e-05 -2.837630e-04 -1.091630e-02)	(2.813363e-06 2.322658e-04 -4.922584e-05)
23            	(-9.550873e-04 5.345999e-04 -9.025325e-03)	(-9.571328e-04 3.226994e-04 -8.983104e-03)	(2.045476e-06 2.119005e-04 -4.222092e-05)
24            	(-1.836968e-03 9.675794e-04 -7.297099e-03)	(-1.838905e-03 7.727447e-04 -7.262279e-03)	(1.936947e-06 1.948347e-04 -3.481985e-05)
25            	(-2.636646e-03 9.805372e-04 -6.134850e-03)	(-2.638751e-03 7.976803e-04 -6.107014e-03)	(2.105023e-06 1.828569e-04 -2.783609e-05)
26            	(-3.825221e-03 1.467433e-03 -5.486463e-03)	(-3.827674e-03 1.290277e-03 -5.464495e-03)	(2.452188e-06 1.771561e-04 -2.196806e-05)
27            	(-4.131904e-03 1.287160e-03 -5.680381e-03)	(-4.134629e-03 1.111584e-03 -5.662156e-03)	(2.725123e-06 1.755760e-04 -1.822539e-05)
28            	(-4.353434e-03 1.106190e-03 -6.507884e-03)	(-4.356271e-03 9.294352e-04 -6.492044e-03)	(2.836266e-06 1.767553e-04 -1.584008e-05)
29            	(-4.380332e-03 8.864156e-04 -7.670863e-03)	(-4.383110e-03 7.075277e-04 -7.655938e-03)	(2.778059e-06 1.788879e-04 -1.492515e-05)
30            	(-4.325153e-03 7.395980e-04 -8.901514e-03)	(-4.327773e-03 5.589441e-04 -8.886516e-03)	(2.619891e-06 1.806539e-04 -1.499765e-05)
31            	(-4.158726e-03 5.931165e-04 -1.026705e-02)	(-4.161215e-03 4.116208e-04 -1.025100e-02)	(2.488787e-06 1.814957e-04 -1.604335e-05)
32            	(-3.763817e-03 2.587089e-04 -1.232764e-02)	(-3.766216e-03 7.780706e-05 -1.230995e-02)	(2.399463e-06 1.809018e-04 -1.768912e-05)
33            	(-3.509692e-03 2.807082e-04 -1.317665e-02)	(-3.512168e-03 1.009721e-04 -1.315687e-02)	(2.475777e-06 1.797361e-04 -1.977547e-05)
34            	(-3.279978e-03 2.196931e-04 -1.387511e-02)	(-3.282581e-03 4.197731e-05 -1.385247e-02)	(2.602657e-06 1.777158e-04 -2.263616e-05)
35            	(-3.059098e-03 1.215920e-04 -1.416894e-02)	(-3.061852e-03 -5.367348e-05 -1.414304e-02)	(2.753953e-06 1.752655e-04 -2.589928e-05)
36            	(-2.869352e-03 1.973304e-05 -1.422352e-02)	(-2.872241e-03 -1.528706e-04 -1.419404e-02)	(2.888670e-06 1.726036e-04 -2.948615e-05)
37            	(-2.727893e-03 -2.718433e-05 -1.417804e-02)	(-2.730880e-03 -1.970617e-04 -1.414480e-02)	(2.987408e-06 1.698774e-04 -3.323880e-05)
38            	(-2.633456e-03 -7.198255e-05 -1.415011e-02)	(-2.636497e-03 -2.390725e-04 -1.411289e-02)	(3.041015e-06 1.670899e-04 -3.721475e-05)
39            	(-2.515327e-03 -1.523595e-04 -1.420135e-02)	(-2.518398e-03 -3.166130e-04 -1.415964e-02)	(3.070875e-06 1.642535e-04 -4.171485e-05)
40            	(-2.431737e-03 -1.979856e-04 -1.432692e-02)	(-2.434821e-03 -3.593701e-04 -1.428029e-02)	(3.084823e-06 1.613845e-04 -4.662145e-05)
41            	(-2.378264e-03 -2.086269e-04 -1.453505e-02)	(-2.381344e-03 -3.670812e-04 -1.448332e-02)	(3.079943e-06 1.584543e-04 -5.172474e-05)
42            	(-2.351172e-03 -1.921287e-04 -1.481050e-02)	(-2.354237e-03 -3.476104e-04 -1.475373e-02)	(3.065125e-06 1.554818e-04 -5.677365e-05)
43            	(-2.360752e-03 -1.360600e-04 -1.505857e-02)	(-2.363789e-03 -2.885319e-04 -1.499703e-02)	(3.037625e-06 1.524719e-04 -6.154120e-05)
44            	(-2.394421e-03 -8.726169e-05 -1.534335e-02)	(-2.397411e-03 -2.366235e-04 -1.527742e-02)	(2.990563e-06 1.493619e-04 -6.593160e-05)
45            	(-2.432101e-03 -8.949657e-05 -1.575095e-02)	(-2.435023e-03 -2.356496e-04 -1.568105e-02)	(2.922368e-06 1.461530e-04 -6.989963e-05)
46            	(-2.489190e-03 -9.411479e-05 -1.612010e-02)	(-2.492038e-03 -2.371259e-04 -1.604680e-02)	(2.847928e-06 1.430111e-04 -7.329823e-05)
47            	(-2.559942e-03 -9.626126e-05 -1.641044e-02)	(-2.562720e-03 -2.362876e-04 -1.633439e-02)	(2.778026e-06 1.400264e-04 -7.605431e-05)
48            	(-2.635299e-03 -9.232891e-05 -1.659345e-02)	(-2.638010e-03 -2.295316e-04 -1.651537e-02)	(2.710741e-06 1.372027e-04 -7.807929e-05)
49            	(-2.708903e-03 -8.382315e-05 -1.666140e-02)	(-2.711530e-03 -2.182806e-04 -1.658215e-02)	(2.626060e-06 1.344574e-04 -7.925569e-05)
50            	(-2.778573e-03 -7.091279e-05 -1.662987e-02)	(-2.781089e-03 -2.026823e-04 -1.655025e-02)	(2.515879e-06 1.317696e-04 -7.961993e-05)
51            	(-2.850769e-03 -4.251004e-05 -1.651899e-02)	(-2.853156e-03 -1.717045e-04 -1.643976e-02)	(2.386688e-06 1.291945e-04 -7.923007e-05)
52            	(-2.920398e-03 -1.239044e-05 -1.635083e-02)	(-2.922638e-03 -1.391336e-04 -1.627272e-02)	(2.240388e-06 1.267431e-04 -7.810908e-05)
53            	(-2.987210e-03 1.901210e-05 -1.614244e-02)	(-2.989290e-03 -1.054076e-04 -1.606612e-02)	(2.080344e-06 1.244197e-04 -7.632022e-05)
54            	(-3.042275e-03 3.670345e-05 -1.589617e-02)	(-3.044187e-03 -8.548088e-05 -1.582220e-02)	(1.912161e-06 1.221843e-04 -7.396582e-05)
55            	(-3.096671e-03 5.831883e-05 -1.564154e-02)	(-3.098406e-03 -6.171509e-05 -1.557035e-02)	(1.735419e-06 1.200339e-04 -7.119211e-05)
56            	(-3.147285e-03 8.171765e-05 -1.538934e-02)	(-3.148829e-03 -3.622740e-05 -1.532116e-02)	(1.543544e-06 1.179450e-04 -6.817185e-05)
57            	(-3.189731e-03 1.058962e-04 -1.514482e-02)	(-3.191060e-03 -9.984496e-06 -1.507975e-02)	(1.328546e-06 1.158807e-04 -6.506139e-05)
58            	(-3.228958e-03 1.326621e-04 -1.491260e-02)	(-3.230040e-03 1.886016e-05 -1.485063e-02)	(1.081364e-06 1.138020e-04 -6.197240e-05)
59            	(-3.266633e-03 1.661949e-04 -1.469067e-02)	(-3.267435e-03 5.449705e-05 -1.463171e-02)	(8.019453e-07 1.116979e-04 -5.896302e-05)
60            	(-3.305206e-03 1.968906e-04 -1.447573e-02)	(-3.305694e-03 8.734269e-05 -1.441967e-02)	(4.871905e-07 1.095479e-04 -5.605917e-05)
61            	(-3.345888e-03 2.223483e-04 -1.426941e-02)	(-3.346019e-03 1.150254e-04 -1.421616e-02)	(1.317360e-07 1.073229e-04 -5.325556e-05)
62            	(-3.389218e-03 2.405613e-04 -1.407541e-02)	(-3.388956e-03 1.355548e-04 -1.402488e-02)	(-2.614709e-07 1.050065e-04 -5.053447e-05)
63            	(-3.433998e-03 2.504604e-04 -1.389812e-02)	(-3.433305e-03 1.478821e-04 -1.385021e-02)	(-6.925442e-07 1.025782e-04 -4.791264e-05)
64            	(-3.480646e-03 2.525545e-04 -1.374570e-02)	(-3.479485e-03 1.525221e-04 -1.370029e-02)	(-1.161748e-06 1.000324e-04 -4.540548e-05)
65            	(-3.527736e-03 2.475261e-04 -1.362428e-02)	(-3.526070e-03 1.501518e-04 -1.358124e-02)	(-1.665429e-06 9.737429e-05 -4.303995e-05)
66            	(-3.573495e-03 2.363214e-04 -1.353745e-02)	(-3.571294e-03 1.417355e-04 -1.349661e-02)	(-2.201220e-06 9.458595e-05 -4.084410e-05)
67            	(-3.621519e-03 2.201313e-04 -1.348536e-02)	(-3.618755e-03 1.284693e-04 -1.344654e-02)	(-2.764342e-06 9.166200e-05 -3.882162e-05)
68            	(-3.665517e-03 1.984825e-04 -1.346476e-02)	(-3.662168e-03 1.098946e-04 -1.342776e-02)	(-3.349228e-06 8.858795e-05 -3.700317e-05)
69            	(-3.705337e-03 1.708398e-04 -1.347372e-02)	(-3.701394e-03 8.542415e-05 -1.343828e-02)	(-3.942797e-06 8.541566e-05 -3.543417e-05)
70            	(-3.740932e-03 1.367525e-04 -1.351199e-02)	(-3.736420e-03 5.444828e-05 -1.347784e-02)	(-4.512318e-06 8.230422e-05 -3.415034e-05)
71            	(-3.771897e-03 9.559222e-05 -1.357963e-02)	(-3.766856e-03 1.622859e-05 -1.354643e-02)	(-5.041077e-06 7.936363e-05 -3.319509e-05)
72            	(-3.796743e-03 4.706308e-05 -1.367638e-02)	(-3.791216e-03 -2.958414e-05 -1.364377e-02)	(-5.526518e-06 7.664722e-05 -3.260800e-05)
73            	(-3.811972e-03 -8.300324e-06 -1.379764e-02)	(-3.805993e-03 -8.243195e-05 -1.376522e-02)	(-5.978965e-06 7.413163e-05 -3.241681e-05)
74            	(-3.823397e-03 -6.919399e-05 -1.394915e-02)	(-3.816994e-03 -1.410026e-04 -1.391651e-02)	(-6.403117e-06 7.180863e-05 -3.264437e-05)
75            	(-3.829816e-03 -1.335342e-04 -1.413467e-02)	(-3.823020e-03 -2.032078e-04 -1.410138e-02)	(-6.795989e-06 6.967367e-05 -3.328607e-05)
76            	(-3.830180e-03 -1.992202e-04 -1.435269e-02)	(-3.823030e-03 -2.669467e-04 -1.431837e-02)	(-7.150745e-06 6.772642e-05 -3.432208e-05)
77            	(-3.822390e-03 -2.638850e-04 -1.459944e-02)	(-3.814929e-03 -3.298307e-04 -1.456372e-02)	(-7.461031e-06 6.594576e-05 -3.572045e-05)
78            	(-3.804504e-03 -3.253518e-04 -1.486846e-02)	(-3.796784e-03 -3.896668e-04 -1.483103e-02)	(-7.719398e-06 6.431501e-05 -3.743482e-05)
79            	(-3.774391e-03 -3.822780e-04 -1.515757e-02)	(-3.766476e-03 -4.451092e-04 -1.511816e-02)	(-7.915217e-06 6.283117e-05 -3.940444e-05)
80            	(-3.729887e-03 -4.331272e-04 -1.544627e-02)	(-3.721843e-03 -4.946082e-04 -1.540469e-02)	(-8.044443e-06 6.148094e-05 -4.157714e-05)
81            	(-3.677784e-03 -4.758094e-04 -1.572908e-02)	(-3.669674e-03 -5.360563e-04 -1.568518e-02)	(-8.110925e-06 6.024698e-05 -4.390737e-05)
82            	(-3.621029e-03 -5.098964e-04 -1.599575e-02)	(-3.612905e-03 -5.690040e-04 -1.594941e-02)	(-8.124420e-06 5.910756e-05 -4.634678e-05)
83            	(-3.563640e-03 -5.355362e-04 -1.623836e-02)	(-3.555542e-03 -5.935992e-04 -1.618954e-02)	(-8.097953e-06 5.806297e-05 -4.881991e-05)
84            	(-3.509203e-03 -5.533064e-04 -1.645179e-02)	(-3.501158e-03 -6.104337e-04 -1.640056e-02)	(-8.045340e-06 5.712731e-05 -5.122287e-05)
85            	(-3.459502e-03 -5.644972e-04 -1.663423e-02)	(-3.451527e-03 -6.208230e-04 -1.658080e-02)	(-7.975477e-06 5.632583e-05 -5.343433e-05)
86            	(-3.418707e-03 -5.695920e-04 -1.678965e-02)	(-3.410822e-03 -6.252830e-04 -1.673429e-02)	(-7.884409e-06 5.569097e-05 -5.536396e-05)
87            	(-3.383462e-03 -5.701573e-04 -1.691814e-02)	(-3.375690e-03 -6.253956e-04 -1.686117e-02)	(-7.772285e-06 5.523833e-05 -5.696918e-05)
88            	(-3.353925e-03 -5.666772e-04 -1.702157e-02)	(-3.346283e-03 -6.216484e-04 -1.696333e-02)	(-7.641287e-06 5.497114e-05 -5.824008e-05)
89            	(-3.329750e-03 -5.594868e-04 -1.710360e-02)	(-3.322251e-03 -6.143537e-04 -1.704440e-02)	(-7.498742e-06 5.486688e-05 -5.919929e-05)
90            	(-3.310834e-03 -5.491796e-04 -1.716392e-02)	(-3.303482e-03 -6.040830e-04 -1.710406e-02)	(-7.351395e-06 5.490337e-05 -5.986118e-05)
91            	(-3.298930e-03 -5.360051e-04 -1.720161e-02)	(-3.291729e-03 -5.910865e-04 -1.714138e-02)	(-7.201417e-06 5.508140e-05 -6.023870e-05)
92            	(-3.296321e-03 -5.197942e-04 -1.721518e-02)	(-3.289271e-03 -5.751941e-04 -1.715484e-02)	(-7.050424e-06 5.539994e-05 -6.033674e-05)
93            	(-3.296095e-03 -4.931434e-04 -1.719730e-02)	(-3.289197e-03 -5.490335e-04 -1.713715e-02)	(-6.897932e-06 5.589006e-05 -6.015608e-05)
94            	(-3.307078e-03 -4.640611e-04 -1.714786e-02)	(-3.300332e-03 -5.206116e-04 -1.708817e-02)	(-6.745773e-06 5.655049e-05 -5.968391e-05)
95            	(-3.333280e-03 -4.323439e-04 -1.706906e-02)	(-3.326683e-03 -4.897096e-04 -1.701015e-02)	(-6.597417e-06 5.736570e-05 -5.891444e-05)
96            	(-3.365869e-03 -4.112614e-04 -1.696593e-02)	(-3.359410e-03 -4.695419e-04 -1.690806e-02)	(-6.459626e-06 5.828058e-05 -5.787214e-05)
97            	(-3.405583e-03 -3.889652e-04 -1.683476e-02)	(-3.399239e-03 -4.482229e-04 -1.677819e-02)	(-6.343572e-06 5.925774e-05 -5.657453e-05)
98            	(-3.457853e-03 -3.522029e-04 -1.666829e-02)	(-3.451595e-03 -4.124921e-04 -1.661329e-02)	(-6.257474e-06 6.028921e-05 -5.499427e-05)
99            	(-3.508733e-03 -3.276216e-04 -1.650542e-02)	(-3.502530e-03 -3.889412e-04 -1.645224e-02)	(-6.203235e-06 6.131965e-05 -5.318383e-05)
100           	(-3.555519e-03 -3.023283e-04 -1.633133e-02)	(-3.549342e-03 -3.646832e-04 -1.628015e-02)	(-6.177304e-06 6.235488e-05 -5.118776e-05)
101           	(-3.605613e-03 -2.767082e-04 -1.615828e-02)	(-3.599434e-03 -3.400868e-04 -1.610922e-02)	(-6.178882e-06 6.337861e-05 -4.906410e-05)
102           	(-3.657613e-03 -2.521116e-04 -1.599469e-02)	(-3.651400e-03 -3.164458e-04 -1.594779e-02)	(-6.212553e-06 6.433428e-05 -4.690540e-05)
103           	(-3.711105e-03 -2.296548e-04 -1.584822e-02)	(-3.704824e-03 -2.948255e-04 -1.580342e-02)	(-6.280783e-06 6.517074e-05 -4.480578e-05)
104           	(-3.761398e-03 -2.103271e-04 -1.572266e-02)	(-3.755015e-03 -2.761632e-04 -1.567982e-02)	(-6.382970e-06 6.583618e-05 -4.283640e-05)
105           	(-3.807583e-03 -1.939077e-04 -1.561865e-02)	(-3.801073e-03 -2.602312e-04 -1.557761e-02)	(-6.510919e-06 6.632344e-05 -4.103393e-05)
106           	(-3.837157e-03 -1.800129e-04 -1.552480e-02)	(-3.830507e-03 -2.466694e-04 -1.548540e-02)	(-6.649295e-06 6.665654e-05 -3.940419e-05)
107           	(-3.862141e-03 -1.674557e-04 -1.545281e-02)	(-3.855354e-03 -2.343048e-04 -1.541490e-02)	(-6.787352e-06 6.684916e-05 -3.791050e-05)
108           	(-3.882075e-03 -1.553705e-04 -1.540175e-02)	(-3.875160e-03 -2.222881e-04 -1.536523e-02)	(-6.915160e-06 6.691761e-05 -3.651943e-05)
109           	(-3.897319e-03 -1.430813e-04 -1.536980e-02)	(-3.890293e-03 -2.099611e-04 -1.533459e-02)	(-7.026190e-06 6.687984e-05 -3.521627e-05)
110           	(-3.907809e-03 -1.307726e-04 -1.535755e-02)	(-3.900691e-03 -1.975173e-04 -1.532355e-02)	(-7.118015e-06 6.674468e-05 -3.399761e-05)
111           	(-3.913883e-03 -1.188851e-04 -1.536661e-02)	(-3.906694e-03 -1.854071e-04 -1.533375e-02)	(-7.189295e-06 6.652196e-05 -3.286931e-05)
112           	(-3.915298e-03 -1.079619e-04 -1.540149e-02)	(-3.908061e-03 -1.741976e-04 -1.536965e-02)	(-7.236291e-06 6.623569e-05 -3.184304e-05)
113           	(-3.912849e-03 -9.923584e-05 -1.546172e-02)	(-3.905590e-03 -1.651315e-04 -1.543078e-02)	(-7.259005e-06 6.589565e-05 -3.094058e-05)
114           	(-3.907198e-03 -9.400955e-05 -1.554802e-02)	(-3.899943e-03 -1.595296e-04 -1.551785e-02)	(-7.254630e-06 6.552002e-05 -3.017400e-05)
115           	(-3.899111e-03 -9.306840e-05 -1.565922e-02)	(-3.891889e-03 -1.581905e-04 -1.562966e-02)	(-7.221924e-06 6.512209e-05 -2.955804e-05)
116           	(-3.889491e-03 -9.679675e-05 -1.579299e-02)	(-3.882332e-03 -1.615190e-04 -1.576388e-02)	(-7.158719e-06 6.472226e-05 -2.910531e-05)
117           	(-3.880047e-03 -1.049082e-04 -1.594411e-02)	(-3.872980e-03 -1.692261e-04 -1.591528e-02)	(-7.067436e-06 6.431796e-05 -2.882575e-05)
118           	(-3.870661e-03 -1.170198e-04 -1.611052e-02)	(-3.863711e-03 -1.809257e-04 -1.608180e-02)	(-6.949955e-06 6.390583e-05 -2.871957e-05)
119           	(-3.860720e-03 -1.328149e-04 -1.629099e-02)	(-3.853908e-03 -1.962864e-04 -1.626219e-02)	(-6.811576e-06 6.347143e-05 -2.879254e-05)
120           	(-3.850406e-03 -1.515196e-04 -1.648089e-02)	(-3.843746e-03 -2.145069e-04 -1.645185e-02)	(-6.660229e-06 6.298726e-05 -2.903532e-05)
121           	(-3.839897e-03 -1.722708e-04 -1.667550e-02)	(-3.833390e-03 -2.346869e-04 -1.664606e-02)	(-6.507317e-06 6.241609e-05 -2.944138e-05)
122           	(-3.829367e-03 -1.942645e-04 -1.686940e-02)	(-3.823004e-03 -2.559959e-04 -1.683940e-02)	(-6.363093e-06 6.173138e-05 -3.000121e-05)
123           	(-3.818707e-03 -2.168307e-04 -1.705498e-02)	(-3.812476e-03 -2.777701e-04 -1.702429e-02)	(-6.231610e-06 6.093939e-05 -3.068880e-05)
124           	(-3.807936e-03 -2.395685e-04 -1.722518e-02)	(-3.801819e-03 -2.996276e-04 -1.719372e-02)	(-6.117135e-06 6.005910e-05 -3.146613e-05)
125           	(-3.798118e-03 -2.628286e-04 -1.737650e-02)	(-3.792088e-03 -3.219168e-04 -1.734421e-02)	(-6.029150e-06 5.908826e-05 -3.229158e-05)
126           	(-3.789600e-03 -2.861769e-04 -1.750670e-02)	(-3.783625e-03 -3.442117e-04 -1.747358e-02)	(-5.974825e-06 5.803484e-05 -3.311743e-05)
127           	(-3.786755e-03 -3.115012e-04 -1.761211e-02)	(-3.780797e-03 -3.684177e-04 -1.757821e-02)	(-5.957729e-06 5.691648e-05 -3.389499e-05)
128           	(-3.785946e-03 -3.361227e-04 -1.769312e-02)	(-3.779969e-03 -3.918890e-04 -1.765853e-02)	(-5.977114e-06 5.576627e-05 -3.458596e-05)
129           	(-3.786795e-03 -3.591516e-04 -1.774950e-02)	(-3.780763e-03 -4.137612e-04 -1.771434e-02)	(-6.031925e-06 5.460966e-05 -3.516497e-05)
130           	(-3.788997e-03 -3.794399e-04 -1.778204e-02)	(-3.782876e-03 -4.329076e-04 -1.774642e-02)	(-6.121323e-06 5.346769e-05 -3.562227e-05)
131           	(-3.792461e-03 -3.958516e-04 -1.779278e-02)	(-3.786219e-03 -4.482009e-04 -1.775683e-02)	(-6.242627e-06 5.234932e-05 -3.594605e-05)
132           	(-3.797300e-03 -4.073979e-04 -1.778401e-02)	(-3.790915e-03 -4.586826e-04 -1.774790e-02)	(-6.385152e-06 5.128472e-05 -3.610811e-05)
133           	(-3.798986e-03 -4.123645e-04 -1.776275e-02)	(-3.792452e-03 -4.626662e-04 -1.772668e-02)	(-6.534775e-06 5.030170e-05 -3.606246e-05)
134           	(-3.803427e-03 -4.118291e-04 -1.772515e-02)	(-3.796745e-03 -4.612373e-04 -1.768939e-02)	(-6.682660e-06 4.940823e-05 -3.576554e-05)
135           	(-3.811069e-03 -4.057998e-04 -1.767207e-02)	(-3.804248e-03 -4.544103e-04 -1.763689e-02)	(-6.820768e-06 4.861046e-05 -3.518108e-05)
136           	(-3.822327e-03 -3.946693e-04 -1.760511e-02)	(-3.815384e-03 -4.425788e-04 -1.757082e-02)	(-6.942852e-06 4.790949e-05 -3.429125e-05)
137           	(-3.837604e-03 -3.792181e-04 -1.752705e-02)	(-3.830562e-03 -4.265346e-04 -1.749396e-02)	(-7.042189e-06 4.731652e-05 -3.309403e-05)
138           	(-3.862389e-03 -3.599020e-04 -1.743710e-02)	(-3.855274e-03 -4.067410e-04 -1.740549e-02)	(-7.115006e-06 4.683896e-05 -3.161069e-05)
139           	(-3.894249e-03 -3.377687e-04 -1.734680e-02)	(-3.887092e-03 -3.842593e-04 -1.731692e-02)	(-7.156225e-06 4.649057e-05 -2.988256e-05)
140           	(-3.930608e-03 -3.138530e-04 -1.726213e-02)	(-3.923444e-03 -3.601284e-04 -1.723417e-02)	(-7.163432e-06 4.627543e-05 -2.796363e-05)
141           	(-3.971111e-03 -2.887780e-04 -1.718844e-02)	(-3.963972e-03 -3.349655e-04 -1.716252e-02)	(-7.138345e-06 4.618749e-05 -2.592225e-05)
142           	(-4.014046e-03 -2.633245e-04 -1.713076e-02)	(-4.006963e-03 -3.095417e-04 -1.710694e-02)	(-7.083080e-06 4.621720e-05 -2.382544e-05)
143           	(-4.057639e-03 -2.380430e-04 -1.709179e-02)	(-4.050640e-03 -2.844005e-04 -1.707006e-02)	(-6.999349e-06 4.635749e-05 -2.173314e-05)
144           	(-4.099983e-03 -2.134764e-04 -1.707225e-02)	(-4.093094e-03 -2.600756e-04 -1.705255e-02)	(-6.889627e-06 4.659927e-05 -1.970152e-05)
145           	(-4.139268e-03 -1.902585e-04 -1.707140e-02)	(-4.132510e-03 -2.371908e-04 -1.705362e-02)	(-6.758616e-06 4.693239e-05 -1.778336e-05)
146           	(-4.174117e-03 -1.691479e-04 -1.708744e-02)	(-4.167503e-03 -2.164811e-04 -1.707140e-02)	(-6.614709e-06 4.733317e-05 -1.603190e-05)
147           	(-4.203590e-03 -1.509419e-04 -1.711812e-02)	(-4.197118e-03 -1.986838e-04 -1.710362e-02)	(-6.472098e-06 4.774185e-05 -1.449184e-05)
148           	(-4.227284e-03 -1.363208e-04 -1.716066e-02)	(-4.220940e-03 -1.844135e-04 -1.714747e-02)	(-6.344714e-06 4.809270e-05 -1.319308e-05)
149           	(-4.243896e-03 -1.261344e-04 -1.721224e-02)	(-4.237662e-03 -1.745018e-04 -1.720009e-02)	(-6.234279e-06 4.836739e-05 -1.214485e-05)
150           	(-4.254011e-03 -1.205197e-04 -1.726688e-02)	(-4.247870e-03 -1.690685e-04 -1.725553e-02)	(-6.141364e-06 4.854883e-05 -1.134654e-05)
151           	(-4.259494e-03 -1.196115e-04 -1.732273e-02)	(-4.253427e-03 -1.682339e-04 -1.731193e-02)	(-6.066999e-06 4.862245e-05 -1.079541e-05)
152           	(-4.261307e-03 -1.233425e-04 -1.738369e-02)	(-4.255294e-03 -1.719217e-04 -1.737320e-02)	(-6.013382e-06 4.857921e-05 -1.049352e-05)
153           	(-4.259263e-03 -1.316910e-04 -1.745016e-02)	(-4.253280e-03 -1.801087e-04 -1.743972e-02)	(-5.982620e-06 4.841769e-05 -1.044299e-05)
154           	(-4.253051e-03 -1.445192e-04 -1.752211e-02)	(-4.247075e-03 -1.926597e-04 -1.751147e-02)	(-5.976275e-06 4.814058e-05 -1.063790e-05)
155           	(-4.241318e-03 -1.615120e-04 -1.760377e-02)	(-4.235326e-03 -2.092772e-04 -1.759271e-02)	(-5.991904e-06 4.776512e-05 -1.105909e-05)
156           	(-4.222023e-03 -1.820547e-04 -1.769408e-02)	(-4.216000e-03 -2.293714e-04 -1.768242e-02)	(-6.022979e-06 4.731670e-05 -1.166669e-05)
157           	(-4.194126e-03 -2.051786e-04 -1.778464e-02)	(-4.188065e-03 -2.519991e-04 -1.777224e-02)	(-6.061521e-06 4.682047e-05 -1.240104e-05)
158           	(-4.157404e-03 -2.294170e-04 -1.786110e-02)	(-4.151304e-03 -2.757180e-04 -1.784790e-02)	(-6.100038e-06 4.630103e-05 -1.320070e-05)
159           	(-4.121422e-03 -2.525598e-04 -1.793165e-02)	(-4.115290e-03 -2.983413e-04 -1.791764e-02)	(-6.131724e-06 4.578151e-05 -1.400424e-05)
160           	(-4.088585e-03 -2.735625e-04 -1.799433e-02)	(-4.082434e-03 -3.188374e-04 -1.797956e-02)	(-6.151649e-06 4.527486e-05 -1.476345e-05)
161           	(-4.059181e-03 -2.920238e-04 -1.804859e-02)	(-4.053026e-03 -3.368148e-04 -1.803315e-02)	(-6.154888e-06 4.479093e-05 -1.544120e-05)
162           	(-4.034078e-03 -3.074905e-04 -1.809771e-02)	(-4.027940e-03 -3.518291e-04 -1.808170e-02)	(-6.137621e-06 4.433867e-05 -1.601688e-05)
163           	(-4.013569e-03 -3.195669e-04 -1.814485e-02)	(-4.007474e-03 -3.635030e-04 -1.812837e-02)	(-6.094916e-06 4.393613e-05 -1.647758e-05)
164           	(-3.998973e-03 -3.274320e-04 -1.819174e-02)	(-3.992948e-03 -3.710335e-04 -1.817491e-02)	(-6.024420e-06 4.360156e-05 -1.682743e-05)
165           	(-3.994692e-03 -3.296196e-04 -1.823570e-02)	(-3.988765e-03 -3.729716e-04 -1.821862e-02)	(-5.926838e-06 4.335201e-05 -1.707288e-05)
166           	(-3.991309e-03 -3.281361e-04 -1.827903e-02)	(-3.985504e-03 -3.713277e-04 -1.826180e-02)	(-5.805532e-06 4.319156e-05 -1.723757e-05)
167           	(-3.987328e-03 -3.229959e-04 -1.832738e-02)	(-3.981662e-03 -3.661103e-04 -1.831003e-02)	(-5.666886e-06 4.311435e-05 -1.734401e-05)
168           	(-3.984571e-03 -3.145792e-04 -1.837454e-02)	(-3.979050e-03 -3.576839e-04 -1.835713e-02)	(-5.520657e-06 4.310471e-05 -1.741170e-05)
169           	(-3.985349e-03 -3.042314e-04 -1.841837e-02)	(-3.979972e-03 -3.473769e-04 -1.840092e-02)	(-5.376261e-06 4.314551e-05 -1.745382e-05)
170           	(-3.989372e-03 -2.927658e-04 -1.845747e-02)	(-3.984130e-03 -3.359809e-04 -1.844000e-02)	(-5.242148e-06 4.321511e-05 -1.747678e-05)
171           	(-3.998054e-03 -2.816623e-04 -1.849107e-02)	(-3.992927e-03 -3.249476e-04 -1.847358e-02)	(-5.126937e-06 4.328527e-05 -1.748976e-05)
172           	(-4.010748e-03 -2.719165e-04 -1.851801e-02)	(-4.005711e-03 -3.152429e-04 -1.850052e-02)	(-5.037095e-06 4.332640e-05 -1.749442e-05)
173           	(-4.027478e-03 -2.646253e-04 -1.853819e-02)	(-4.022501e-03 -3.079352e-04 -1.852070e-02)	(-4.976869e-06 4.330989e-05 -1.748681e-05)
174           	(-4.047786e-03 -2.605166e-04 -1.855070e-02)	(-4.042838e-03 -3.037261e-04 -1.853325e-02)	(-4.947932e-06 4.320952e-05 -1.745468e-05)
175           	(-4.070636e-03 -2.600479e-04 -1.855477e-02)	(-4.065685e-03 -3.030504e-04 -1.853739e-02)	(-4.950272e-06 4.300250e-05 -1.738780e-05)
176           	(-4.094405e-03 -2.631609e-04 -1.854964e-02)	(-4.089424e-03 -3.058369e-04 -1.853237e-02)	(-4.981367e-06 4.267595e-05 -1.727373e-05)
177           	(-4.117652e-03 -2.693003e-04 -1.853445e-02)	(-4.112614e-03 -3.115299e-04 -1.851734e-02)	(-5.037682e-06 4.222968e-05 -1.710394e-05)
178           	(-4.139227e-03 -2.774857e-04 -1.850947e-02)	(-4.134112e-03 -3.191601e-04 -1.849259e-02)	(-5.114641e-06 4.167443e-05 -1.687270e-05)
179           	(-4.158987e-03 -2.864945e-04 -1.847749e-02)	(-4.153780e-03 -3.275266e-04 -1.846091e-02)	(-5.206944e-06 4.103207e-05 -1.658051e-05)
180           	(-4.169962e-03 -2.985399e-04 -1.844348e-02)	(-4.164652e-03 -3.388552e-04 -1.842725e-02)	(-5.310509e-06 4.031532e-05 -1.623379e-05)
181           	(-4.175277e-03 -3.084840e-04 -1.841249e-02)	(-4.169861e-03 -3.480568e-04 -1.839664e-02)	(-5.415566e-06 3.957274e-05 -1.585063e-05)
182           	(-4.185964e-03 -3.176079e-04 -1.837592e-02)	(-4.180443e-03 -3.564223e-04 -1.836049e-02)	(-5.521204e-06 3.881439e-05 -1.542785e-05)
183           	(-4.197449e-03 -3.245661e-04 -1.834268e-02)	(-4.191829e-03 -3.626408e-04 -1.832770e-02)	(-5.620125e-06 3.807467e-05 -1.498070e-05)
184           	(-4.208981e-03 -3.295899e-04 -1.831534e-02)	(-4.203274e-03 -3.669685e-04 -1.830082e-02)	(-5.707052e-06 3.737860e-05 -1.452420e-05)
185           	(-4.213736e-03 -3.321498e-04 -1.829902e-02)	(-4.207959e-03 -3.688988e-04 -1.828493e-02)	(-5.776930e-06 3.674906e-05 -1.408224e-05)
186           	(-4.219667e-03 -3.333256e-04 -1.828846e-02)	(-4.213839e-03 -3.695181e-04 -1.827480e-02)	(-5.828626e-06 3.619251e-05 -1.366009e-05)
187           	(-4.229142e-03 -3.331114e-04 -1.828193e-02)	(-4.223280e-03 -3.688162e-04 -1.826867e-02)	(-5.862092e-06 3.570480e-05 -1.326017e-05)
188           	(-4.239246e-03 -3.323289e-04 -1.828375e-02)	(-4.233367e-03 -3.676042e-04 -1.827086e-02)	(-5.878363e-06 3.527523e-05 -1.288820e-05)
189           	(-4.248530e-03 -3.313958e-04 -1.829381e-02)	(-4.242651e-03 -3.662851e-04 -1.828126e-02)	(-5.879640e-06 3.488933e-05 -1.254794e-05)
190           	(-4.261364e-03 -3.292442e-04 -1.831729e-02)	(-4.255495e-03 -3.637733e-04 -1.830505e-02)	(-5.869269e-06 3.452904e-05 -1.223546e-05)
191           	(-4.274004e-03 -3.267102e-04 -1.834636e-02)	(-4.268153e-03 -3.608875e-04 -1.833441e-02)	(-5.851373e-06 3.417728e-05 -1.195444e-05)
192           	(-4.285675e-03 -3.238517e-04 -1.837886e-02)	(-4.279844e-03 -3.576730e-04 -1.836715e-02)	(-5.830347e-06 3.382134e-05 -1.170823e-05)
193           	(-4.295805e-03 -3.206770e-04 -1.841282e-02)	(-4.289995e-03 -3.541265e-04 -1.840132e-02)	(-5.810468e-06 3.344948e-05 -1.149914e-05)
194           	(-4.304063e-03 -3.171404e-04 -1.844632e-02)	(-4.298267e-03 -3.501946e-04 -1.843499e-02)	(-5.795742e-06 3.305421e-05 -1.132929e-05)
195           	(-4.309895e-03 -3.133081e-04 -1.847744e-02)	(-4.304106e-03 -3.459400e-04 -1.846624e-02)	(-5.789158e-06 3.263184e-05 -1.120241e-05)
196           	(-4.314154e-03 -3.090355e-04 -1.850554e-02)	(-4.308361e-03 -3.412190e-04 -1.849442e-02)	(-5.792140e-06 3.218347e-05 -1.112030e-05)
197           	(-4.316527e-03 -3.045391e-04 -1.852871e-02)	(-4.310722e-03 -3.362534e-04 -1.851762e-02)	(-5.804667e-06 3.171426e-05 -1.108381e-05)
198           	(-4.317852e-03 -2.996796e-04 -1.854801e-02)	(-4.312027e-03 -3.309116e-04 -1.853693e-02)	(-5.824926e-06 3.123192e-05 -1.108800e-05)
199           	(-4.318325e-03 -2.944768e-04 -1.856414e-02)	(-4.312474e-03 -3.252224e-04 -1.855300e-02)	(-5.850970e-06 3.074560e-05 -1.113154e-05)
200           	(-4.318042e-03 -2.889153e-04 -1.857791e-02)	(-4.312162e-03 -3.191840e-04 -1.856671e-02)	(-5.879924e-06 3.026871e-05 -1.120892e-05)
201           	(-4.317228e-03 -2.830437e-04 -1.858918e-02)	(-4.311319e-03 -3.128591e-04 -1.857787e-02)	(-5.908433e-06 2.981542e-05 -1.131529e-05)
202           	(-4.316055e-03 -2.768436e-04 -1.859861e-02)	(-4.310122e-03 -3.062440e-04 -1.858717e-02)	(-5.932687e-06 2.940048e-05 -1.144113e-05)
203           	(-4.314703e-03 -2.702794e-04 -1.860673e-02)	(-4.308753e-03 -2.993155e-04 -1.859514e-02)	(-5.950269e-06 2.903611e-05 -1.158280e-05)
204           	(-4.313364e-03 -2.634125e-04 -1.861400e-02)	(-4.307405e-03 -2.921412e-04 -1.860227e-02)	(-5.959014e-06 2.872869e-05 -1.172994e-05)
205           	(-4.312233e-03 -2.564284e-04 -1.862089e-02)	(-4.306274e-03 -2.849055e-04 -1.860902e-02)	(-5.958730e-06 2.847708e-05 -1.187793e-05)