# p  POINT_DATA 46570
# x  y  z  p
-4.1359e-25 4.18816e-09 1.89042e-09 0
-4.1359e-25 0.000325494 0 0
-2.71051e-20 -0.000312499 0.000268959 0
-2.71051e-20 0.0003125 0.000268959 0
-5.16988e-26 8.68036e-10 0.000443666 0
0 1.66476e-10 0.000537325 0
0 -0.000624994 2.25514e-09 0
-4.1359e-25 0.000625 1.7395e-09 0
4.52364e-26 -0.000613167 0.000537324 0
0 0.000625001 0.000537325 0
6.30079e-26 -0.000624999 0.000540154 0
0 -0.000312499 0.000800934 0
-2.71051e-20 0.000312501 0.000800934 0
-2.71051e-20 -0.000937499 0.000268959 0
-2.71051e-20 0.0009375 0.000268959 0
1.72488e-20 -9.30037e-10 0.00106275 0
0 -0.000624997 0.00106275 0
0 0.000624999 0.00106275 0
-2.71051e-20 -0.000937499 0.000800933 0
0 0.0009375 0.000800933 0
0 -0.00125 2.58916e-09 0
0 0.00125 2.46548e-09 0
0 -0.000312499 0.00130939 0
2.71051e-20 0.000312501 0.00130939 0
0 0.00125 0.000537325 0
-1.26221e-20 -0.00125 0.000537324 0
1.55096e-25 -0.00125 0.000613749 0
2.21899e-20 -2.40737e-09 0.00155263 0
-2.71051e-20 0.0015625 0.000268959 0
-2.71051e-20 -0.0015625 0.000268959 0
5.42101e-20 -0.000937499 0.00130939 0
2.71051e-20 0.0009375 0.00130939 0
-4.1359e-25 0.00125 0.00106275 0
0 -0.00125 0.00106275 0
2.54887e-20 -0.000625002 0.00155263 0
0 0.000625005 0.00155263 0
-2.71051e-20 0.0015625 0.000800933 0
-5.42101e-20 -0.0015625 0.000800933 0
5.42101e-20 -0.000312498 0.00177922 0
0 0.000312501 0.00177922 0
0 0.001875 3.03573e-09 0
-4.1359e-25 -0.001875 2.87008e-09 0
-4.1359e-25 0.001875 0.000537326 0
1.5868e-20 -0.001875 0.000537324 0
-5.16988e-26 -0.001875 0.000643949 0
8.27181e-25 0.00125 0.00155263 0
0 -0.00125 0.00155263 0
8.27181e-25 6.16903e-09 0.002 0
5.42101e-20 -0.000937497 0.00177922 0
0 0.000937501 0.00177922 0
-5.42101e-20 0.0015625 0.00130939 0
-2.71051e-20 -0.0015625 0.00130939 0
8.27181e-25 -0.00062499 0.002 0
0 0.000625006 0.002 0
0 0.001875 0.00106275 0
-2.06795e-25 -0.001875 0.00106275 0
2.71051e-20 -0.0021875 0.000268959 0
2.71051e-20 0.0021875 0.000268959 0
5.42101e-20 0.0021875 0.000800933 0
-2.71051e-20 -0.0021875 0.000800933 0
0 -0.00124998 0.002 0
8.27181e-25 0.00125001 0.002 0
0 -0.0015625 0.00177922 0
5.42101e-20 0.0015625 0.00177922 0
0 0.001875 0.00155263 0
0 -0.001875 0.00155263 0
0 0.0025 3.12706e-09 0
0 -0.0025 3.03695e-09 0
0 0.0021875 0.00130939 0
0 -0.0021875 0.00130939 0
0 0.0025 0.000537326 0
-7.68089e-21 -0.0025 0.000537324 0
5.16988e-26 -0.0025 0.000644518 0
-4.1359e-25 0.0025 0.00106275 0
0 -0.0025 0.00106275 0
0 -0.00187498 0.002 0
0 0.00187501 0.002 0
0 -0.0021875 0.00177922 0
0 0.0021875 0.00177922 0
-2.71051e-20 0.0028125 0.000268959 0
-2.71051e-20 -0.0028125 0.000268959 0
0 -0.0028125 0.000800933 0
0 0.0028125 0.000800933 0
8.27181e-25 0.0025 0.00155263 0
8.27181e-25 -0.0025 0.00155263 0
2.71051e-20 0.0028125 0.00130939 0
-2.71051e-20 -0.0028125 0.00130939 0
0 -0.003125 3.07351e-09 0
-4.1359e-25 0.003125 2.74456e-09 0
-2.06795e-25 0.003125 0.000537325 0
2.58494e-26 -0.003125 0.000537325 0
5.16988e-26 -0.003125 0.000584455 0
0 -0.00249999 0.002 0
8.27181e-25 0.00250001 0.002 0
4.1359e-25 0.003125 0.00106275 0
0 -0.003125 0.00106275 0
0 -0.0028125 0.00177922 0
-2.71051e-20 0.0028125 0.00177922 0
2.71051e-20 0.0034375 0.000268959 0
2.71051e-20 -0.0034375 0.000268959 0
0 -0.00343926 0.000537325 0
0 0.003125 0.00155263 0
-8.27181e-25 -0.003125 0.00155263 0
2.71051e-20 0.0034375 0.000800933 0
0 -0.0034375 0.000800934 0
-2.06795e-25 0.0035933 0 0
-2.71051e-20 0.0034375 0.00130939 0
2.71051e-20 -0.0034375 0.00130939 0
-2.06795e-25 -0.00370588 0 0
0 -0.00312499 0.002 0
0 0.00312502 0.002 0
0 0.00375 9.18407e-10 0
-5.16988e-26 -0.00375 2.33417e-10 0
-1.03398e-25 0.00375 0.000283348 0
0 0.00375 0.000537325 0
0 -0.00375 0.000537325 0
1.03398e-25 -0.00380584 0 0
2.71051e-20 -0.0034375 0.00177922 0
-5.42101e-20 0.0034375 0.00177922 0
4.1359e-25 0.00375 0.00106275 0
0 -0.00375 0.00106275 0
0 0.00375 0.00155263 0
0 -0.00375 0.00155263 0
2.71051e-20 -0.0040625 0.000268959 0
0 0.0040625 0.000268959 0
2.71051e-20 0.0040625 0.000800933 0
2.71051e-20 -0.0040625 0.000800933 0
8.27181e-25 -0.00375 0.002 0
0 0.00375002 0.002 0
0 0.0040625 0.00130939 0
2.71051e-20 -0.0040625 0.00130939 0
0 -0.004375 2.37906e-09 0
0 0.004375 1.49138e-09 0
-5.16988e-26 0.004375 0.000427572 0
-5.16988e-26 -0.004375 0.000475979 0
0 0.004375 0.000537324 0
-5.16988e-26 -0.004375 0.000537324 0
-2.71051e-20 -0.0040625 0.00177922 0
-2.71051e-20 0.0040625 0.00177922 0
0 0.004375 0.00106275 0
-2.06795e-25 -0.004375 0.00106275 0
-3.53206e-22 0.004375 0.00155263 0
4.1359e-25 -0.004375 0.00155263 0
2.71051e-20 -0.0046875 0.000268959 0
0 0.0046875 0.000268959 0
-2.71051e-20 0.0046875 0.000800933 0
2.71051e-20 -0.0046875 0.000800933 0
2.06795e-25 -0.00480157 0 0
8.27181e-25 -0.004375 0.002 0
-8.27181e-25 0.00437502 0.002 0
-2.71051e-20 -0.0046875 0.00130939 0
0 0.0046875 0.00130939 0
0 0.005 1.88411e-09 0
-2.06795e-25 -0.005 1.10669e-09 0
0 -0.0046875 0.00177922 0
5.42101e-20 0.0046875 0.00177922 0
-5.16988e-26 0.005 0.000475216 0
0 -0.005 0.000537324 0
3.35846e-20 0.005 0.000537324 0
1.48756e-20 0.005 0.00106275 0
2.06795e-25 -0.005 0.00106275 0
1.32928e-21 0.005 0.00155263 0
-4.1359e-25 -0.005 0.00155263 0
1.03398e-25 -0.00523738 0 0
0 -0.0053125 0.000268959 0
2.71051e-20 0.0053125 0.000268959 0
0 -0.0053125 0.000800933 0
0 0.0053125 0.000800933 0
0 -0.005 0.002 0
8.27181e-25 0.00500002 0.002 0
5.42101e-20 0.0053125 0.00130939 0
0 -0.0053125 0.00130939 0
0 -0.0053125 0.00177922 0
0 0.0053125 0.00177922 0
0 0.005625 1.97865e-09 0
0 -0.005625 1.80716e-09 0
5.16988e-26 0.005625 0.000452325 0
5.16988e-26 -0.005625 0.00045956 0
0 0.005625 0.000537324 0
0 -0.005625 0.000537324 0
2.06795e-25 0.005625 0.00106275 0
0 -0.005625 0.00106275 0
0 0.005625 0.00155263 0
-4.1359e-25 -0.005625 0.00155263 0
-5.42101e-20 -0.0059375 0.000268959 0
0 0.0059375 0.000268959 0
0 0.005625 0.002 0
0 -0.005625 0.002 0
0 -0.0059375 0.000800933 0
2.71051e-20 0.0059375 0.000800933 0
-2.06795e-25 0.00603562 0 0
5.42101e-20 -0.0059375 0.00130939 0
5.42101e-20 0.0059375 0.00130939 0
0 -0.0059375 0.00177922 0
2.71051e-20 0.0059375 0.00177922 0
0 -0.00625 1.73536e-09 0
0 0.00625 1.03302e-09 0
0 -0.00625 0.000481817 0
0 0.00625 0.000537324 0
0 -0.00625 0.000537324 0
0 0.00625 0.00106275 0
2.06795e-25 -0.00625 0.00106275 0
0 0.00643483 0 0
0 0.00625 0.00155263 0
0 -0.00625 0.00155263 0
0 -0.00624999 0.002 0
0 0.00625001 0.002 0
2.71051e-20 -0.0065625 0.000268959 0
0 0.0065625 0.000268959 0
0 0.0065625 0.000800933 0
-5.42101e-20 -0.0065625 0.000800933 0
2.71051e-20 0.0065625 0.00130939 0
0 -0.0065625 0.00130939 0
-2.71051e-20 -0.0065625 0.00177922 0
2.71051e-20 0.0065625 0.00177922 0
-4.1359e-25 0.006875 2.46002e-09 0
-2.06795e-25 -0.006875 1.56665e-09 0
0 -0.006875 0.00044432 0
0 0.006875 0.000496296 0
0 -0.006875 0.000537324 0
5.16988e-26 0.006875 0.000537324 0
0 0.006875 0.00106275 0
2.06795e-25 -0.006875 0.00106275 0
0 -0.006875 0.00155263 0
-1.55816e-20 0.006875 0.00155263 0
0 -0.00687498 0.002 0
0 0.00687501 0.002 0
-2.06795e-25 -0.00718784 0 0
0 0.0071875 0.000268959 0
-2.71051e-20 -0.0071875 0.000268959 0
0 0.00719922 0.000537324 0
2.71051e-20 -0.0071875 0.000800933 0
2.71051e-20 0.0071875 0.000800933 0
0 -0.0071875 0.00130939 0
0 0.0071875 0.00130939 0
-2.71051e-20 -0.0071875 0.00177922 0
0 0.0071875 0.00177922 0
-4.1359e-25 0.0075 3.01477e-09 0
0 -0.0075 1.56321e-09 0
-1.03398e-25 -0.0075 0.000537325 0
-2.58494e-26 0.0075 0.000537324 0
-2.58494e-26 0.0075 0.000601631 0
-2.06795e-25 -0.0075 0.00106275 0
0 0.0075 0.00106275 0
0 -0.0075 0.00155263 0
3.57268e-20 0.0075 0.00155263 0
0 -0.00749998 0.002 0
0 0.00750002 0.002 0
5.42101e-20 -0.0078125 0.000268959 0
0 0.0078125 0.000268959 0
0 0.0078125 0.000800933 0
5.42101e-20 -0.0078125 0.000800933 0
0 -0.0078125 0.00130939 0
2.71051e-20 0.0078125 0.00130939 0
0 -0.0078125 0.00177922 0
-5.42101e-20 0.0078125 0.00177922 0
0 0.008125 3.31891e-09 0
2.06795e-25 -0.008125 1.18008e-09 0
2.50714e-20 0.008125 0.000537324 0
1.03398e-25 -0.008125 0.000537324 0
5.16988e-26 0.008125 0.000675356 0
0 -0.008125 0.00106275 0
0 0.008125 0.00106275 0
0 -0.008125 0.00155263 0
0 0.008125 0.00155263 0
-4.1359e-25 -0.00831693 0 0
8.27181e-25 -0.00812498 0.002 0
0 0.00812501 0.002 0
2.71051e-20 -0.0084375 0.000268959 0
-5.42101e-20 0.0084375 0.000268959 0
2.71051e-20 -0.0084375 0.000800933 0
2.71051e-20 0.0084375 0.000800933 0
2.71051e-20 -0.0084375 0.00130939 0
2.71051e-20 0.0084375 0.00130939 0
0 -0.0084375 0.00177922 0
5.42101e-20 0.0084375 0.00177922 0
-1.61559e-26 -0.00872447 0.000537324 0
8.27181e-25 0.00875 3.4154e-09 0
0 -0.00875 2.66276e-09 0
-8.82933e-21 0.00875 0.000537325 0
0 -0.00875 0.000537324 0
3.23117e-26 -0.00875 0.000544029 0
0 0.00875 0.000721296 0
0 -0.00875 0.00106275 0
0 0.00875 0.00106275 0
0 -0.00875 0.00155263 0
8.27181e-25 0.00875 0.00155263 0
0 -0.00874999 0.002 0
0 0.00875001 0.002 0
-8.13152e-20 0.0090625 0.000268959 0
-2.71051e-20 -0.0090625 0.000268959 0
0 -0.0090625 0.000800933 0
0 0.0090625 0.000800933 0
2.71051e-20 -0.0090625 0.00130939 0
0 0.0090625 0.00130939 0
-2.71051e-20 -0.0090625 0.00177922 0
-2.71051e-20 0.0090625 0.00177922 0
0 -0.009375 3.41999e-09 0
0 0.009375 3.38892e-09 0
4.53481e-21 0.009375 0.000537325 0
-2.58216e-20 -0.009375 0.000537325 0
5.16988e-26 -0.009375 0.000657758 0
-1.03398e-25 0.009375 0.000733189 0
0 -0.009375 0.00106275 0
-2.06795e-25 0.009375 0.00106275 0
0 -0.009375 0.00155263 0
2.40801e-20 0.009375 0.00155263 0
0 -0.00937499 0.002 0
8.27181e-25 0.00937502 0.002 0
-2.71051e-20 -0.0096875 0.000268959 0
-2.71051e-20 0.0096875 0.000268959 0
0 0.0096875 0.000800933 0
-2.71051e-20 -0.0096875 0.000800933 0
2.71051e-20 -0.0096875 0.00130939 0
2.71051e-20 0.0096875 0.00130939 0
2.71051e-20 -0.0096875 0.00177922 0
2.71051e-20 0.0096875 0.00177922 0
0 -0.01 3.8459e-09 0
4.1359e-25 0.01 3.10988e-09 0
-2.69368e-20 0.01 0.000537325 0
1.13406e-20 -0.01 0.000537325 0
0 -0.01 0.000705326 0
-1.03398e-25 0.01 0.000715197 0
2.06795e-25 -0.01 0.00106275 0
0 0.01 0.00106275 0
8.27181e-25 -0.01 0.00155263 0
-5.70217e-21 0.01 0.00155263 0
-8.27181e-25 -0.00999999 0.002 0
0 0.01 0.002 0
2.71051e-20 -0.0103125 0.000268959 0
5.42101e-20 0.0103125 0.000268959 0
0 -0.0103125 0.000800933 0
0 0.0103125 0.000800933 0
2.71051e-20 0.0103125 0.00130939 0
0 -0.0103125 0.00130939 0
2.71051e-20 0.0103125 0.00177922 0
2.71051e-20 -0.0103125 0.00177922 0
0 -0.010625 3.859e-09 0
0 0.010625 2.71477e-09 0
-2.388e-20 -0.010625 0.000537325 0
3.2301e-20 0.010625 0.000537324 0
5.16988e-26 0.010625 0.00064136 0
1.03398e-25 -0.010625 0.00071329 0
0 0.010625 0.00106275 0
0 -0.010625 0.00106275 0
0 0.010625 0.00155263 0
0 -0.010625 0.00155263 0
0 0.010625 0.002 0
0 -0.010625 0.002 0
2.71051e-20 0.0109375 0.000268959 0
2.71051e-20 -0.0109375 0.000268959 0
0 -0.0109375 0.000800933 0
2.71051e-20 0.0109375 0.000800933 0
2.71051e-20 -0.0109375 0.00130939 0
2.71051e-20 0.0109375 0.00130939 0
0 0.0109375 0.00177922 0
0 -0.0109375 0.00177922 0
-2.58494e-25 0.0111652 0 0
0 -0.01125 5.75757e-10 0
0 0.01125 4.26441e-10 0
0 0.01125 0.000518313 0
2.15444e-20 -0.01125 0.000537325 0
-3.23117e-27 0.01125 0.000537324 0
-9.37041e-26 0.01125 0.000543682 0
1.03398e-25 -0.01125 0.000708604 0
0 0.01125 0.00106275 0
0 -0.01125 0.00106275 0
-2.06795e-25 0.0113285 0 0
8.27181e-25 0.01125 0.00155263 0
0 -0.01125 0.00155263 0
0 0.01125 0.002 0
0 -0.01125 0.002 0
0 0.0115625 0.000268959 0
0 -0.0115625 0.000268959 0
-2.71051e-20 0.0115625 0.000800933 0
0 -0.0115625 0.000800933 0
0 0.0115625 0.00130939 0
-2.71051e-20 -0.0115625 0.00130939 0
0 0.0115625 0.00177922 0
5.42101e-20 -0.0115625 0.00177922 0
0 0.0118072 0.000537324 0
0 -0.011875 3.61703e-09 0
0 0.011875 2.96792e-09 0
0 0.011875 0.000537324 0
-3.657e-20 -0.011875 0.000537325 0
1.55096e-25 -0.011875 0.000741106 0
4.03897e-27 0.0118891 0.000537324 0
2.06795e-25 0.011875 0.00106275 0
-2.06795e-25 -0.011875 0.00106275 0
-3.27564e-21 0.011875 0.00155263 0
0 -0.011875 0.00155263 0
0 0.011875 0.002 0
0 -0.011875 0.002 0
5.42101e-20 -0.0121875 0.000268959 0
0 0.0121875 0.000268959 0
-2.71051e-20 0.0121875 0.000800933 0
0 -0.0121875 0.000800933 0
0 0.0121875 0.00130939 0
0 -0.0121875 0.00130939 0
0 -0.0121875 0.00177922 0
0 0.0121875 0.00177922 0
0 -0.0125 3.63617e-09 0
2.58494e-26 0.0125 1.91769e-10 0
2.98276e-20 -0.0125 0.000537325 0
0 0.0125 0.000537325 0
5.16988e-26 0.0125 0.000568104 0
0 -0.0125 0.000751917 0
2.06795e-25 0.0125 0.00106275 0
0 -0.0125 0.00106275 0
-1.35658e-22 0.0125 0.00155263 0
4.1359e-25 -0.0125 0.00155263 0
0 0.0125 0.002 0
8.27181e-25 -0.0125 0.002 0
-5.42101e-20 0.0128125 0.000268959 0
-5.42101e-20 -0.0128125 0.000268959 0
-5.42101e-20 -0.0128125 0.000800933 0
2.71051e-20 0.0128125 0.000800934 0
2.71051e-20 0.0128125 0.00130939 0
-2.71051e-20 -0.0128125 0.00130939 0
0 -0.0128125 0.00177922 0
2.71051e-20 0.0128125 0.00177922 0
-8.27181e-25 0.013125 3.40077e-09 0
-4.1359e-25 -0.013125 3.11849e-09 0
-3.72395e-20 -0.013125 0.000537324 0
1.07052e-20 0.013125 0.000537325 0
0 0.013125 0.00064427 0
5.16988e-26 -0.013125 0.000689854 0
0 0.013125 0.00106275 0
2.06795e-25 -0.013125 0.00106275 0
0 0.013125 0.00155263 0
0 -0.013125 0.00155263 0
0 0.013125 0.002 0
-8.27181e-25 -0.013125 0.002 0
0 0.0134375 0.000268959 0
0 -0.0134375 0.000268959 0
2.71051e-20 -0.0134375 0.000800933 0
0 0.0134375 0.000800933 0
-5.42101e-20 -0.0134375 0.00130939 0
0 0.0134375 0.00130939 0
0 -0.0134375 0.00177922 0
0 0.0134375 0.00177922 0
8.27181e-25 0.01375 3.54584e-09 0
0 -0.01375 2.12326e-09 0
3.62485e-20 0.01375 0.000537325 0
0 -0.01375 0.000537324 0
0 -0.01375 0.000549744 0
5.16988e-26 0.01375 0.000717791 0
-2.06795e-25 -0.01375 0.00106275 0
-2.06795e-25 0.01375 0.00106275 0
0 -0.0138031 0.000537324 0
0 -0.01375 0.00155263 0
0 0.01375 0.00155263 0
8.27181e-25 -0.01375 0.002 0
-8.27181e-25 0.01375 0.002 0
-2.71051e-20 -0.0140625 0.000268959 0
0 0.0140625 0.000268959 0
0 -0.0140625 0.000800933 0
-2.71051e-20 0.0140625 0.000800933 0
-2.71051e-20 -0.0140625 0.00130939 0
2.71051e-20 0.0140625 0.00130939 0
0 -0.0140625 0.00177922 0
0 0.0140625 0.00177922 0
0 0.014375 3.7675e-09 0
-2.06795e-25 -0.014375 1.49756e-09 0
0 -0.014375 0.000430035 0
2.24612e-20 0.014375 0.000537325 0
5.16988e-26 -0.014375 0.000537324 0
1.03398e-25 0.014375 0.000755837 0
0 -0.014375 0.00106275 0
0 0.014375 0.00106275 0
0 -0.014375 0.00155263 0
-1.77596e-21 0.014375 0.00155263 0
0 -0.014375 0.002 0
0 0.014375 0.002 0
0 0.0146875 0.000268959 0
0 -0.0146875 0.000268959 0
-2.71051e-20 0.0146875 0.000800933 0
-2.71051e-20 -0.0146875 0.000800933 0
2.71051e-20 -0.0146875 0.00130939 0
0 0.0146875 0.00130939 0
0 0.0146875 0.00177922 0
-2.71051e-20 -0.0146875 0.00177922 0
0 0.015 3.93871e-09 0
0 -0.015 1.62471e-09 0
0 -0.015 0.000411769 0
1.90446e-20 0.015 0.000537325 0
1.03398e-25 -0.015 0.000537324 0
-1.03398e-25 0.015 0.000777991 0
0 -0.015 0.00106275 0
2.06795e-25 0.015 0.00106275 0
0 -0.015 0.00155263 0
8.94596e-21 0.015 0.00155263 0
-8.27181e-25 -0.015 0.002 0
0 0.015 0.002 0
0 0.0153125 0.000268959 0
0 -0.0153125 0.000268959 0
2.71051e-20 0.0153125 0.000800933 0
0 -0.0153125 0.000800933 0
0 0.0153125 0.00130939 0
-2.71051e-20 -0.0153125 0.00130939 0
2.71051e-20 0.0153125 0.00177922 0
0 -0.0153125 0.00177922 0
-8.27181e-25 0.015625 3.92351e-09 0
4.1359e-25 -0.015625 2.10514e-09 0
5.16988e-26 -0.015625 0.000466664 0
2.71646e-21 0.015625 0.000537325 0
5.16988e-26 -0.015625 0.000537324 0
-1.03398e-25 0.015625 0.000771322 0
0 -0.015625 0.00106275 0
-2.06795e-25 0.015625 0.00106275 0
0 -0.015625 0.00155263 0
0 0.015625 0.00155263 0
0 -0.015625 0.002 0
0 0.015625 0.002 0
0 -0.0159375 0.000268959 0
0 0.0159375 0.000268959 0
0 0.0159375 0.000800933 0
0 -0.0159375 0.000800933 0
-2.71051e-20 -0.0159375 0.00130939 0
2.71051e-20 0.0159375 0.00130939 0
-2.71051e-20 -0.0159375 0.00177922 0
-2.71051e-20 0.0159375 0.00177922 0
0 0.01625 3.69811e-09 0
-4.1359e-25 -0.01625 2.60299e-09 0
8.07794e-28 -0.01625 0.000537324 0
1.93171e-20 0.01625 0.000537325 0
1.03398e-25 0.01625 0.000724966 0
0 -0.0162582 0.000537324 0
0 -0.01625 0.00106275 0
0 0.01625 0.00106275 0
0 -0.01625 0.00155263 0
8.27181e-25 0.01625 0.00155263 0
0 0.01625 0.002 0
0 -0.01625 0.002 0
0 -0.0165625 0.000268959 0
2.71051e-20 0.0165625 0.000268959 0
0 -0.0165625 0.000800933 0
0 0.0165625 0.000800933 0
2.71051e-20 -0.0165625 0.00130939 0
-2.71051e-20 0.0165625 0.00130939 0
0 0.0165625 0.00177922 0
0 -0.0165625 0.00177922 0
0 0.016875 3.366e-09 0
4.1359e-25 -0.016875 3.06037e-09 0
5.16988e-26 0.016875 0.000537324 0
5.16988e-26 -0.016875 0.000537324 0
-1.55096e-25 -0.016875 0.000625131 0
0 0.016875 0.000644396 0
0 -0.016875 0.00106275 0
0 0.016875 0.00106275 0
-8.70029e-21 0.016875 0.00155263 0
0 -0.016875 0.00155263 0
0 0.016875 0.002 0
8.27181e-25 -0.016875 0.002 0
0 -0.0171875 0.000268959 0
2.71051e-20 0.0171875 0.000268959 0
0 -0.0171875 0.000800933 0
0 0.0171875 0.000800933 0
2.71051e-20 0.0171875 0.00130939 0
0 -0.0171875 0.00130939 0
-2.71051e-20 -0.0171875 0.00177922 0
0 0.0171875 0.00177922 0
-6.46235e-27 0.0174374 0.000537324 0
0 -0.0175 3.53833e-09 0
0 0.0175 2.99805e-09 0
0 0.0175 0.000530413 0
2.90323e-20 -0.0175 0.000537325 0
0 0.0175 0.000537324 0
-5.16988e-26 -0.0175 0.000693382 0
-1.2131e-20 0.0175 0.00106275 0
0 -0.0175 0.00106275 0
2.77147e-20 0.0175 0.00155263 0
-1.98838e-20 -0.0175 0.00155263 0
-8.27181e-25 0.0175 0.002 0
-8.27181e-25 -0.0175 0.002 0
-5.42101e-20 0.0178125 0.000268959 0
2.71051e-20 -0.0178125 0.000268959 0
0 -0.0178125 0.000800934 0
2.71051e-20 0.0178125 0.000800933 0
0 0.0178125 0.00130939 0
5.42101e-20 -0.0178125 0.00130939 0
2.71051e-20 -0.0178125 0.00177922 0
2.71051e-20 0.0178125 0.00177922 0
3.10193e-25 0.0180422 0 0
-8.27181e-25 -0.018125 4.00712e-09 0
0 0.018125 4.57842e-10 0
1.2417e-20 -0.018125 0.000537326 0
0 0.018125 0.000537324 0
0 -0.018125 0.000767008 0
2.06795e-25 0.018125 0.00106275 0
-2.06795e-25 -0.018125 0.00106275 0
0 0.018125 0.00155263 0
-2.66642e-21 -0.018125 0.00155263 0
1.55096e-25 0.018229 0 0
-8.27181e-25 0.018125 0.002 0
0 -0.018125 0.002 0
-5.42101e-20 0.0184375 0.000268959 0
2.71051e-20 -0.0184375 0.000268959 0
-2.71051e-20 0.0184375 0.000800933 0
2.71051e-20 -0.0184375 0.000800934 0
-2.71051e-20 0.0184375 0.00130939 0
-2.71051e-20 -0.0184375 0.00130939 0
-5.42101e-20 -0.0184375 0.00177922 0
-2.71051e-20 0.0184375 0.00177922 0
0 -0.01875 4.3162e-09 0
-4.1359e-25 0.01875 2.2926e-09 0
0 0.01875 0.000466553 0
-1.26381e-20 -0.01875 0.000537326 0
0 0.01875 0.000537324 0
0 -0.01875 0.000821084 0
0 0.01875 0.00106275 0
2.06795e-25 -0.01875 0.00106275 0
8.27181e-25 0.01875 0.00155263 0
0 -0.01875 0.00155263 0
-8.27181e-25 0.01875 0.002 0
0 -0.01875 0.002 0
5.42101e-20 -0.0190625 0.000268959 0
0 0.0190625 0.000268959 0
5.42101e-20 0.0190625 0.000800933 0
-2.71051e-20 -0.0190625 0.000800934 0
-2.71051e-20 0.0190625 0.00130939 0
2.71051e-20 -0.0190625 0.00130939 0
0 -0.0190625 0.00177922 0
-2.71051e-20 0.0190625 0.00177922 0
-8.27181e-25 -0.019375 4.36699e-09 0
-4.1359e-25 0.019375 1.95547e-09 0
0 0.019375 0.000444026 0
4.50958e-21 -0.019375 0.000537325 0
0 0.019375 0.000537324 0
-1.03398e-25 -0.019375 0.000839892 0
0 0.019375 0.00106275 0
-2.06795e-25 -0.019375 0.00106275 0
-9.90466e-21 0.019375 0.00155263 0
0 -0.019375 0.00155263 0
0 0.019375 0.002 0
0 -0.019375 0.002 0
0 0.0196875 0.000268959 0
0 -0.0196875 0.000268959 0
5.42101e-20 0.0196875 0.000800933 0
0 -0.0196875 0.000800933 0
4.1359e-25 0.0197155 0 0
-2.71051e-20 -0.0196875 0.00130939 0
-2.71051e-20 0.0196875 0.00130939 0
2.71051e-20 -0.0196875 0.00177922 0
0 0.0196875 0.00177922 0
0 -0.02 4.17819e-09 0
-4.1359e-25 0.02 1.63357e-09 0
1.29421e-20 -0.02 0.000537325 0
-2.46519e-20 0.02 0.000537325 0
-1.03398e-25 -0.02 0.000819873 0
1.73129e-20 0.02 0.00106275 0
0 -0.02 0.00106275 0
8.61591e-21 0.02 0.00155263 0
-3.0614e-20 -0.02 0.00155263 0
0 0.02 0.002 0
0 -0.02 0.002 0
0 -0.0203125 0.000268959 0
0 0.0203125 0.000268959 0
0 0.0203125 0.000800934 0
5.42101e-20 -0.0203125 0.000800933 0
-2.71051e-20 0.0203125 0.00130939 0
2.71051e-20 -0.0203125 0.00130939 0
0 -0.0203125 0.00177922 0
0 0.0203125 0.00177922 0
1.03398e-25 0.020416 0 0
0 -0.020625 3.81886e-09 0
0 0.020625 8.20659e-10 0
-2.06795e-25 0.020625 0.000252906 0
0 0.020625 0.000537326 0
9.30123e-21 -0.020625 0.000537325 0
-1.03398e-25 -0.020625 0.000762902 0
0 0.020625 0.00106275 0
0 -0.020625 0.00106275 0
0 0.020625 0.00155263 0
-4.1359e-25 -0.020625 0.00155263 0
0 -0.020625 0.002 0
-1.03398e-25 0.020625 0.002 0
-1.03398e-25 0.0207754 0 0
2.71051e-20 0.0209375 0.000268959 0
0 -0.0209375 0.000268959 0
-2.71051e-20 0.0209375 0.000800934 0
2.71051e-20 -0.0209375 0.000800933 0
-2.71051e-20 -0.0209375 0.00130939 0
0 0.0209375 0.00130939 0
-2.71051e-20 0.0209375 0.00177922 0
0 -0.0209375 0.00177922 0
8.27181e-25 -0.02125 3.41774e-09 0
-4.1359e-25 0.02125 2.58998e-09 0
0 0.02125 0.000537326 0
0 -0.02125 0.000537324 0
0 -0.02125 0.000691235 0
0 0.02125 0.00106275 0
-6.9204e-21 -0.02125 0.00106275 0
0 0.02125 0.00155263 0
-8.27181e-25 -0.02125 0.00155263 0
0 0.02125 0.002 0
0 -0.02125 0.002 0
0 0.0215625 0.000268959 0
0 -0.0215625 0.000268959 0
-2.71051e-20 -0.0215625 0.000800933 0
2.71051e-20 0.0215625 0.000800934 0
-5.42101e-20 0.0215625 0.00130939 0
2.71051e-20 -0.0215625 0.00130939 0
2.71051e-20 0.0215625 0.00177922 0
0 -0.0215625 0.00177922 0
4.1359e-25 -0.021875 3.16158e-09 0
0 0.021875 2.40638e-09 0
2.06795e-25 0.021875 0.000537325 0
-5.16988e-26 -0.021875 0.000537324 0
5.16988e-26 -0.021875 0.000654508 0
0 0.021875 0.00106275 0
0 -0.021875 0.00106275 0
0 0.021875 0.00155263 0
0 -0.021875 0.00155263 0
0 -0.021875 0.002 0
0 0.021875 0.002 0
2.71051e-20 -0.0221875 0.000268959 0
0 0.0221875 0.000268959 0
0 -0.0221875 0.000800933 0
0 0.0221875 0.000800933 0
-2.71051e-20 -0.0221875 0.00130939 0
2.71051e-20 0.0221875 0.00130939 0
-2.71051e-20 -0.0221875 0.00177922 0
0 0.0221875 0.00177922 0
2.06795e-25 0.0223143 0 0
0 -0.0225 3.05871e-09 0
2.06795e-25 0.0225 1.01736e-09 0
0 0.0225 0.000250256 0
2.06795e-25 0.0225 0.000537325 0
-5.40759e-21 -0.0225 0.000537324 0
-5.16988e-26 -0.0225 0.0006608 0
0 0.0225 0.00106275 0
2.06795e-25 -0.0225 0.00106275 0
0 0.0225 0.00155263 0
1.27055e-20 -0.0225 0.00155263 0
0 -0.0225 0.002 0
-8.27181e-25 0.0225 0.002 0
0 0.0227144 0 0
-2.71051e-20 0.0228125 0.000268959 0
2.71051e-20 -0.0228125 0.000268959 0
2.71051e-20 -0.0228125 0.000800933 0
0 0.0228125 0.000800933 0
0 0.0228125 0.00130939 0
0 -0.0228125 0.00130939 0
0 -0.0228125 0.00177922 0
-5.42101e-20 0.0228125 0.00177922 0
-4.1359e-25 -0.023125 2.91867e-09 0
0 0.023125 1.94898e-09 0
0 0.023125 0.000537325 0
2.30174e-20 -0.023125 0.000537324 0
-1.03398e-25 -0.023125 0.000646815 0
0 0.023125 0.00106275 0
0 -0.023125 0.00106275 0
-1.4785e-20 -0.023125 0.00155263 0
0 0.023125 0.00155263 0
0 -0.023125 0.002 0
0 0.023125 0.002 0
0 0.0234375 0.000268959 0
-2.71051e-20 -0.0234375 0.000268959 0
0 -0.0234375 0.000800934 0
0 0.0234375 0.000800933 0
0 -0.0234375 0.00130939 0
-2.71051e-20 0.0234375 0.00130939 0
5.42101e-20 -0.0234375 0.00177922 0
0 0.0234375 0.00177922 0
-4.1359e-25 -0.02375 2.59285e-09 0
-4.1359e-25 0.02375 1.99225e-09 0
-2.06795e-25 0.02375 0.000537325 0
5.31842e-21 -0.02375 0.000537325 0
-1.29247e-26 -0.02375 0.000546859 0
0 0.02375 0.00106275 0
2.06795e-25 -0.02375 0.00106275 0
0 -0.0237852 0.000537325 0
-8.27181e-25 -0.02375 0.00155263 0
0 0.02375 0.00155263 0
0 -0.02375 0.002 0
0 0.02375 0.002 0
0 0.0240625 0.000268959 0
0 -0.0240625 0.000268959 0
2.71051e-20 0.0240625 0.000800933 0
0 -0.0240625 0.000800934 0
-2.71051e-20 0.0240625 0.00130939 0
2.71051e-20 -0.0240625 0.00130939 0
0 0.0240625 0.00177922 0
-2.71051e-20 -0.0240625 0.00177922 0
1.03398e-25 -0.0242128 0 0
0 0.024375 1.88323e-09 0
0 -0.024375 9.08926e-10 0
0 0.024375 0.000537325 0
0 -0.024375 0.000537325 0
0 0.024375 0.00106275 0
2.06795e-25 -0.024375 0.00106275 0
8.27181e-25 -0.024375 0.00155263 0
-4.1359e-25 0.024375 0.00155263 0
0 -0.024375 0.002 0
0 0.024375 0.002 0
-2.71051e-20 -0.0246875 0.000268959 0
-2.71051e-20 0.0246875 0.000268959 0
2.71051e-20 0.0246875 0.000800933 0
-2.71051e-20 -0.0246875 0.000800934 0
2.71051e-20 -0.0246875 0.00130939 0
-2.71051e-20 0.0246875 0.00130939 0
-2.71051e-20 -0.0246875 0.00177922 0
2.71051e-20 0.0246875 0.00177922 0
-4.1359e-25 0.025 1.63524e-09 0
0 -0.025 1.12665e-09 0
0 0.025 0.000537325 0
0 -0.025 0.000537325 0
-2.06795e-25 -0.025 0.00106275 0
-2.06795e-25 0.025 0.00106275 0
0 -0.025 0.00155263 0
0 0.025 0.00155263 0
0 -0.025 0.002 0
0 0.025 0.002 0
-2.06795e-25 0.0253058 0 0
0 0.0253125 0.000268959 0
5.42101e-20 -0.0253125 0.000268959 0
2.71051e-20 0.0253125 0.000800933 0
-2.71051e-20 -0.0253125 0.000800933 0
0 -0.0253125 0.00130939 0
-2.71051e-20 0.0253125 0.00130939 0
0 -0.0253125 0.00177922 0
-2.71051e-20 0.0253125 0.00177922 0
0 0.025625 1.70722e-09 0
0 -0.025625 8.65751e-10 0
0 0.025625 0.000440918 0
0 -0.025625 0.000537324 0
-5.16988e-26 0.025625 0.000537324 0
0 -0.025625 0.00106275 0
2.06795e-25 0.025625 0.00106275 0
-8.27181e-25 -0.025625 0.00155263 0
0 0.025625 0.00155263 0
-8.27181e-25 -0.025625 0.002 0
-8.27181e-25 0.025625 0.002 0
0 -0.0257685 0 0
0 -0.0259375 0.000268959 0
0 0.0259375 0.000268959 0
-2.71051e-20 -0.0259375 0.000800933 0
2.71051e-20 0.0259375 0.000800934 0
2.71051e-20 -0.0259375 0.00130939 0
2.71051e-20 0.0259375 0.00130939 0
-2.71051e-20 -0.0259375 0.00177922 0
2.71051e-20 0.0259375 0.00177922 0
0 0.0260194 0 0
0 -0.02625 2.90416e-09 0
-2.06795e-25 0.02625 9.97934e-10 0
0 -0.02625 0.000530125 0
-2.58494e-26 0.02625 0.000537324 0
0 -0.02625 0.000537324 0
0 -0.02625 0.00106275 0
0 0.02625 0.00106275 0
8.27181e-25 -0.02625 0.00155263 0
0 0.02625 0.00155263 0
8.27181e-25 -0.02625 0.002 0
0 0.02625 0.002 0
0 -0.0263377 0.000537324 0
-1.03398e-25 0.0264282 0 0
5.42101e-20 0.0265625 0.000268959 0
2.71051e-20 -0.0265625 0.000268959 0
2.71051e-20 -0.0265625 0.000800933 0
-2.71051e-20 0.0265625 0.000800933 0
0 -0.0265625 0.00130939 0
0 0.0265625 0.00130939 0
2.71051e-20 -0.0265625 0.00177922 0
0 0.0265625 0.00177922 0
6.46235e-27 0.0267372 0.000537324 0
4.1359e-25 0.026875 2.50206e-09 0
0 -0.026875 5.52458e-10 0
0 -0.026875 0.000537324 0
2.5021e-20 0.026875 0.000537324 0
-8.40105e-26 0.026875 0.000558793 0
2.06795e-25 -0.026875 0.000621995 0
-2.06795e-25 -0.026875 0.00106275 0
0 0.026875 0.00106275 0
0 -0.026875 0.00155263 0
0 0.026875 0.00155263 0
0 -0.026875 0.002 0
0 0.026875 0.002 0
0 -0.0271875 0.000268959 0
-2.71051e-20 0.0271875 0.000268959 0
0 -0.0271875 0.000800933 0
-2.71051e-20 0.0271875 0.000800933 0
0 -0.0271875 0.00130939 0
-5.42101e-20 0.0271875 0.00130939 0
2.71051e-20 -0.0271875 0.00177922 0
-2.71051e-20 0.0271875 0.00177922 0
-8.27181e-25 -0.0275 4.04446e-09 0
0 0.0275 2.75748e-09 0
2.2876e-20 -0.0275 0.000537325 0
-4.11817e-21 0.0275 0.000537324 0
1.03398e-25 0.0275 0.000641621 0
-1.55096e-25 -0.0275 0.000714841 0
0 -0.0275 0.00106275 0
0 0.0275 0.00106275 0
0 -0.0275 0.00155263 0
0 0.0275 0.00155263 0
0 -0.0275 0.002 0
0 0.0275 0.002 0
0 0.0278125 0.000268959 0
-2.71051e-20 -0.0278125 0.000268959 0
2.71051e-20 0.0278125 0.000800933 0
0 -0.0278125 0.000800933 0
-2.71051e-20 -0.0278125 0.00130939 0
-2.71051e-20 0.0278125 0.00130939 0
-2.71051e-20 0.0278125 0.00177922 0
-2.71051e-20 -0.0278125 0.00177922 0
0 -0.028125 4.07497e-09 0
0 0.028125 2.8101e-09 0
9.64162e-21 -0.028125 0.000537325 0
5.34669e-22 0.028125 0.000537324 0
5.16988e-26 0.028125 0.00066173 0
-2.06795e-25 -0.028125 0.000762001 0
0 -0.028125 0.00106275 0
0 0.028125 0.00106275 0
8.27181e-25 -0.028125 0.00155263 0
0 0.028125 0.00155263 0
0 -0.028125 0.002 0
0 0.028125 0.002 0
0 0.0284375 0.000268959 0
-2.71051e-20 -0.0284375 0.000268959 0
5.42101e-20 0.0284375 0.000800933 0
0 -0.0284375 0.000800933 0
2.71051e-20 -0.0284375 0.00130939 0
2.71051e-20 0.0284375 0.00130939 0
-2.71051e-20 -0.0284375 0.00177922 0
2.71051e-20 0.0284375 0.00177922 0
0 -0.02875 3.86936e-09 0
4.1359e-25 0.02875 2.82606e-09 0
2.4073e-20 -0.02875 0.000537325 0
1.37416e-20 0.02875 0.000537324 0
5.16988e-26 0.02875 0.000664368 0
1.03398e-25 -0.02875 0.000761843 0
0 -0.02875 0.00106275 0
0 0.02875 0.00106275 0
0 -0.02875 0.00155263 0
-4.1359e-25 0.02875 0.00155263 0
0 -0.02875 0.002 0
0 0.02875 0.002 0
2.71051e-20 -0.0290625 0.000268959 0
0 0.0290625 0.000268959 0
0 0.0290625 0.000800933 0
0 -0.0290625 0.000800933 0
0 -0.0290625 0.00130939 0
2.71051e-20 0.0290625 0.00130939 0
-2.71051e-20 0.0290625 0.00177922 0
2.71051e-20 -0.0290625 0.00177922 0
-1.03398e-25 0.0291998 0.002 0
-8.27181e-25 -0.029375 3.63689e-09 0
4.1359e-25 0.029375 2.90972e-09 0
2.10618e-20 -0.029375 0.000537325 0
4.24344e-22 0.029375 0.000537324 0
0 0.029375 0.000671797 0
2.06795e-25 -0.029375 0.000755036 0
2.06795e-25 -0.029375 0.00106275 0
0 0.029375 0.00106275 0
-8.27181e-25 -0.029375 0.00155263 0
0 0.029375 0.00155263 0
-1.03398e-25 0.029375 0.00186624 0
-8.27181e-25 -0.029375 0.002 0
2.06795e-25 0.029375 0.002 0
2.06795e-25 0.0295291 0.002 0
0 0.0296875 0.000268959 0
0 -0.0296875 0.000268959 0
-2.71051e-20 -0.0296875 0.000800933 0
-2.71051e-20 0.0296875 0.000800933 0
-2.71051e-20 0.0296875 0.00130939 0
-2.71051e-20 -0.0296875 0.00130939 0
0 0.0296875 0.00177922 0
-2.71051e-20 -0.0296875 0.00177922 0
0 -0.03 3.48901e-09 0
-4.1359e-25 0.03 3.06409e-09 0
3.17571e-20 -0.03 0.000537325 0
-7.37085e-21 0.03 0.000537324 0
0 0.03 0.000692962 0
-1.03398e-25 -0.03 0.000749691 0
0 -0.03 0.00106275 0
0 0.03 0.00106275 0
8.27181e-25 -0.03 0.00155263 0
0 0.03 0.00155263 0
-8.27181e-25 -0.03 0.002 0
0 0.03 0.002 0
2.71051e-20 -0.0303125 0.000268959 0
-2.71051e-20 0.0303125 0.000268959 0
-2.71051e-20 0.0303125 0.000800933 0
-2.71051e-20 -0.0303125 0.000800933 0
0 -0.0303125 0.00130939 0
0 0.0303125 0.00130939 0
-5.42101e-20 -0.0303125 0.00177922 0
-2.71051e-20 0.0303125 0.00177922 0
0 -0.030625 3.44107e-09 0
0 0.030625 3.21304e-09 0
5.98072e-21 -0.030625 0.000537325 0
1.65324e-20 0.030625 0.000537324 0
-5.16988e-26 0.030625 0.000710209 0
0 -0.030625 0.000742798 0
-2.06795e-25 -0.030625 0.00106275 0
-2.06795e-25 0.030625 0.00106275 0
0 -0.030625 0.00155263 0
0 0.030625 0.00155263 0
-8.27181e-25 -0.030625 0.002 0
-8.27181e-25 0.030625 0.002 0