# Force       
# CofR        : (0.000000e+00 0.000000e+00 0.000000e+00)
#
# Time        	(total_x total_y total_z)	(pressure_x pressure_y pressure_z)	(viscous_x viscous_y viscous_z)
1             	(1.035445e+01 -2.577666e-04 -1.860145e-02)	(1.031500e+01 -2.578406e-04 -1.845178e-02)	(3.945086e-02 7.398310e-08 -1.496673e-04)
2             	(8.827303e+00 -1.219086e-03 -2.237718e-02)	(8.821543e+00 -1.215736e-03 -2.260718e-02)	(5.759969e-03 -3.349502e-06 2.300042e-04)
3             	(5.511476e+00 -1.367200e-03 4.572497e-02)	(5.523418e+00 -1.358122e-03 4.555610e-02)	(-1.194186e-02 -9.077592e-06 1.688740e-04)
4             	(2.826112e-01 -1.397626e-03 2.883245e-01)	(3.010003e-01 -1.383682e-03 2.890461e-01)	(-1.838913e-02 -1.394412e-05 -7.215269e-04)
5             	(-3.998394e+00 -1.199778e-04 5.446895e-01)	(-3.985962e+00 -9.805031e-05 5.459964e-01)	(-1.243274e-02 -2.192750e-05 -1.306881e-03)
6             	(-5.552620e+00 1.209164e-03 6.562851e-01)	(-5.552040e+00 1.219923e-03 6.565696e-01)	(-5.800502e-04 -1.075846e-05 -2.845293e-04)
7             	(-5.231437e+00 1.823506e-03 6.031637e-01)	(-5.250130e+00 1.824106e-03 6.037094e-01)	(1.869281e-02 -6.004418e-07 -5.456744e-04)
8             	(-3.714175e+00 2.410826e-03 4.573952e-01)	(-3.747564e+00 2.405114e-03 4.575424e-01)	(3.338860e-02 5.712052e-06 -1.472779e-04)
9             	(-1.642097e+00 2.479181e-03 2.672068e-01)	(-1.680765e+00 2.468616e-03 2.664017e-01)	(3.866725e-02 1.056506e-05 8.051139e-04)
10            	(3.623819e-01 1.816611e-03 5.945793e-02)	(3.275523e-01 1.804324e-03 5.820886e-02)	(3.482953e-02 1.228632e-05 1.249074e-03)
11            	(1.660556e+00 4.160003e-04 -6.767301e-02)	(1.635743e+00 3.973435e-04 -6.879377e-02)	(2.481261e-02 1.865676e-05 1.120761e-03)
12            	(2.033756e+00 -8.757398e-04 -9.123639e-02)	(2.021593e+00 -8.826398e-04 -9.188870e-02)	(1.216348e-02 6.899961e-06 6.523068e-04)
13            	(1.851340e+00 -2.438935e-03 -3.934748e-02)	(1.850404e+00 -2.433564e-03 -3.976370e-02)	(9.357874e-04 -5.371580e-06 4.162215e-04)
14            	(1.315816e+00 -2.643714e-03 6.683432e-02)	(1.321667e+00 -2.628251e-03 6.675743e-02)	(-5.850741e-03 -1.546344e-05 7.688742e-05)
15            	(6.614866e-01 -2.718282e-03 1.884169e-01)	(6.690990e-01 -2.679549e-03 1.885016e-01)	(-7.612332e-03 -3.873348e-05 -8.473697e-05)
16            	(1.358823e-01 -2.139162e-03 2.918107e-01)	(1.410491e-01 -2.082184e-03 2.916446e-01)	(-5.166806e-03 -5.697767e-05 1.660213e-04)
17            	(-2.096741e-01 -1.071615e-03 3.600725e-01)	(-2.095689e-01 -1.007876e-03 3.593842e-01)	(-1.051916e-04 -6.373916e-05 6.883878e-04)
18            	(-3.574932e-01 1.546998e-04 3.830958e-01)	(-3.630566e-01 2.197999e-04 3.816500e-01)	(5.563406e-03 -6.510013e-05 1.445821e-03)
19            	(-3.438932e-01 1.303907e-03 3.690785e-01)	(-3.539437e-01 1.361228e-03 3.668306e-01)	(1.005055e-02 -5.732092e-05 2.247859e-03)
20            	(-2.433530e-01 2.142076e-03 3.299623e-01)	(-2.555034e-01 2.186828e-03 3.269269e-01)	(1.215040e-02 -4.475242e-05 3.035380e-03)
21            	(-1.140724e-01 2.303954e-03 2.828125e-01)	(-1.259756e-01 2.338498e-03 2.791902e-01)	(1.190320e-02 -3.454456e-05 3.622316e-03)
22            	(2.414956e-02 1.856825e-03 2.439037e-01)	(1.398912e-02 1.888706e-03 2.399132e-01)	(1.016044e-02 -3.188126e-05 3.990437e-03)
23            	(1.232315e-01 1.017446e-03 2.180943e-01)	(1.153859e-01 1.049785e-03 2.139343e-01)	(7.845596e-03 -3.233891e-05 4.159992e-03)
24            	(1.825997e-01 1.931962e-04 2.075676e-01)	(1.769165e-01 2.316273e-04 2.034022e-01)	(5.683105e-03 -3.843103e-05 4.165367e-03)
25            	(2.084961e-01 -5.895425e-04 2.092369e-01)	(2.043711e-01 -5.419039e-04 2.052000e-01)	(4.124938e-03 -4.763860e-05 4.036937e-03)
26            	(2.135491e-01 -1.131365e-03 2.172001e-01)	(2.102056e-01 -1.073441e-03 2.133404e-01)	(3.343526e-03 -5.792367e-05 3.859671e-03)
27            	(2.096859e-01 -1.370968e-03 2.266153e-01)	(2.063979e-01 -1.303401e-03 2.228822e-01)	(3.287986e-03 -6.756694e-05 3.733081e-03)
28            	(2.037913e-01 -1.306150e-03 2.342434e-01)	(2.000452e-01 -1.232458e-03 2.305468e-01)	(3.746132e-03 -7.369276e-05 3.696575e-03)
29            	(2.092196e-01 -1.112645e-03 2.376671e-01)	(2.047480e-01 -1.037111e-03 2.339265e-01)	(4.471584e-03 -7.553353e-05 3.740636e-03)
30            	(2.032105e-01 -8.380287e-04 2.373578e-01)	(1.980393e-01 -7.643850e-04 2.335166e-01)	(5.171184e-03 -7.364372e-05 3.841162e-03)
31            	(2.010746e-01 -4.431522e-04 2.345339e-01)	(1.953891e-01 -3.752509e-04 2.305622e-01)	(5.685489e-03 -6.790128e-05 3.971690e-03)
32            	(1.987514e-01 1.015372e-04 2.306614e-01)	(1.927995e-01 1.598969e-04 2.265560e-01)	(5.951970e-03 -5.835964e-05 4.105419e-03)
33            	(1.974586e-01 4.133715e-04 2.233821e-01)	(1.914770e-01 4.616908e-04 2.191776e-01)	(5.981580e-03 -4.831935e-05 4.204568e-03)
34            	(1.994047e-01 6.366523e-04 2.130399e-01)	(1.935365e-01 6.751865e-04 2.087785e-01)	(5.868226e-03 -3.853429e-05 4.261436e-03)
35            	(2.064306e-01 6.856913e-04 2.016000e-01)	(2.007156e-01 7.159634e-04 1.973404e-01)	(5.715020e-03 -3.027208e-05 4.259627e-03)
36            	(2.275204e-01 6.460788e-04 1.870523e-01)	(2.218881e-01 6.700273e-04 1.828560e-01)	(5.632305e-03 -2.394855e-05 4.196251e-03)
37            	(2.466613e-01 5.374440e-04 1.708121e-01)	(2.410042e-01 5.568331e-04 1.667308e-01)	(5.657088e-03 -1.938910e-05 4.081229e-03)
38            	(2.595796e-01 4.387909e-04 1.536988e-01)	(2.538176e-01 4.551211e-04 1.497587e-01)	(5.762029e-03 -1.633013e-05 3.940078e-03)
39            	(2.758341e-01 1.689518e-04 1.354965e-01)	(2.698825e-01 1.846305e-04 1.317106e-01)	(5.951595e-03 -1.567874e-05 3.785940e-03)
40            	(2.936031e-01 5.147966e-05 1.186775e-01)	(2.873956e-01 6.761504e-05 1.150439e-01)	(6.207451e-03 -1.613538e-05 3.633583e-03)
41            	(3.112706e-01 -9.185142e-05 1.025019e-01)	(3.047563e-01 -7.441577e-05 9.902040e-02)	(6.514286e-03 -1.743565e-05 3.481504e-03)
42            	(3.284379e-01 -2.220772e-04 8.794290e-02)	(3.215957e-01 -2.026803e-04 8.460991e-02)	(6.842261e-03 -1.939686e-05 3.332982e-03)
43            	(3.465822e-01 -4.354579e-04 7.665292e-02)	(3.394095e-01 -4.131507e-04 7.346115e-02)	(7.172709e-03 -2.230722e-05 3.191769e-03)
44            	(3.562237e-01 -5.153402e-04 6.708464e-02)	(3.487642e-01 -4.902659e-04 6.402231e-02)	(7.459469e-03 -2.507430e-05 3.062329e-03)
45            	(3.599001e-01 -5.556955e-04 6.034345e-02)	(3.522028e-01 -5.285861e-04 5.740102e-02)	(7.697232e-03 -2.710937e-05 2.942423e-03)
46            	(3.579769e-01 -5.033494e-04 5.822067e-02)	(3.500951e-01 -4.753730e-04 5.538124e-02)	(7.881798e-03 -2.797647e-05 2.839425e-03)
47            	(3.542575e-01 -5.240447e-04 5.582834e-02)	(3.462374e-01 -4.955933e-04 5.308243e-02)	(8.020140e-03 -2.845138e-05 2.745901e-03)
48            	(3.443784e-01 -3.543729e-04 5.493208e-02)	(3.362813e-01 -3.268603e-04 5.227676e-02)	(8.097163e-03 -2.751264e-05 2.655319e-03)
49            	(3.348631e-01 -3.891031e-04 5.514238e-02)	(3.267294e-01 -3.619523e-04 5.257188e-02)	(8.133663e-03 -2.715078e-05 2.570503e-03)
50            	(3.241048e-01 -4.369670e-04 5.576845e-02)	(3.159769e-01 -4.093143e-04 5.327167e-02)	(8.127915e-03 -2.765271e-05 2.496775e-03)
51            	(3.054785e-01 -4.141826e-04 5.449361e-02)	(2.974099e-01 -3.856766e-04 5.206765e-02)	(8.068673e-03 -2.850600e-05 2.425963e-03)
52            	(2.957531e-01 -4.715332e-04 5.528864e-02)	(2.877585e-01 -4.412975e-04 5.292600e-02)	(7.994571e-03 -3.023570e-05 2.362638e-03)
53            	(2.870205e-01 -5.270776e-04 5.542261e-02)	(2.791126e-01 -4.944127e-04 5.311146e-02)	(7.907962e-03 -3.266486e-05 2.311149e-03)
54            	(2.757067e-01 -4.982021e-04 5.181584e-02)	(2.679021e-01 -4.632840e-04 4.956461e-02)	(7.804667e-03 -3.491808e-05 2.251233e-03)
55            	(2.699853e-01 -5.126869e-04 5.141164e-02)	(2.622802e-01 -4.752106e-04 4.921581e-02)	(7.705097e-03 -3.747623e-05 2.195827e-03)
56            	(2.660758e-01 -5.239915e-04 5.051071e-02)	(2.584565e-01 -4.837730e-04 4.835864e-02)	(7.619333e-03 -4.021852e-05 2.152070e-03)
57            	(2.633186e-01 -5.374649e-04 4.915773e-02)	(2.557718e-01 -4.942434e-04 4.704601e-02)	(7.546745e-03 -4.322152e-05 2.111725e-03)
58            	(2.609577e-01 -5.329686e-04 4.743329e-02)	(2.534714e-01 -4.867001e-04 4.536000e-02)	(7.486298e-03 -4.626855e-05 2.073290e-03)
59            	(2.589633e-01 -5.089046e-04 4.549086e-02)	(2.515266e-01 -4.597387e-04 4.345485e-02)	(7.436706e-03 -4.916590e-05 2.036006e-03)
60            	(2.579892e-01 -5.532375e-04 4.025196e-02)	(2.505892e-01 -5.007780e-04 3.826612e-02)	(7.400061e-03 -5.245949e-05 1.985837e-03)
61            	(2.574978e-01 -5.004033e-04 3.941775e-02)	(2.501261e-01 -4.451021e-04 3.747700e-02)	(7.371719e-03 -5.530125e-05 1.940749e-03)
62            	(2.572502e-01 -4.481802e-04 3.894171e-02)	(2.498982e-01 -3.903036e-04 3.703704e-02)	(7.351978e-03 -5.787666e-05 1.904677e-03)
63            	(2.568194e-01 -3.915659e-04 3.859674e-02)	(2.494837e-01 -3.320645e-04 3.672498e-02)	(7.335707e-03 -5.950143e-05 1.871753e-03)
64            	(2.560104e-01 -3.290395e-04 3.821308e-02)	(2.486904e-01 -2.691976e-04 3.637281e-02)	(7.320037e-03 -5.984192e-05 1.840273e-03)
65            	(2.548197e-01 -2.513741e-04 3.657076e-02)	(2.475165e-01 -1.923693e-04 3.476727e-02)	(7.303205e-03 -5.900475e-05 1.803492e-03)
66            	(2.532995e-01 -1.863064e-04 3.591256e-02)	(2.460159e-01 -1.290204e-04 3.414502e-02)	(7.283528e-03 -5.728598e-05 1.767544e-03)
67            	(2.515276e-01 -1.257185e-04 3.506722e-02)	(2.442673e-01 -7.067619e-05 3.333543e-02)	(7.260263e-03 -5.504230e-05 1.731794e-03)
68            	(2.494648e-01 -7.510547e-05 3.400442e-02)	(2.422307e-01 -2.258832e-05 3.230893e-02)	(7.234066e-03 -5.251716e-05 1.695491e-03)
69            	(2.473988e-01 -3.532662e-05 3.275144e-02)	(2.401931e-01 1.472017e-05 3.109340e-02)	(7.205712e-03 -5.004679e-05 1.658044e-03)
70            	(2.454123e-01 -2.160368e-05 3.136366e-02)	(2.382365e-01 2.629390e-05 2.974423e-02)	(7.175825e-03 -4.789758e-05 1.619428e-03)
71            	(2.426972e-01 -5.802062e-05 2.878976e-02)	(2.355544e-01 -1.176367e-05 2.721470e-02)	(7.142890e-03 -4.625695e-05 1.575060e-03)
72            	(2.414649e-01 -8.821770e-05 2.746888e-02)	(2.343542e-01 -4.319062e-05 2.593624e-02)	(7.110745e-03 -4.502707e-05 1.532643e-03)
73            	(2.406759e-01 -1.462052e-04 2.623549e-02)	(2.335951e-01 -1.023464e-04 2.474361e-02)	(7.080747e-03 -4.385883e-05 1.491872e-03)
74            	(2.402630e-01 -2.293765e-04 2.510320e-02)	(2.332103e-01 -1.867537e-04 2.364971e-02)	(7.052664e-03 -4.262281e-05 1.453487e-03)
75            	(2.400657e-01 -3.192783e-04 2.408753e-02)	(2.330396e-01 -2.780132e-04 2.266992e-02)	(7.026077e-03 -4.126509e-05 1.417613e-03)
76            	(2.400333e-01 -4.098271e-04 2.317891e-02)	(2.330327e-01 -3.700784e-04 2.179483e-02)	(7.000670e-03 -3.974865e-05 1.384086e-03)
77            	(2.407478e-01 -5.088891e-04 2.235779e-02)	(2.337694e-01 -4.706733e-04 2.100536e-02)	(6.978444e-03 -3.821581e-05 1.352427e-03)
78            	(2.396330e-01 -5.632776e-04 2.157106e-02)	(2.326803e-01 -5.267524e-04 2.024798e-02)	(6.952683e-03 -3.652519e-05 1.323082e-03)
79            	(2.385268e-01 -6.065409e-04 2.088727e-02)	(2.316025e-01 -5.715976e-04 1.959169e-02)	(6.924224e-03 -3.494338e-05 1.295581e-03)
80            	(2.372935e-01 -6.322028e-04 2.032142e-02)	(2.304002e-01 -5.985871e-04 1.905174e-02)	(6.893302e-03 -3.361575e-05 1.269686e-03)
81            	(2.361011e-01 -6.179882e-04 1.988111e-02)	(2.292406e-01 -5.856425e-04 1.863595e-02)	(6.860546e-03 -3.234568e-05 1.245167e-03)
82            	(2.345847e-01 -6.101023e-04 1.957637e-02)	(2.277594e-01 -5.788223e-04 1.835446e-02)	(6.825309e-03 -3.128000e-05 1.221915e-03)
83            	(2.332560e-01 -5.792140e-04 1.937414e-02)	(2.264672e-01 -5.489040e-04 1.817460e-02)	(6.788836e-03 -3.031000e-05 1.199541e-03)
84            	(2.317982e-01 -5.432448e-04 1.924788e-02)	(2.250471e-01 -5.138715e-04 1.806999e-02)	(6.751153e-03 -2.937336e-05 1.177886e-03)
85            	(2.302188e-01 -5.093528e-04 1.916211e-02)	(2.235065e-01 -4.810450e-04 1.800524e-02)	(6.712233e-03 -2.830786e-05 1.156869e-03)
86            	(2.286272e-01 -4.770583e-04 1.908402e-02)	(2.219549e-01 -4.501463e-04 1.794762e-02)	(6.672309e-03 -2.691201e-05 1.136394e-03)
87            	(2.270580e-01 -4.509682e-04 1.897368e-02)	(2.204264e-01 -4.257151e-04 1.785732e-02)	(6.631567e-03 -2.525309e-05 1.116356e-03)
88            	(2.256064e-01 -4.315991e-04 1.880615e-02)	(2.190160e-01 -4.081855e-04 1.770955e-02)	(6.590455e-03 -2.341363e-05 1.096604e-03)
89            	(2.243685e-01 -4.183979e-04 1.856920e-02)	(2.178188e-01 -3.969026e-04 1.749231e-02)	(6.549770e-03 -2.149530e-05 1.076884e-03)
90            	(2.234304e-01 -4.111878e-04 1.826615e-02)	(2.169199e-01 -3.916182e-04 1.720924e-02)	(6.510428e-03 -1.956954e-05 1.056908e-03)
91            	(2.229291e-01 -4.070618e-04 1.793026e-02)	(2.164555e-01 -3.894785e-04 1.689369e-02)	(6.473658e-03 -1.758326e-05 1.036576e-03)
92            	(2.239421e-01 -4.036647e-04 1.762875e-02)	(2.174983e-01 -3.881254e-04 1.661303e-02)	(6.443807e-03 -1.553928e-05 1.015715e-03)
93            	(2.250426e-01 -4.056483e-04 1.743378e-02)	(2.186231e-01 -3.920567e-04 1.643871e-02)	(6.419505e-03 -1.359158e-05 9.950697e-04)
94            	(2.250539e-01 -4.133165e-04 1.741458e-02)	(2.186580e-01 -4.014576e-04 1.643875e-02)	(6.395882e-03 -1.185890e-05 9.758315e-04)
95            	(2.251883e-01 -4.243208e-04 1.763791e-02)	(2.188148e-01 -4.138944e-04 1.667917e-02)	(6.373560e-03 -1.042638e-05 9.587353e-04)
96            	(2.254061e-01 -4.373524e-04 1.815052e-02)	(2.190531e-01 -4.279364e-04 1.720611e-02)	(6.353082e-03 -9.416061e-06 9.444110e-04)
97            	(2.256501e-01 -4.510794e-04 1.897996e-02)	(2.193156e-01 -4.422001e-04 1.804655e-02)	(6.334480e-03 -8.879326e-06 9.334106e-04)
98            	(2.258647e-01 -4.639808e-04 2.013741e-02)	(2.195472e-01 -4.551639e-04 1.921123e-02)	(6.317551e-03 -8.816858e-06 9.261805e-04)
99            	(2.260146e-01 -4.745617e-04 2.161367e-02)	(2.197126e-01 -4.654349e-04 2.069063e-02)	(6.301981e-03 -9.126837e-06 9.230410e-04)
100           	(2.264203e-01 -4.867461e-04 2.339661e-02)	(2.201318e-01 -4.770301e-04 2.247249e-02)	(6.288470e-03 -9.715985e-06 9.241204e-04)
101           	(2.266394e-01 -4.929484e-04 2.541289e-02)	(2.203633e-01 -4.824976e-04 2.448335e-02)	(6.276089e-03 -1.045087e-05 9.295418e-04)
102           	(2.265156e-01 -4.876097e-04 2.756901e-02)	(2.202520e-01 -4.764131e-04 2.662976e-02)	(6.263641e-03 -1.119657e-05 9.392498e-04)
103           	(2.261149e-01 -4.636148e-04 2.978387e-02)	(2.198643e-01 -4.518220e-04 2.883085e-02)	(6.250528e-03 -1.179288e-05 9.530134e-04)
104           	(2.255493e-01 -4.218971e-04 3.202196e-02)	(2.193126e-01 -4.097370e-04 3.105135e-02)	(6.236689e-03 -1.216006e-05 9.706072e-04)
105           	(2.249115e-01 -3.640861e-04 3.426172e-02)	(2.186891e-01 -3.518440e-04 3.326992e-02)	(6.222336e-03 -1.224214e-05 9.918000e-04)
106           	(2.243758e-01 -2.964946e-04 3.648564e-02)	(2.181676e-01 -2.844106e-04 3.546951e-02)	(6.208112e-03 -1.208400e-05 1.016131e-03)
107           	(2.240348e-01 -2.258188e-04 3.866171e-02)	(2.178401e-01 -2.140045e-04 3.761867e-02)	(6.194779e-03 -1.181426e-05 1.043044e-03)
108           	(2.237452e-01 -1.589549e-04 4.074728e-02)	(2.175627e-01 -1.474231e-04 3.967526e-02)	(6.182474e-03 -1.153181e-05 1.072020e-03)
109           	(2.237089e-01 -9.934112e-05 4.272121e-02)	(2.175369e-01 -8.807471e-05 4.161868e-02)	(6.172003e-03 -1.126642e-05 1.102532e-03)
110           	(2.237507e-01 -4.512485e-05 4.456373e-02)	(2.175871e-01 -3.412840e-05 4.342970e-02)	(6.163554e-03 -1.099644e-05 1.134030e-03)
111           	(2.238119e-01 2.088615e-06 4.626754e-02)	(2.176547e-01 1.278964e-05 4.510153e-02)	(6.157128e-03 -1.070102e-05 1.166008e-03)
112           	(2.238919e-01 3.673903e-05 4.782594e-02)	(2.177391e-01 4.714118e-05 4.662798e-02)	(6.152790e-03 -1.040215e-05 1.197964e-03)
113           	(2.239845e-01 5.553371e-05 4.921800e-02)	(2.178340e-01 6.571381e-05 4.798856e-02)	(6.150510e-03 -1.018010e-05 1.229444e-03)
114           	(2.241037e-01 5.468391e-05 5.042037e-02)	(2.179535e-01 6.479932e-05 4.916048e-02)	(6.150164e-03 -1.011540e-05 1.259889e-03)
115           	(2.242601e-01 3.425470e-05 5.140747e-02)	(2.181086e-01 4.453864e-05 5.011879e-02)	(6.151528e-03 -1.028394e-05 1.288674e-03)
116           	(2.255631e-01 -8.116939e-06 5.216703e-02)	(2.194053e-01 2.647297e-06 5.085227e-02)	(6.157806e-03 -1.076424e-05 1.314760e-03)
117           	(2.256626e-01 -5.946839e-05 5.267923e-02)	(2.194987e-01 -4.787251e-05 5.134111e-02)	(6.163891e-03 -1.159587e-05 1.338119e-03)
118           	(2.258601e-01 -1.257059e-04 5.294932e-02)	(2.196903e-01 -1.129114e-04 5.159097e-02)	(6.169773e-03 -1.279450e-05 1.358351e-03)
119           	(2.270932e-01 -2.084063e-04 5.298369e-02)	(2.209142e-01 -1.939548e-04 5.160901e-02)	(6.178982e-03 -1.445148e-05 1.374679e-03)
120           	(2.275345e-01 -2.816505e-04 5.279731e-02)	(2.213465e-01 -2.652569e-04 5.140999e-02)	(6.188016e-03 -1.639363e-05 1.387318e-03)
121           	(2.289793e-01 -3.653605e-04 5.240402e-02)	(2.227795e-01 -3.467962e-04 5.100816e-02)	(6.199773e-03 -1.856432e-05 1.395860e-03)
122           	(2.297671e-01 -4.287927e-04 5.184119e-02)	(2.235554e-01 -4.080354e-04 5.044052e-02)	(6.211709e-03 -2.075733e-05 1.400668e-03)
123           	(2.308056e-01 -4.866871e-04 5.112150e-02)	(2.245812e-01 -4.638416e-04 4.971961e-02)	(6.224402e-03 -2.284544e-05 1.401883e-03)
124           	(2.320454e-01 -5.363293e-04 5.026208e-02)	(2.258068e-01 -5.115620e-04 4.886253e-02)	(6.238668e-03 -2.476725e-05 1.399554e-03)
125           	(2.334872e-01 -5.778236e-04 4.928308e-02)	(2.272322e-01 -5.513601e-04 4.788928e-02)	(6.254929e-03 -2.646355e-05 1.393807e-03)
126           	(2.360316e-01 -6.150572e-04 4.819674e-02)	(2.297552e-01 -5.871030e-04 4.681232e-02)	(6.276406e-03 -2.795422e-05 1.384418e-03)
127           	(2.382430e-01 -6.370453e-04 4.704458e-02)	(2.319421e-01 -6.078219e-04 4.567265e-02)	(6.300937e-03 -2.922337e-05 1.371930e-03)
128           	(2.394563e-01 -6.360937e-04 4.586863e-02)	(2.331319e-01 -6.059231e-04 4.451134e-02)	(6.324465e-03 -3.017058e-05 1.357293e-03)
129           	(2.406047e-01 -6.244743e-04 4.466799e-02)	(2.342575e-01 -5.936338e-04 4.332718e-02)	(6.347223e-03 -3.084058e-05 1.340803e-03)
130           	(2.424719e-01 -6.093416e-04 4.345061e-02)	(2.360999e-01 -5.779645e-04 4.212831e-02)	(6.371988e-03 -3.137712e-05 1.322300e-03)
131           	(2.440622e-01 -5.870485e-04 4.224907e-02)	(2.376648e-01 -5.552418e-04 4.094685e-02)	(6.397343e-03 -3.180669e-05 1.302216e-03)
132           	(2.454208e-01 -5.609677e-04 4.108726e-02)	(2.389987e-01 -5.288372e-04 3.980618e-02)	(6.422082e-03 -3.213056e-05 1.281085e-03)
133           	(2.465965e-01 -5.326643e-04 3.999213e-02)	(2.401507e-01 -5.002383e-04 3.873269e-02)	(6.445745e-03 -3.242594e-05 1.259440e-03)
134           	(2.473017e-01 -4.422597e-04 3.864282e-02)	(2.408346e-01 -4.098270e-04 3.740594e-02)	(6.467083e-03 -3.243273e-05 1.236878e-03)
135           	(2.478544e-01 -4.171774e-04 3.790772e-02)	(2.413684e-01 -3.844624e-04 3.669200e-02)	(6.486057e-03 -3.271500e-05 1.215716e-03)
136           	(2.479501e-01 -3.823146e-04 3.726848e-02)	(2.414475e-01 -3.492715e-04 3.607201e-02)	(6.502590e-03 -3.304307e-05 1.196475e-03)
137           	(2.479518e-01 -3.514170e-04 3.669725e-02)	(2.414352e-01 -3.178829e-04 3.551844e-02)	(6.516545e-03 -3.353415e-05 1.178816e-03)
138           	(2.478873e-01 -3.251963e-04 3.618417e-02)	(2.413588e-01 -2.909851e-04 3.502144e-02)	(6.528499e-03 -3.421119e-05 1.162728e-03)
139           	(2.478483e-01 -3.031244e-04 3.573494e-02)	(2.413092e-01 -2.680537e-04 3.458675e-02)	(6.539034e-03 -3.507064e-05 1.148198e-03)
140           	(2.478643e-01 -2.837223e-04 3.536619e-02)	(2.413157e-01 -2.476210e-04 3.423091e-02)	(6.548605e-03 -3.610137e-05 1.135280e-03)
141           	(2.495771e-01 -2.691602e-04 3.500343e-02)	(2.430142e-01 -2.317626e-04 3.388017e-02)	(6.562827e-03 -3.739764e-05 1.123261e-03)
142           	(2.495664e-01 -2.495970e-04 3.493151e-02)	(2.429917e-01 -2.108851e-04 3.381822e-02)	(6.574766e-03 -3.871188e-05 1.113284e-03)
143           	(2.494935e-01 -2.219345e-04 3.499364e-02)	(2.429094e-01 -1.819573e-04 3.388773e-02)	(6.584031e-03 -3.997725e-05 1.105905e-03)
144           	(2.493856e-01 -1.847556e-04 3.517804e-02)	(2.427944e-01 -1.436220e-04 3.407732e-02)	(6.591235e-03 -4.113361e-05 1.100725e-03)
145           	(2.492659e-01 -1.385271e-04 3.547395e-02)	(2.426693e-01 -9.636880e-05 3.437630e-02)	(6.596547e-03 -4.215827e-05 1.097653e-03)
146           	(2.494514e-01 -8.914432e-05 3.586702e-02)	(2.428503e-01 -4.605528e-05 3.477058e-02)	(6.601135e-03 -4.308904e-05 1.096439e-03)
147           	(2.506335e-01 -9.493525e-06 3.642534e-02)	(2.440259e-01 3.439810e-05 3.532840e-02)	(6.607675e-03 -4.389163e-05 1.096937e-03)
148           	(2.503660e-01 4.987786e-05 3.697125e-02)	(2.437549e-01 9.442468e-05 3.587235e-02)	(6.611167e-03 -4.454682e-05 1.098899e-03)
149           	(2.500585e-01 1.093016e-04 3.757903e-02)	(2.434467e-01 1.545225e-04 3.647612e-02)	(6.611801e-03 -4.522090e-05 1.102916e-03)
150           	(2.497200e-01 1.669002e-04 3.823443e-02)	(2.431098e-01 2.128198e-04 3.712615e-02)	(6.610186e-03 -4.591964e-05 1.108280e-03)
151           	(2.493720e-01 2.197800e-04 3.891823e-02)	(2.427653e-01 2.664924e-04 3.780352e-02)	(6.606699e-03 -4.671243e-05 1.114714e-03)
152           	(2.490456e-01 2.652728e-04 3.960644e-02)	(2.424439e-01 3.129248e-04 3.848453e-02)	(6.601773e-03 -4.765199e-05 1.121915e-03)
153           	(2.487750e-01 3.006510e-04 4.027430e-02)	(2.421791e-01 3.494306e-04 3.914475e-02)	(6.595893e-03 -4.877960e-05 1.129556e-03)
154           	(2.490879e-01 3.228737e-04 4.090069e-02)	(2.424967e-01 3.729961e-04 3.976359e-02)	(6.591214e-03 -5.012244e-05 1.137095e-03)
155           	(2.494283e-01 3.279962e-04 4.146596e-02)	(2.428408e-01 3.797049e-04 4.032166e-02)	(6.587543e-03 -5.170868e-05 1.144299e-03)
156           	(2.493313e-01 3.199172e-04 4.195937e-02)	(2.427482e-01 3.734511e-04 4.080815e-02)	(6.583079e-03 -5.353385e-05 1.151222e-03)
157           	(2.493171e-01 2.970213e-04 4.237914e-02)	(2.427387e-01 3.526307e-04 4.122144e-02)	(6.578400e-03 -5.560941e-05 1.157698e-03)
158           	(2.498743e-01 2.539342e-04 4.272648e-02)	(2.432986e-01 3.118975e-04 4.156313e-02)	(6.575708e-03 -5.796334e-05 1.163356e-03)
159           	(2.503995e-01 1.987240e-04 4.300269e-02)	(2.438250e-01 2.592848e-04 4.183451e-02)	(6.574483e-03 -6.056080e-05 1.168188e-03)
160           	(2.505014e-01 1.425622e-04 4.321295e-02)	(2.439286e-01 2.058898e-04 4.204054e-02)	(6.572864e-03 -6.332757e-05 1.172415e-03)
161           	(2.506381e-01 8.031957e-05 4.336469e-02)	(2.440669e-01 1.465683e-04 4.218866e-02)	(6.571193e-03 -6.624869e-05 1.176036e-03)
162           	(2.508084e-01 1.386863e-05 4.346134e-02)	(2.442385e-01 8.315080e-05 4.228233e-02)	(6.569869e-03 -6.928217e-05 1.179007e-03)
163           	(2.515633e-01 -6.582949e-05 4.350327e-02)	(2.449924e-01 6.651733e-06 4.232222e-02)	(6.570883e-03 -7.248123e-05 1.181045e-03)
164           	(2.517329e-01 -1.342938e-04 4.350093e-02)	(2.451611e-01 -5.859822e-05 4.231847e-02)	(6.571777e-03 -7.569555e-05 1.182460e-03)
165           	(2.519016e-01 -2.010666e-04 4.345444e-02)	(2.453291e-01 -1.221455e-04 4.227117e-02)	(6.572498e-03 -7.892112e-05 1.183274e-03)
166           	(2.520679e-01 -2.643826e-04 4.336677e-02)	(2.454945e-01 -1.822516e-04 4.218331e-02)	(6.573338e-03 -8.213102e-05 1.183459e-03)
167           	(2.522299e-01 -3.226523e-04 4.324272e-02)	(2.456556e-01 -2.373507e-04 4.205971e-02)	(6.574312e-03 -8.530154e-05 1.183016e-03)
168           	(2.528782e-01 -3.745342e-04 4.308543e-02)	(2.463011e-01 -2.861299e-04 4.190369e-02)	(6.577088e-03 -8.840433e-05 1.181736e-03)
169           	(2.529536e-01 -4.189195e-04 4.292176e-02)	(2.463743e-01 -3.275153e-04 4.174174e-02)	(6.579314e-03 -9.140418e-05 1.180017e-03)
170           	(2.530098e-01 -4.541504e-04 4.275556e-02)	(2.464288e-01 -3.598410e-04 4.157759e-02)	(6.580993e-03 -9.430949e-05 1.177977e-03)
171           	(2.530446e-01 -4.789593e-04 4.260110e-02)	(2.464621e-01 -3.818946e-04 4.142536e-02)	(6.582459e-03 -9.706463e-05 1.175735e-03)
172           	(2.533951e-01 -4.782883e-04 4.246164e-02)	(2.468101e-01 -3.787690e-04 4.128837e-02)	(6.584973e-03 -9.951926e-05 1.173271e-03)
173           	(2.533620e-01 -4.819918e-04 4.238510e-02)	(2.467750e-01 -3.802130e-04 4.121404e-02)	(6.586985e-03 -1.017788e-04 1.171057e-03)
174           	(2.534947e-01 -4.541301e-04 4.235410e-02)	(2.469055e-01 -3.504477e-04 4.118494e-02)	(6.589222e-03 -1.036824e-04 1.169153e-03)
175           	(2.533785e-01 -4.393227e-04 4.240473e-02)	(2.467876e-01 -3.339563e-04 4.123681e-02)	(6.590885e-03 -1.053664e-04 1.167926e-03)
176           	(2.532145e-01 -4.158938e-04 4.252068e-02)	(2.466226e-01 -3.090758e-04 4.135322e-02)	(6.591960e-03 -1.068180e-04 1.167463e-03)
177           	(2.530006e-01 -3.845449e-04 4.269694e-02)	(2.464081e-01 -2.765798e-04 4.152914e-02)	(6.592518e-03 -1.079651e-04 1.167801e-03)
178           	(2.527405e-01 -3.310931e-04 4.292210e-02)	(2.461479e-01 -2.224323e-04 4.175319e-02)	(6.592536e-03 -1.086608e-04 1.168904e-03)
179           	(2.524349e-01 -2.657168e-04 4.319115e-02)	(2.458429e-01 -1.568390e-04 4.202042e-02)	(6.591973e-03 -1.088778e-04 1.170731e-03)
180           	(2.516392e-01 -2.148465e-04 4.351387e-02)	(2.450499e-01 -1.060371e-04 4.234037e-02)	(6.589339e-03 -1.088094e-04 1.173498e-03)
181           	(2.513030e-01 -1.661632e-04 4.382177e-02)	(2.447164e-01 -5.769129e-05 4.264513e-02)	(6.586542e-03 -1.084719e-04 1.176635e-03)
182           	(2.509370e-01 -1.181784e-04 4.413457e-02)	(2.443534e-01 -1.028409e-05 4.295462e-02)	(6.583532e-03 -1.078943e-04 1.179947e-03)
183           	(2.505385e-01 -7.230186e-05 4.444441e-02)	(2.439586e-01 3.479717e-05 4.326102e-02)	(6.579976e-03 -1.070990e-04 1.183393e-03)
184           	(2.501086e-01 -2.973092e-05 4.474282e-02)	(2.435328e-01 7.639276e-05 4.355595e-02)	(6.575776e-03 -1.061237e-04 1.186861e-03)
185           	(2.484609e-01 3.691344e-05 4.505314e-02)	(2.418940e-01 1.417124e-04 4.386225e-02)	(6.566928e-03 -1.047990e-04 1.190891e-03)
186           	(2.481035e-01 6.658174e-05 4.527378e-02)	(2.415447e-01 1.700628e-04 4.407943e-02)	(6.558793e-03 -1.034811e-04 1.194357e-03)
187           	(2.477428e-01 8.982076e-05 4.545632e-02)	(2.411914e-01 1.920289e-04 4.425922e-02)	(6.551373e-03 -1.022081e-04 1.197104e-03)
188           	(2.469458e-01 1.132239e-04 4.562743e-02)	(2.404033e-01 2.141738e-04 4.442797e-02)	(6.542516e-03 -1.009499e-04 1.199467e-03)
189           	(2.464235e-01 1.170152e-04 4.574444e-02)	(2.398901e-01 2.168350e-04 4.454328e-02)	(6.533353e-03 -9.981980e-05 1.201160e-03)
190           	(2.458727e-01 1.118643e-04 4.584255e-02)	(2.393488e-01 2.107085e-04 4.464031e-02)	(6.523861e-03 -9.884428e-05 1.202240e-03)
191           	(2.453037e-01 9.899832e-05 4.592819e-02)	(2.387899e-01 1.970121e-04 4.472537e-02)	(6.513876e-03 -9.801381e-05 1.202821e-03)
192           	(2.447397e-01 8.018782e-05 4.600427e-02)	(2.382362e-01 1.775044e-04 4.480130e-02)	(6.503440e-03 -9.731654e-05 1.202975e-03)
193           	(2.442009e-01 5.778535e-05 4.607297e-02)	(2.377082e-01 1.545106e-04 4.487022e-02)	(6.492658e-03 -9.672522e-05 1.202753e-03)
194           	(2.437806e-01 4.267997e-05 4.613591e-02)	(2.372987e-01 1.388074e-04 4.493374e-02)	(6.481927e-03 -9.612743e-05 1.202169e-03)
195           	(2.433712e-01 3.048015e-05 4.620229e-02)	(2.369000e-01 1.259641e-04 4.500096e-02)	(6.471190e-03 -9.548394e-05 1.201329e-03)
196           	(2.429362e-01 1.901331e-05 4.627597e-02)	(2.364759e-01 1.137972e-04 4.507560e-02)	(6.460275e-03 -9.478391e-05 1.200363e-03)
197           	(2.424717e-01 9.416062e-06 4.636005e-02)	(2.360226e-01 1.034301e-04 4.516065e-02)	(6.449101e-03 -9.401406e-05 1.199403e-03)
198           	(2.419583e-01 1.674946e-06 4.645626e-02)	(2.355207e-01 9.484280e-05 4.525769e-02)	(6.437577e-03 -9.316786e-05 1.198568e-03)
199           	(2.413576e-01 -2.020446e-06 4.656714e-02)	(2.349321e-01 9.021060e-05 4.536920e-02)	(6.425504e-03 -9.223104e-05 1.197945e-03)
200           	(2.407518e-01 2.299609e-06 4.669148e-02)	(2.343388e-01 9.346565e-05 4.549392e-02)	(6.413028e-03 -9.116605e-05 1.197564e-03)
201           	(2.401506e-01 1.513944e-05 4.682876e-02)	(2.337503e-01 1.050815e-04 4.563132e-02)	(6.400309e-03 -8.994210e-05 1.197434e-03)
202           	(2.395678e-01 3.644422e-05 4.697699e-02)	(2.331803e-01 1.249974e-04 4.577943e-02)	(6.387494e-03 -8.855322e-05 1.197552e-03)
203           	(2.390113e-01 6.952492e-05 4.713527e-02)	(2.326366e-01 1.564876e-04 4.593739e-02)	(6.374698e-03 -8.696269e-05 1.197881e-03)
204           	(2.385143e-01 9.419509e-05 4.729876e-02)	(2.321522e-01 1.795067e-04 4.610040e-02)	(6.362116e-03 -8.531162e-05 1.198361e-03)
205           	(2.380416e-01 1.230601e-04 4.746364e-02)	(2.316918e-01 2.066530e-04 4.626470e-02)	(6.349763e-03 -8.359298e-05 1.198945e-03)
206           	(2.375958e-01 1.546789e-04 4.762532e-02)	(2.312582e-01 2.364732e-04 4.642577e-02)	(6.337632e-03 -8.179436e-05 1.199544e-03)
207           	(2.371749e-01 1.874678e-04 4.777992e-02)	(2.308492e-01 2.673701e-04 4.657984e-02)	(6.325720e-03 -7.990226e-05 1.200086e-03)
208           	(2.367733e-01 2.199166e-04 4.792462e-02)	(2.304593e-01 2.978345e-04 4.672410e-02)	(6.314006e-03 -7.791788e-05 1.200520e-03)
209           	(2.363826e-01 2.506540e-04 4.805750e-02)	(2.300802e-01 3.265008e-04 4.685671e-02)	(6.302449e-03 -7.584674e-05 1.200788e-03)
210           	(2.359900e-01 2.770886e-04 4.817867e-02)	(2.296990e-01 3.508008e-04 4.697782e-02)	(6.290966e-03 -7.371221e-05 1.200855e-03)
211           	(2.355955e-01 3.001082e-04 4.828513e-02)	(2.293160e-01 3.716482e-04 4.708443e-02)	(6.279508e-03 -7.154004e-05 1.200704e-03)
212           	(2.351900e-01 3.191082e-04 4.837626e-02)	(2.289219e-01 3.884611e-04 4.717593e-02)	(6.268008e-03 -6.935295e-05 1.200328e-03)