# kMean  POINT_DATA 66257
# x  y  z  kMean
6.77626e-21 0.000951594 0 0.000159875
0 0.000952378 6.05115e-05 0.000159874
1.35525e-20 0.00101666 0 0.000159606
6.77626e-21 0.00108259 0 0.00015955
1.35525e-20 0.00108205 6.12824e-05 0.000159553
1.0842e-19 -0.000230001 0.00117134 0.000162257
6.77626e-21 -0.00142666 0 0.000164387
6.77626e-21 -0.001427 4.90487e-05 0.000164389
6.77626e-21 -0.00147935 0 0.000164421
0 -0.00153146 0 0.00016461
0 -0.00153095 4.85233e-05 0.00016461
0 0.00226609 0.00117164 0.000157204
2.25875e-21 0.00102252 0.00234126 0.000142772
2.25875e-21 -0.00147475 0.00234099 0.000147421
0 -0.00272686 0.00117106 0.000166759
0 0.00343106 0 0.000154472
1.35525e-20 0.00343226 7.48638e-05 0.000154472
1.35525e-20 0.00351169 0 0.000154117
2.1684e-19 -0.000223755 0.00357153 0.000127935
-1.35525e-20 0.00359276 7.59703e-05 0.000154008
-1.35525e-20 0.00359358 0 0.000154001
-6.77626e-21 -0.00393441 0 0.000168697
0 -0.00393462 3.89347e-05 0.000168698
0 -0.00397618 0 0.000168726
-6.77626e-21 -0.00401725 3.85806e-05 0.000168851
-6.77626e-21 -0.00401757 0 0.000168852
3.38813e-21 0.00351914 0.00234148 0.000137417
-1.0842e-19 0.00227377 0.00357189 0.000123123
2.1684e-19 -0.00272176 0.00357118 0.000132161
0 -0.00397255 0.00234072 0.000151584
-1.0842e-19 0.00476133 0.00117192 0.000151339
0 0.00102955 0.00480054 0.000159903
0 -0.00146894 0.00480032 0.000163441
-1.0842e-19 -0.00522433 0.0011708 0.000170799
0 0.00590658 0 0.000148301
0 0.0059084 9.18337e-05 0.000148302
0 0.00352769 0.00480072 0.000155914
0 0.0047708 0.00357214 0.000117426
-1.35525e-20 0.00600567 0 0.000147875
-1.0842e-19 -0.000217791 0.00608418 0.00019612
0 0.00610537 9.33789e-05 0.000147667
1.35525e-20 0.00610661 0 0.000147654
5.64689e-22 -0.00396773 0.00480011 0.000166737
1.0842e-19 -0.00522013 0.00357084 0.000136042
0 -0.00644084 0 0.000172583
0 -0.00644097 3.05957e-05 0.000172584
0 0.00601513 0.00234156 0.000131169
-6.77626e-21 -0.00647363 0 0.00017261
-2.1684e-19 0.00228097 0.00608442 0.000193545
0 -0.00650597 3.03603e-05 0.000172692
0 -0.00650617 0 0.000172692
1.0842e-19 -0.00271679 0.00608392 0.000198613
-1.12938e-21 -0.00647075 0.00234045 0.000155397
2.1684e-19 0.00725575 0.00117208 0.000144735
8.47033e-22 0.00103463 0.00736665 0.00022517
5.64689e-22 -0.00146474 0.00736653 0.000227262
-2.25875e-21 0.00602547 0.00480075 0.00015123
-1.0842e-19 0.0047795 0.00608458 0.000190729
0 -0.00772224 0.00117057 0.000174481
0 -0.00521598 0.00608368 0.000201157
-2.82344e-22 -0.00646674 0.0047999 0.000169959
1.0842e-19 0.00726737 0.00357211 0.000110578
-5.64689e-22 0.00353384 0.00736675 0.000222999
0 -0.00396424 0.00736643 0.000229351
0 0.0083778 0 0.000141462
0 0.00838051 0.000111807 0.000141466
-1.35525e-20 0.00849876 0 0.000140996
-1.0842e-19 -0.00771879 0.00357053 0.000139695
0 0.00862057 0.000113948 0.000140659
1.35525e-20 0.00862241 0 0.000140636
1.0842e-19 -0.000214113 0.00865697 0.000256418
0 0.00851059 0.00234127 0.000123975
-3.38813e-21 -0.0089461 0 0.00017614
-3.38813e-21 -0.00894617 2.37524e-05 0.00017614
1.0842e-19 0.00228541 0.0086571 0.000254782
-3.38813e-21 -0.00897154 0 0.000176163
0 -0.00899669 2.35989e-05 0.000176219
0 -0.00899681 0 0.000176219
-2.1684e-19 -0.00271373 0.00865684 0.000258069
2.82344e-21 -0.00896926 0.00234021 0.000158978
-1.0842e-19 0.00727782 0.00608447 0.000187411
2.82344e-22 0.00603292 0.00736677 0.00022061
2.25875e-21 0.00852298 0.0048004 0.000145626
-1.41172e-22 -0.00646384 0.00736632 0.000231495
2.1684e-19 0.00974959 0.00117197 0.000137551
-1.0842e-19 -0.00771532 0.00608345 0.000203938
0 0.00478485 0.00865718 0.000253138
4.06576e-20 0.00103449 0.00994398 0.000269228
-7.41154e-20 -0.00146477 0.00994448 0.000269871
-1.0842e-19 -0.00521343 0.00865671 0.000259724
-5.64689e-22 -0.00896592 0.00479971 0.000173251
0 -0.0102205 0.00117037 0.00017788
0 0.00976367 0.00357144 0.000102401
7.24213e-20 0.0035336 0.00994335 0.000268549
0 0.00354007 0.00994334 0.000268597
-4.80691e-20 -0.00396103 0.00994489 0.000270472
0 -0.0102177 0.00357025 0.00014329
0 0.0108441 0 0.000134074
0 0.0108481 0.000135646 0.000134083
0 0.0109914 0 0.000133577
-2.71051e-20 0.01114 0.000138658 0.000133084
0 0.0111428 0 0.000133047
0 -0.000212546 0.0112174 0.000282611
0 0.0110059 0.00234034 0.000115891
1.12938e-21 0.00853188 0.00736656 0.000217858
-1.0842e-19 0.00728421 0.00865713 0.000251369
1.0842e-19 0.00228732 0.0112174 0.00028297
0 -0.0114503 0 0.000179426
0 -0.0114503 1.81853e-05 0.000179426
0 -0.0114698 0 0.000179443
3.38813e-21 -0.011489 1.80881e-05 0.000179483
0 -0.0114891 0 0.000179483
0 0.00977602 0.00608381 0.000183389
1.0842e-19 -0.00271244 0.0112173 0.000282264
0 -0.00771318 0.0086566 0.000261307
4.23516e-22 -0.00895974 0.00736235 0.000233634
-1.60936e-19 -0.00896729 0.00736236 0.000233751
9.31736e-21 0.00603252 0.00994255 0.000267896
-9.31736e-21 0.00604059 0.00994254 0.000267961
0 -0.011468 0.00234 0.000162429
1.73642e-20 -0.00646372 0.00994521 0.000270958
1.0842e-19 -0.0102148 0.00608326 0.000207055
-1.12938e-21 0.0110204 0.0047994 0.000138991
1.0842e-19 0.00478716 0.0112174 0.000283321
-2.1684e-19 0.0122435 0.00117144 0.000129844
1.0842e-19 -0.00521236 0.0112172 0.000281719
5.64689e-22 -0.0114652 0.00479955 0.000176725
-2.37169e-20 0.00103742 0.0124875 0.000283992
4.85456e-20 -0.00146246 0.0124876 0.000283089
-1.0842e-19 0.01226 0.00356989 9.30722e-05
0 -0.012719 0.0011702 0.00018103
9.45501e-20 0.00353726 0.0124874 0.000284918
-1.0842e-19 0.00978349 0.0086568 0.000249472
1.20702e-19 -0.00396235 0.0124875 0.000282171
0 0.00853624 0.00994662 0.00026729
0 -0.0127167 0.00357001 0.00014696
5.64689e-22 0.0110308 0.00736595 0.000214599
0 0.0133043 0 0.00012628
2.71051e-20 0.0133101 0.000164761 0.000126295
-2.1684e-19 0.00728695 0.0112174 0.000283816
5.2516e-20 -0.00896334 0.00994741 0.000271291
1.0842e-19 -0.010213 0.0086565 0.000262733
0 0.0134843 0 0.00012576
-2.1684e-19 -0.00771229 0.0112172 0.000280978
4.23516e-20 -0.0114661 0.00736317 0.000236048
2.71051e-20 0.0136661 0.000169325 0.000125131
0 0.0136704 0 0.000125074
-1.0842e-19 0.0122743 0.00608241 0.00017842
0 0.0135014 0.00233865 0.000107034
0 -0.000212091 0.0137434 0.00028445
8.50209e-20 0.00603705 0.0124872 0.000285879
0 0.00228788 0.0137434 0.000285929
0 -0.0139536 0 0.000182435
-1.69407e-21 -0.0139536 1.37177e-05 0.000182435
0 -0.0139682 0 0.000182447
0 -0.0139828 1.36577e-05 0.000182475
0 -0.0139828 0 0.000182475
0 -0.00271207 0.0137433 0.000283028
7.07273e-20 -0.00646189 0.0124876 0.000281174
1.0842e-19 -0.0127143 0.00608309 0.000210553
-2.82344e-22 -0.0139669 0.00233981 0.000165812
0 0.0135179 0.00479763 0.000131172
0 0.00478783 0.0137434 0.00028744
0 -0.00521206 0.0137433 0.000281672
0 -0.0139646 0.0047994 0.000180438
0 0.0147376 0.00117073 0.000121884
2.82344e-22 0.0110359 0.00994643 0.000266512
0 0.00978668 0.0112174 0.000284346
0 0.0122827 0.00865616 0.000247322
3.61974e-20 0.00103802 0.0149988 0.00028303
1.40363e-19 -0.00146203 0.0149988 0.00028143
-1.03444e-19 0.00853678 0.012487 0.000286874
-1.0842e-19 -0.0102122 0.0112172 0.000280053
-5.05043e-20 -0.011463 0.00994568 0.000271461
0 0.0147565 0.00356775 8.25579e-05
-1.0842e-19 -0.0152176 0.00117005 0.000183881
-1.24673e-20 -0.0089622 0.0124877 0.000280081
-2.1684e-19 -0.0127128 0.00865642 0.000263972
5.64689e-22 0.0135297 0.00736494 0.000210567
1.26195e-19 0.00353802 0.0149988 0.000284655
1.36591e-19 -0.00396199 0.0149988 0.000279873
0 0.00728776 0.0137434 0.000288925
-1.0842e-19 -0.0152158 0.00356979 0.000150835
0 0.0157567 0 0.0001183
0 -0.00771205 0.0137433 0.000280327
-5.42101e-20 0.0157653 0.000200597 0.000118323
-1.55854e-19 -0.0139652 0.00736381 0.000238435
0 0.0147725 0.00608051 0.000172023
-2.71051e-20 0.0159775 0 0.000117675
9.03502e-21 0.0159972 0.00233633 9.76131e-05
8.38232e-20 0.00603803 0.0149987 0.000286277
0 0.0162004 0.000207421 0.000116881
-2.71051e-20 0.0162074 0 0.000116791
-1.0842e-19 -0.000212011 0.0162494 0.000279992
3.1466e-20 -0.00646202 0.0149988 0.000278346
1.0842e-19 -0.0152138 0.00608293 0.000214349
0 0.00228798 0.0162494 0.000281755
-1.69407e-21 -0.016456 0 0.00018513
-1.69407e-21 -0.016456 1.01993e-05 0.00018513
-1.69407e-21 -0.0164669 0 0.000185137
-1.0842e-19 -0.00271201 0.0162494 0.000278258
0 -0.0164778 1.01638e-05 0.000185156
-1.69407e-21 -0.0164778 0 0.000185156
-2.82344e-22 -0.0164659 0.00233964 0.000169148
0 0.0122863 0.0112172 0.000284734
-5.99276e-20 0.0110365 0.0124868 0.000287832
-4.51751e-21 0.0160154 0.00479528 0.000122024
4.23516e-22 0.0135355 0.00994611 0.000265456
0 0.00978761 0.0137434 0.000290391
1.0842e-19 0.00478796 0.0162494 0.000283504
8.76547e-20 -0.0114622 0.0124879 0.000278897
-1.0842e-19 -0.0127122 0.0112171 0.000279003
1.0842e-19 -0.005212 0.0162494 0.00027654
0 -0.010212 0.0137433 0.000278969
1.0842e-19 0.0147819 0.00865531 0.000244693
-1.41772e-19 -0.0139628 0.00994585 0.000271486
-1.41172e-22 -0.0164641 0.00479927 0.000184383
-9.69059e-20 0.00853784 0.0149987 0.000287882
0 0.0172319 0.0011701 0.000113705
2.5861e-20 -0.00896199 0.0149988 0.000276832
2.1684e-19 -0.0152126 0.00865635 0.000264974
5.5401e-20 0.001038 0.0175 0.000276446
1.3695e-19 -0.001462 0.0175 0.000274704
1.0842e-19 0.017253 0.0035653 7.13915e-05
0 0.0160286 0.00736361 0.000205417
0 -0.0177165 0.00116993 0.000186405
0 0.0072879 0.0162494 0.000285246
-1.4177e-19 0.003538 0.0175 0.000278214
1.17414e-20 -0.003962 0.0175 0.000272991
1.0842e-19 -0.007712 0.0162494 0.000274853
1.16467e-19 -0.0164645 0.00736776 0.000240826
0 -0.0177151 0.00356961 0.000154952
-2.71051e-20 0.0182028 0 0.000110189
-2.71051e-20 0.0182155 0.000241221 0.000110224
1.0842e-19 0.0172707 0.00607818 0.000163638
-4.70103e-20 0.013536 0.0124892 0.000288715
0 0.0122874 0.0137434 0.000291837
2.71051e-20 0.0184707 0 0.000109429
-4.64536e-20 0.006038 0.0175 0.000280004
0 0.0147859 0.011217 0.000284885
2.50934e-20 0.0110377 0.0149986 0.000289479
4.51751e-21 0.0184934 0.00233259 8.79765e-05
4.78875e-20 -0.006462 0.0175 0.000271306
1.0842e-19 -0.012712 0.0137433 0.000277569
2.1684e-19 -0.0177135 0.0060828 0.000218334
-1.85686e-20 -0.0139621 0.0124877 0.000277663
-2.71051e-20 0.0187394 0.000249081 0.000108551
2.71051e-20 0.0187499 0 0.000108421
-1.0842e-19 -0.000212006 0.01875 0.000271142
0 0.016035 0.00994571 0.000263935
-2.45615e-20 -0.011462 0.0149988 0.000275316
2.1684e-19 0.00228798 0.01875 0.000272896
1.0842e-19 -0.0152122 0.0112171 0.000277926
-1.0842e-19 -0.002712 0.01875 0.000269425
0 -0.0189578 0 0.000187522
0 -0.0189578 7.48767e-06 0.000187522
0 -0.0189658 0 0.000187527
-2.1684e-19 0.00978778 0.0162494 0.000286973
0 -0.0189738 7.46722e-06 0.000187539
-1.69407e-21 -0.0189738 0 0.000187539
-4.23516e-22 -0.0189651 0.0023395 0.000172445
0 0.0185135 0.0047916 0.000111419
-1.0842e-19 -0.010212 0.0162494 0.000273188
2.61521e-20 -0.0164626 0.00994597 0.000271391
2.1684e-19 0.0172808 0.0086543 0.000241465
0 0.00478797 0.01875 0.000274703
-1.0842e-19 -0.005212 0.01875 0.000267744
-4.86316e-20 0.00853794 0.0175 0.000281819
1.65171e-20 -0.0189602 0.00479567 0.000188385
-4.23516e-22 -0.0189672 0.00479567 0.000188505
5.80779e-20 -0.008962 0.0175 0.000269644
0 -0.0177125 0.00865629 0.000265746
-1.0842e-19 0.0197268 0.0011683 0.00010553
3.38813e-21 0.0185276 0.00736167 0.000198649
6.28228e-20 0.001038 0.02 0.000267152
5.35381e-20 -0.001462 0.02 0.000265403
-1.0842e-19 0.0197514 0.00356002 6.01306e-05
1.0842e-19 0.00728791 0.01875 0.000276566
0 0.0147871 0.0137433 0.000293378
-8.16593e-20 0.0135376 0.014999 0.000291116
-2.1684e-19 -0.0202155 0.00116983 0.000188656
1.0842e-19 -0.007712 0.01875 0.000266089
-4.17705e-20 0.003538 0.02 0.00026893
-1.19643e-19 0.0160352 0.0124859 0.000289458
7.26331e-20 -0.0189639 0.00736469 0.000243173
-1.0842e-19 0.0122876 0.0162494 0.00028872
1.47606e-20 -0.003962 0.02 0.000263675
-2.8115e-20 -0.013962 0.0149988 0.0002738
1.0842e-19 -0.015212 0.0137433 0.000276161
-1.0842e-19 -0.0202144 0.00356944 0.00015928
-2.1684e-19 0.0172851 0.0112168 0.000284483
-1.0842e-19 -0.012712 0.0162494 0.000271548
2.71051e-20 0.0206492 0 0.000102176
-1.98325e-20 -0.0164619 0.0124877 0.000276429
0 0.0206673 0.000280665 0.000102225
-1.0842e-19 0.0197697 0.00607424 0.000152178
6.08805e-22 0.0110378 0.0174999 0.000283669
-7.02533e-20 0.00603798 0.02 0.00027075
3.8061e-20 -0.011462 0.0175 0.000268002
-5.42101e-20 0.0209637 0 0.000101213
2.1684e-19 -0.0177121 0.0112171 0.000276858
8.08456e-20 -0.006462 0.02 0.000261964
-8.47033e-22 0.0185343 0.00994519 0.000261842
0 -0.0202132 0.00608269 0.000222279
-4.51751e-21 0.0209903 0.00232545 7.85251e-05
-2.1684e-19 0.00978779 0.01875 0.000278494
0 -0.000212006 0.02125 0.000261402
-2.71051e-20 0.0212775 0.000287875 0.000100317
-2.71051e-20 0.0212916 0 0.000100145
0 -0.010212 0.01875 0.00026445
1.0842e-19 0.00228798 0.02125 0.000263168
2.82168e-20 -0.0189625 0.00994606 0.000271221
0 -0.002712 0.02125 0.000259643
8.47033e-22 -0.0214591 5.43834e-06 0.000189636
8.47033e-22 -0.0214707 0 0.000189646
-2.25875e-21 0.0210123 0.00478532 9.94366e-05
1.0842e-19 0.0197796 0.008653 0.000237352
-1.41172e-22 -0.0214644 0.00233938 0.000175703
8.23872e-21 0.00853794 0.02 0.000272621
1.0842e-19 0.00478797 0.02125 0.000264954
-1.0842e-19 -0.005212 0.02125 0.000257887
-9.67102e-20 -0.008962 0.02 0.000260266
1.07838e-19 0.0160372 0.0149984 0.000292849
1.0842e-19 0.0147873 0.0162494 0.000290535
-1.0842e-19 -0.0202124 0.00865623 0.000266425
1.27055e-20 -0.0214659 0.00479644 0.000192627
2.1684e-19 0.0172864 0.0137433 0.000295052
-3.34843e-20 0.0135377 0.0175001 0.000285564
0 0.0222219 0.00116339 9.75141e-05
0 -0.015212 0.0162494 0.000269933
-3.67355e-20 -0.016462 0.0149988 0.000272302
-1.12938e-21 0.0210266 0.00735887 0.000189877
-1.2282e-19 0.0185339 0.0124904 0.000290061
1.13296e-19 -0.013962 0.0175 0.000266379
1.0842e-19 0.0122876 0.01875 0.000280489
0 -0.017712 0.0137433 0.00027478
1.0842e-19 0.00728791 0.02125 0.000266778
2.40462e-20 0.001038 0.0225 0.000256605
-1.0842e-19 0.0222501 0.00355028 4.94649e-05
1.14761e-19 -0.001462 0.0225 0.000254747
1.0842e-19 -0.007712 0.02125 0.000256136
-1.0842e-19 -0.012712 0.01875 0.000262826
-6.35275e-22 -0.0214634 0.00736498 0.000245416
1.03808e-19 -0.018962 0.0124878 0.000275214
0 0.0197839 0.0112166 0.000283821
1.0842e-19 -0.0227147 0.00116974 0.000190626
5.82295e-20 0.003538 0.0225 0.000258468
-2.43125e-20 0.0110378 0.0199999 0.000274547
3.28979e-21 -0.003962 0.0225 0.00025289
-1.0842e-19 -0.0227139 0.00356931 0.000163805
8.08456e-20 -0.011462 0.02 0.000258578
-1.0842e-19 0.0222687 0.00606848 0.000137792
0 0.0230907 0 9.42457e-05
-1.0842e-19 -0.0202121 0.0112171 0.000275801
-5.42101e-20 0.0231152 0.000321554 9.43062e-05
-2.82344e-22 0.0210335 0.00994459 0.000259007
-7.02516e-20 0.00603798 0.0225 0.00026035
0 0.00978779 0.02125 0.000268645
-9.67102e-20 -0.006462 0.0225 0.000251033
-5.42101e-20 0.0234563 0 9.30234e-05
-1.0842e-19 -0.0227129 0.00608259 0.00022606
-1.0842e-19 -0.010212 0.02125 0.00025439
4.51751e-21 0.0234867 0.00231572 6.96489e-05
-1.58104e-19 -0.0214623 0.00994613 0.000270993
0 0.0172867 0.0162494 0.000292438
2.4511e-20 0.0160379 0.0174997 0.000287509
1.0842e-19 -0.000212006 0.02375 0.00024995
0 0.0238222 0.000334698 9.20465e-05
4.18223e-20 0.0185361 0.0149979 0.000294681
2.71051e-20 0.0238446 0 9.17857e-05
2.1684e-19 0.00228798 0.02375 0.000251899
0 0.0147874 0.01875 0.000282515
-2.1684e-19 0.0222784 0.00865156 0.000232011
0 -0.002712 0.02375 0.000247995
0 -0.02396 3.91345e-06 0.000191501
2.25875e-21 0.0235099 0.00477762 8.69219e-05
-6.42586e-20 -0.016462 0.0175 0.000264773
1.0842e-19 -0.017712 0.0162494 0.000268345
8.23872e-21 0.00853794 0.0225 0.000262262
0 -0.0239602 0.00233583 0.000178938
3.38813e-20 -0.0239674 0.00234276 0.000178882
-1.0842e-19 0.0197854 0.0137433 0.000296846
0 -0.015212 0.01875 0.000261211
-3.34843e-20 0.0135377 0.0199999 0.000276516
-1.74279e-20 -0.018962 0.0149988 0.000270832
-9.67102e-20 -0.008962 0.0225 0.000249179
-1.0842e-19 0.00478797 0.02375 0.00025385
0 -0.0227123 0.00865619 0.000266983
0 -0.005212 0.02375 0.000246035
3.28979e-21 -0.013962 0.02 0.000256897
1.39337e-19 -0.0239649 0.00479702 0.000196714
2.1684e-19 -0.020212 0.0137433 0.000273425
4.82809e-20 0.0210324 0.0124842 0.000290426
4.06576e-20 0.0210325 0.0124911 0.000290454
1.0842e-19 0.0122876 0.02125 0.000270558
-1.12938e-21 0.0235251 0.00735571 0.000179394
1.0842e-19 0.0247144 0.00115991 8.94271e-05
0 -0.012712 0.02125 0.000252648
0 -0.021462 0.0124878 0.000274
1.0842e-19 0.00728791 0.02375 0.000255818
1.0842e-19 0.0222828 0.0112165 0.00028255
0 -0.007712 0.02375 0.000244074
-1.0842e-19 0.024745 0.00354107 4.02929e-05
6.28228e-20 0.001038 0.025 0.000243962
-4.64619e-20 -0.001462 0.025 0.000241876
-2.4339e-20 0.0110378 0.0224999 0.000264209
-5.48454e-20 -0.0239617 0.00736519 0.000247465
0 -0.025214 0.00116967 0.000192377
-1.4177e-19 0.003538 0.025 0.000246046
-9.67102e-20 -0.011462 0.0225 0.000247328
-1.91544e-20 -0.003962 0.025 0.000239787
-1.0842e-19 -0.0227121 0.0112171 0.000274719
1.0842e-19 -0.0252134 0.00356919 0.000168365
6.53274e-20 0.0185364 0.0174993 0.000289499
0 0.0247657 0.00606274 0.000122229
-1.0842e-19 0.0172867 0.01875 0.00028455
0 0.0255124 0 8.61819e-05
0 0.0235324 0.00994397 0.000255219
0 0.0255491 0.000373423 8.62659e-05
-1.0842e-19 0.0197856 0.0162494 0.000294397
1.11544e-19 0.0160373 0.0199997 0.000278509
-2.1684e-19 0.00978779 0.02375 0.000257809
-7.02533e-20 0.00603798 0.025 0.000248138
1.0842e-19 -0.017712 0.01875 0.000259604
-6.15279e-20 -0.018962 0.0175 0.000263183
-1.91544e-20 -0.006462 0.025 0.000237697
-7.41154e-20 0.0210351 0.0149975 0.000296525
-1.0842e-19 -0.010212 0.02375 0.000242116
0 0.0147874 0.02125 0.000272502
6.45119e-20 -0.016462 0.02 0.000255219
-1.0842e-19 -0.020212 0.0162494 0.000266785
1.0842e-19 -0.0252127 0.0060825 0.000229525
7.12037e-20 -0.0239623 0.00994618 0.00027067
0 0.0259495 0 8.43703e-05
-1.35525e-20 0.0259804 0.00230532 6.16293e-05
0 -0.015212 0.02125 0.000250905
1.0842e-19 0.0222843 0.0137433 0.000298519
0 -0.021462 0.0149988 0.000269377
2.1684e-19 0.0247764 0.00865012 0.000225138
1.0842e-19 -0.000212006 0.02625 0.00023589
-3.35637e-20 0.0135377 0.0224999 0.000266185
0 0.00228798 0.02625 0.000238108
5.42101e-20 0.0263739 0.000391789 8.34405e-05
-1.0842e-19 -0.002712 0.02625 0.000233669
5.42101e-20 0.0264109 0 8.30248e-05
8.23872e-21 0.00853794 0.025 0.000250248
9.03502e-21 0.0260059 0.00476911 7.48133e-05
0 -0.0264606 2.79231e-06 0.00019315
3.28979e-21 -0.013962 0.0225 0.000245477
2.1684e-19 -0.022712 0.0137433 0.000272065
8.08456e-20 -0.008962 0.025 0.000235612
1.18585e-19 -0.0264661 0.00234175 0.000181991
2.28699e-20 0.0235308 0.0124833 0.000290421
2.5411e-21 0.0235308 0.0124918 0.000290461
-1.0842e-19 -0.0252122 0.00865616 0.000267367
-1.0842e-19 0.00478797 0.02625 0.000240326
-1.0842e-19 0.0122876 0.02375 0.000259825
0 -0.005212 0.02625 0.000231448
-1.01644e-19 -0.0264641 0.00479744 0.000200664
0 -0.012712 0.02375 0.000240159
6.92449e-20 -0.023962 0.0124878 0.000272754
0 0.0260223 0.00735219 0.00016741
1.0842e-19 0.0247812 0.0112164 0.000280819
0 0.0272032 0.00115759 8.09835e-05
0 0.00728791 0.02625 0.000242558
0 0.0197857 0.01875 0.000286616
2.74227e-20 0.0185364 0.0199993 0.000280526
-4.37413e-20 0.011038 0.0249999 0.00025238
1.0842e-19 -0.007712 0.02625 0.000229233
-6.35275e-21 0.0210376 0.0174989 0.000291534
0 0.0172867 0.02125 0.000274469
0 0.0272397 0.00352904 3.32885e-05
8.29033e-20 -0.0264618 0.00736533 0.000249274
3.28979e-21 -0.011462 0.025 0.000233532
2.40462e-20 0.001038 0.0275 0.000228528
1.31093e-19 -0.001462 0.0275 0.000226174
-1.13044e-19 -0.018962 0.02 0.00025354
1.0842e-19 -0.020212 0.01875 0.000258001
-1.0842e-19 0.0222846 0.0162494 0.000296351
-1.0842e-19 -0.025212 0.0112171 0.000273575
1.11544e-19 0.0160373 0.0224997 0.00026818
0 -0.017712 0.02125 0.000249156
0 -0.021462 0.0175 0.000261607
-4.17705e-20 0.003538 0.0275 0.000230886
1.0842e-19 -0.0277135 0.00116961 0.000193924
8.08456e-20 -0.003962 0.0275 0.000223825
-1.69407e-21 0.0260298 0.00994338 0.000250159
-3.54881e-20 -0.016462 0.0225 0.000243623
1.49925e-19 0.0235338 0.014997 0.000298252
1.0842e-19 0.0272619 0.0060552 0.0001058
-1.0842e-19 -0.022712 0.0162494 0.000265243
0 0.0279286 0 7.78809e-05
1.0842e-19 -0.0277131 0.00356909 0.00017294
0 0.0147874 0.02375 0.000261857
5.42101e-20 0.0279823 0.000421403 7.80113e-05
1.0842e-19 0.00978779 0.02625 0.000244809
8.1651e-21 0.006038 0.0275 0.000233256
0 -0.010212 0.02625 0.000227027
0 -0.015212 0.02375 0.000238199
-9.67102e-20 -0.006462 0.0275 0.000221485
1.47595e-20 -0.023962 0.0149988 0.000267918
1.08354e-19 -0.0264622 0.00994621 0.000270221
-2.1684e-19 0.0247828 0.0137434 0.000299853
0 -0.0277125 0.00608242 0.000232704
5.42101e-20 0.0284251 0 7.53903e-05
-2.65492e-20 0.0135379 0.0249999 0.00025453
1.35525e-20 0.0284741 0.00227875 5.44109e-05
-1.0842e-19 0.0272718 0.00864862 0.000215892
-3.54881e-20 -0.013962 0.025 0.000231455
-1.0842e-19 -0.025212 0.0137433 0.000270669
-1.0842e-19 -0.000212006 0.02875 0.00021881
8.2321e-21 0.00853794 0.0275 0.000235646
-2.1684e-19 0.00228798 0.02875 0.000221303
4.23516e-22 0.0260327 0.0124876 0.000289986
-1.0842e-19 -0.002712 0.02875 0.000216327
4.51751e-21 0.0285046 0.00475129 6.37436e-05
-5.42101e-20 0.0288977 0.000401716 7.48229e-05
8.08456e-20 -0.008962 0.0275 0.000219157
0 0.0289345 0 7.44288e-05
0 -0.0289611 1.97592e-06 0.000194626
1.0842e-19 0.0122876 0.02625 0.000247079
8.95737e-20 0.0210354 0.0199989 0.000282593
-1.0842e-19 -0.0277122 0.00865612 0.00026757
0 0.0197857 0.02125 0.00027647
1.82112e-20 -0.0289611 0.00234099 0.000184978
2.1684e-19 0.0222847 0.01875 0.000288776
-1.0842e-19 0.00478797 0.02875 0.000223807
2.73168e-20 0.0185364 0.0225007 0.000270191
-1.0842e-19 -0.012712 0.02625 0.000224828
0 -0.005212 0.02875 0.000213856
-1.02152e-19 -0.026462 0.0124878 0.000271453
-3.89635e-20 0.0235372 0.0174985 0.000293628
0 -0.020212 0.02125 0.000247401
0 -0.021462 0.02 0.00025186
-1.71524e-20 -0.0289615 0.00479776 0.00020445
-1.0842e-19 0.0172867 0.02375 0.000263891
3.28979e-21 -0.018962 0.0225 0.000241764
7.90564e-21 0.0285183 0.00734773 0.00015384
0 -0.022712 0.01875 0.000256401
-1.0842e-19 0.0272766 0.0112163 0.000278341
0 -0.017712 0.02375 0.000236234
-2.43257e-20 0.0110378 0.0274999 0.000238056
-1.0842e-19 0.0247831 0.0162494 0.000298298
0 0.00728791 0.02875 0.000226333
1.56997e-19 -0.023962 0.0175 0.000260035
1.11597e-19 0.0160373 0.0249997 0.000256685
1.0842e-19 0.0297038 0.00111931 7.24579e-05
-1.0842e-19 -0.007712 0.02875 0.000211402
-9.67102e-20 -0.011462 0.0275 0.000216842
5.50571e-20 -0.0289618 0.00736544 0.000250821
0 -0.027712 0.0112171 0.000272344
3.28979e-21 -0.016462 0.025 0.000229377
1.0842e-19 0.0297515 0.00348068 2.77831e-05
0 -0.025212 0.0162494 0.000263702
6.28228e-20 0.001038 0.03 0.000210052
1.31093e-19 -0.001462 0.03 0.00020745
-5.92923e-20 0.0260294 0.0149949 0.000299816
-5.75982e-20 0.0260294 0.0150027 0.000299815
1.0842e-19 0.0147874 0.02625 0.000249359
-4.17705e-20 0.003538 0.03 0.000212672
-5.64689e-22 0.0285254 0.00994287 0.000243226
-1.0842e-19 -0.0302131 0.00116957 0.000195329
-1.91544e-20 -0.003962 0.03 0.000204866
-1.0842e-19 -0.015212 0.02625 0.000222634
0 0.0297582 0.00604461 8.99794e-05
0 0.00978779 0.02875 0.000228882
0 0.0304053 0 6.95401e-05
-8.4235e-20 -0.026462 0.0149988 0.000266439
1.0842e-19 -0.0302128 0.00356901 0.00017741
0 0.0304496 0.000427148 6.9682e-05
0 -0.010212 0.02875 0.000208966
1.0842e-19 0.0272782 0.0137434 0.000300847
-7.02533e-20 0.00603798 0.03 0.000215316
-1.43202e-20 -0.0289621 0.00994623 0.000269617
-3.35372e-20 0.0135377 0.0275001 0.000240485
8.08456e-20 -0.006462 0.03 0.000202303
1.0842e-19 0.0222847 0.02125 0.000278511
8.97855e-20 0.0210354 0.0224989 0.000272228
-1.0842e-19 -0.0302124 0.00608237 0.000235601
8.08456e-20 -0.013962 0.0275 0.00021454
-3.00697e-20 0.0235342 0.0199985 0.000284754
1.0842e-19 0.0197857 0.02375 0.000265936
0 0.0309265 0 6.77109e-05
0 -0.027712 0.0137433 0.000269236
0 0.0297661 0.00864739 0.000203069
-9.03502e-21 0.0309769 0.0022233 4.82881e-05
0 0.0247832 0.01875 0.000291093
-1.57772e-30 -0.021462 0.0225 0.000239898
1.0842e-19 -0.022712 0.02125 0.000245638
2.74227e-20 0.0185364 0.0250007 0.000258842
-5.64689e-22 0.0285283 0.0124876 0.000288822
1.0842e-19 -0.020212 0.02375 0.000234264
8.2321e-21 0.00853794 0.03 0.00021799
1.58401e-19 -0.023962 0.02 0.000250177
-2.1684e-19 -0.000212006 0.03125 0.000198684
1.0842e-19 0.0122876 0.02875 0.000231454
8.08456e-20 -0.008962 0.03 0.000199762
2.1684e-19 0.00228798 0.03125 0.000201412
0 0.0310004 0.00472577 5.41857e-05
-2.58345e-20 0.0260298 0.0174964 0.000295807
-2.1684e-19 -0.002712 0.03125 0.000195981
-4.23516e-21 0.0260298 0.0175036 0.000295798
8.08456e-20 -0.018962 0.025 0.000227299
0 -0.025212 0.01875 0.000254797
0 -0.0302121 0.00865609 0.000267474
-1.0842e-19 0.0172867 0.02625 0.000251633
0 -0.012712 0.02875 0.000206549
5.42101e-20 0.0314366 0.000417556 6.67958e-05
0 -0.0314613 1.38619e-06 0.000195952
-1.0842e-19 0.0314756 0 6.62974e-05
-1.39565e-19 -0.028962 0.0124878 0.000270105
2.11758e-20 -0.0314642 0.00234041 0.000187855
-1.0842e-19 0.00478797 0.03125 0.000204166
1.0842e-19 -0.017712 0.02625 0.000220443
-1.0842e-19 -0.005212 0.03125 0.000193302
5.75698e-20 -0.026462 0.0175 0.000258461
2.1684e-19 0.0272786 0.0162494 0.000300273
-1.0842e-19 0.0297706 0.0112165 0.000275011
2.5411e-20 -0.0314632 0.00479798 0.000208087
1.11544e-19 0.0160373 0.0274997 0.000242921
-6.77626e-21 0.0310128 0.00734326 0.000139221
-2.43125e-20 0.0110378 0.0299999 0.00022069
-9.67102e-20 -0.016462 0.0275 0.000212246
-2.1684e-19 0.00728791 0.03125 0.00020696
-9.67102e-20 -0.011462 0.03 0.000197245
0 -0.027712 0.0162494 0.00026216
1.0842e-19 -0.007712 0.03125 0.000190651
0 0.0322011 0.00107821 6.48012e-05
1.0842e-19 -0.030212 0.0112171 0.000271057
-1.41172e-22 0.0285291 0.0149988 0.000301059
-2.46169e-20 -0.0314625 0.00736553 0.000252136
1.0842e-19 0.0147874 0.02875 0.000234048
0 0.0322344 0.0034326 2.46077e-05
-3.71772e-20 0.001038 0.0325 0.000188597
0 -0.015212 0.02875 0.000204148
1.31093e-19 -0.001462 0.0325 0.000185808
-3.00697e-20 0.0235342 0.0224985 0.000274317
1.0842e-19 0.0222847 0.02375 0.000267997
-5.64689e-22 0.0310198 0.00994264 0.000234231
-3.75049e-20 -0.028962 0.0149988 0.000264952
1.0842e-19 0.0247832 0.02125 0.000280639
8.95737e-20 0.0210354 0.0249989 0.000261008
-1.4177e-19 0.003538 0.0325 0.000191423
-1.0842e-19 -0.0327128 0.00116953 0.000196576
-1.91544e-20 -0.003962 0.0325 0.000183049
0 0.00978779 0.03125 0.000209785
-5.42101e-20 0.0327897 0 6.11669e-05
1.0842e-19 0.0297723 0.0137435 0.000300987
0 0.0322502 0.00603529 7.58006e-05
-4.48927e-20 0.0260298 0.0199964 0.000287045
-1.94818e-20 0.0260298 0.0200036 0.00028703
1.0842e-19 -0.022712 0.02375 0.00023229
-5.42101e-20 0.0328638 0.000481289 6.12769e-05
3.28979e-21 -0.023962 0.0225 0.000238028
1.0842e-19 0.0197857 0.02625 0.00025391
0 -0.010212 0.03125 0.000188029
1.0842e-19 -0.0327126 0.00356894 0.000181847
-3.35372e-20 0.0135377 0.0299999 0.000223418
-1.91544e-20 -0.021462 0.025 0.00022522
1.0842e-19 -0.025212 0.02125 0.00024387
-5.60365e-20 -0.0314621 0.00994625 0.000268884
-7.02558e-20 0.00603798 0.0325 0.000194294
8.08456e-20 -0.013962 0.03 0.000194752
-1.0842e-19 0.0272786 0.01875 0.000293545
1.0842e-19 -0.020212 0.02625 0.000218255
8.08456e-20 -0.006462 0.0325 0.00018032
2.75286e-20 0.0185364 0.0275007 0.000245361
8.08456e-20 -0.026462 0.02 0.000248487
1.0842e-19 -0.030212 0.0137433 0.000267797
-2.1684e-19 -0.0327123 0.00608232 0.000238317
-1.0842e-19 0.0322592 0.00864664 0.000187528
5.84013e-20 -0.018962 0.0275 0.000209962
-1.12938e-21 0.0310227 0.0124877 0.000286818
0 0.0334483 0 5.82459e-05
-1.0842e-19 -0.027712 0.01875 0.000253186
-5.64689e-22 0.0285291 0.0175 0.000298005
-9.03502e-21 0.033468 0.00219424 4.22204e-05
-1.0842e-19 0.0172867 0.02875 0.000236645
-1.0842e-19 0.0122876 0.03125 0.000212639
-6.5248e-21 0.008538 0.0325 0.000197211
8.08456e-20 -0.008962 0.0325 0.000177625
-1.0842e-19 -0.012712 0.03125 0.000185438
-2.1684e-19 -0.000212006 0.03375 0.000175704
-1.0842e-19 -0.017712 0.02875 0.000201761
-4.51751e-21 0.0334864 0.00470655 4.65597e-05
-1.0842e-19 0.00228798 0.03375 0.00017859
2.1684e-19 -0.0327121 0.00865608 0.000267211
-4.24302e-20 -0.028962 0.0175 0.000256885
-3.45058e-20 -0.031462 0.0124878 0.000268749
-2.1684e-19 -0.002712 0.03375 0.000172862
-1.0842e-19 0.0297727 0.0162494 0.000302142
0 -0.0339616 9.62831e-07 0.000197146
1.11544e-19 0.0160373 0.0299997 0.000226165
1.64113e-19 -0.0339616 0.00233999 0.00019065
0 0.00478797 0.03375 0.000181523
0 -0.005212 0.03375 0.00017005
-1.0842e-19 0.0322633 0.0112172 0.000270498
-5.42101e-20 0.0341686 0 5.35235e-05
1.58401e-19 -0.016462 0.03 0.00019228
-2.25875e-21 0.0334994 0.00733869 0.000124906
-1.32349e-20 -0.0339617 0.00479816 0.00021164
-1.0842e-19 -0.030212 0.0162494 0.000260626
-2.4339e-20 0.0110378 0.0324999 0.000200163
-2.1684e-19 0.0247832 0.02375 0.000270123
-3.02814e-20 0.0235342 0.0249985 0.000263207
-1.94818e-20 0.0260298 0.0224964 0.0002765
-3.7693e-20 0.026037 0.0224963 0.000276484
2.1684e-19 0.0222847 0.02625 0.000256191
-2.82344e-22 0.0310234 0.0149988 0.000301895
0 -0.011462 0.0325 0.000174968
-1.0842e-19 0.00728791 0.03375 0.000184527
0 0.0147874 0.03125 0.000215531
1.0842e-19 0.0272786 0.02125 0.000282861
1.0842e-19 -0.032712 0.0112171 0.00026978
-1.0842e-19 -0.007712 0.03375 0.000167277
-3.1552e-20 0.0210376 0.0274989 0.000247809
-9.67102e-20 -0.023962 0.025 0.000223144
0 -0.025212 0.02375 0.000230314
5.42101e-20 0.0346563 0.00073045 5.24804e-05
-1.0842e-19 -0.022712 0.02625 0.000216073
-1.30438e-20 -0.026462 0.0225 0.000236154
-1.2507e-19 -0.0339619 0.00736558 0.000253308
0 -0.015212 0.03125 0.000182875
-1.41172e-22 0.0285291 0.02 0.000289424
-2.6792e-20 -0.031462 0.0149988 0.000263473
2.1684e-19 0.0347093 0.003417 2.23161e-05
1.58401e-19 -0.021462 0.0275 0.000207688
1.0842e-19 0.0197857 0.02875 0.000239258
-1.0842e-19 -0.027712 0.02125 0.000242095
1.12938e-21 0.033505 0.0099433 0.000223653
2.40462e-20 0.001038 0.035 0.000164657
5.35381e-20 -0.001462 0.035 0.00016178
0 0.0322649 0.0137437 0.000300646
-1.0842e-19 0.0351003 0 4.92706e-05
0 0.00978779 0.03375 0.000187573