# omega  POINT_DATA 66257
# x  y  z  omega
6.77626e-21 0.000951594 0 75.55
0 0.000952378 6.05115e-05 75.55
1.35525e-20 0.00101666 0 75.5236
6.77626e-21 0.00108259 0 75.5172
1.35525e-20 0.00108205 6.12824e-05 75.5175
1.0842e-19 -0.000230001 0.00117134 75.793
6.77626e-21 -0.00142666 0 76.0093
6.77626e-21 -0.001427 4.90487e-05 76.0094
6.77626e-21 -0.00147935 0 76.0132
0 -0.00153146 0 76.0318
0 -0.00153095 4.85233e-05 76.0318
0 0.00226609 0.00117164 75.2783
2.25875e-21 0.00102252 0.00234126 48.8905
2.25875e-21 -0.00147475 0.00234099 49.4114
0 -0.00272686 0.00117106 76.2503
0 0.00343106 0 75.001
1.35525e-20 0.00343226 7.48638e-05 75.0011
1.35525e-20 0.00351169 0 74.9663
2.1684e-19 -0.000223755 0.00357153 22.0271
-1.35525e-20 0.00359276 7.59703e-05 74.9544
-1.35525e-20 0.00359358 0 74.9537
-6.77626e-21 -0.00393441 0 76.4463
0 -0.00393462 3.89347e-05 76.4464
0 -0.00397618 0 76.4495
-6.77626e-21 -0.00401725 3.85806e-05 76.462
-6.77626e-21 -0.00401757 0 76.462
3.38813e-21 0.00351914 0.00234148 48.363
-1.0842e-19 0.00227377 0.00357189 21.475
2.1684e-19 -0.00272176 0.00357118 22.6175
0 -0.00397255 0.00234072 49.9239
-1.0842e-19 0.00476133 0.00117192 74.6837
0 0.00102955 0.00480054 20.2474
0 -0.00146894 0.00480032 20.86
-1.0842e-19 -0.00522433 0.0011708 76.6592
0 0.00590658 0 74.3803
0 0.0059084 9.18337e-05 74.3805
0 0.00352769 0.00480072 19.6735
0 0.0047708 0.00357214 20.9886
-1.35525e-20 0.00600567 0 74.3399
-1.0842e-19 -0.000217791 0.00608418 19.0403
0 0.00610537 9.33789e-05 74.3178
1.35525e-20 0.00610661 0 74.3165
5.64689e-22 -0.00396773 0.00480011 21.4899
1.0842e-19 -0.00522013 0.00357084 23.2363
0 -0.00644084 0 76.8387
0 -0.00644097 3.05957e-05 76.8387
0 0.00601513 0.00234156 47.8388
-6.77626e-21 -0.00647363 0 76.8414
-2.1684e-19 0.00228097 0.00608442 18.3908
0 -0.00650597 3.03603e-05 76.8496
0 -0.00650617 0 76.8496
1.0842e-19 -0.00271679 0.00608392 19.7025
-1.12938e-21 -0.00647075 0.00234045 50.4238
2.1684e-19 0.00725575 0.00117208 74.0254
8.47033e-22 0.00103463 0.00736665 18.9786
5.64689e-22 -0.00146474 0.00736653 19.4368
-2.25875e-21 0.00602547 0.00480075 19.1634
-1.0842e-19 0.0047795 0.00608458 17.7793
0 -0.00772224 0.00117057 77.0296
0 -0.00521598 0.00608368 20.3535
-2.82344e-22 -0.00646674 0.0047999 22.1173
1.0842e-19 0.00726737 0.00357211 20.5859
-5.64689e-22 0.00353384 0.00736675 18.5179
0 -0.00396424 0.00736643 19.8757
0 0.0083778 0 73.708
0 0.00838051 0.000111807 73.7084
-1.35525e-20 0.00849876 0 73.6677
-1.0842e-19 -0.00771879 0.00357053 23.8591
0 0.00862057 0.000113948 73.632
1.35525e-20 0.00862241 0 73.6298
1.0842e-19 -0.000214113 0.00865697 19.3754
0 0.00851059 0.00234127 47.3386
-3.38813e-21 -0.0089461 0 77.1952
-3.38813e-21 -0.00894617 2.37524e-05 77.1953
1.0842e-19 0.00228541 0.0086571 19.103
-3.38813e-21 -0.00897154 0 77.1976
0 -0.00899669 2.35989e-05 77.2032
0 -0.00899681 0 77.2032
-2.1684e-19 -0.00271373 0.00865684 19.6242
2.82344e-21 -0.00896926 0.00234021 50.9121
-1.0842e-19 0.00727782 0.00608447 17.2355
2.82344e-22 0.00603292 0.00736677 18.0732
2.25875e-21 0.00852298 0.0048004 18.7382
-1.41172e-22 -0.00646384 0.00736632 20.2798
2.1684e-19 0.00974959 0.00117197 73.3313
-1.0842e-19 -0.00771532 0.00608345 20.9724
0 0.00478485 0.00865718 18.7941
4.06576e-20 0.00103449 0.00994398 18.4308
-7.41154e-20 -0.00146477 0.00994448 18.5097
-1.0842e-19 -0.00521343 0.00865671 19.8175
-5.64689e-22 -0.00896592 0.00479971 22.7326
0 -0.0102205 0.00117037 77.3691
0 0.00976367 0.00357144 20.284
7.24213e-20 0.0035336 0.00994335 18.3065
0 0.00354007 0.00994334 18.3045
-4.80691e-20 -0.00396103 0.00994489 18.5426
0 -0.0102177 0.00357025 24.4984
0 0.0108441 0 73.0088
0 0.0108481 0.000135646 73.0097
0 0.0109914 0 72.9763
-2.71051e-20 0.01114 0.000138658 72.9221
0 0.0111428 0 72.9187
0 -0.000212546 0.0112174 17.59
0 0.0110059 0.00234034 46.88
1.12938e-21 0.00853188 0.00736656 17.667
-1.0842e-19 0.00728421 0.00865713 18.4803
1.0842e-19 0.00228732 0.0112174 17.661
0 -0.0114503 0 77.5222
0 -0.0114503 1.81853e-05 77.5222
0 -0.0114698 0 77.5239
3.38813e-21 -0.011489 1.80881e-05 77.5279
0 -0.0114891 0 77.5279
0 0.00977602 0.00608381 16.7794
1.0842e-19 -0.00271244 0.0112173 17.4576
0 -0.00771318 0.0086566 19.9709
4.23516e-22 -0.00895974 0.00736235 20.6416
-1.60936e-19 -0.00896729 0.00736236 20.6415
9.31736e-21 0.00603252 0.00994255 18.1482
-9.31736e-21 0.00604059 0.00994254 18.1462
0 -0.011468 0.00234 51.3908
1.73642e-20 -0.00646372 0.00994521 18.5314
1.0842e-19 -0.0102148 0.00608326 21.5534
-1.12938e-21 0.0110204 0.0047994 18.4104
1.0842e-19 0.00478716 0.0112174 17.6659
-2.1684e-19 0.0122435 0.00117144 72.6224
1.0842e-19 -0.00521236 0.0112172 17.2816
5.64689e-22 -0.0114652 0.00479955 23.3304
-2.37169e-20 0.00103742 0.0124875 16.078
4.85456e-20 -0.00146246 0.0124876 15.9136
-1.0842e-19 0.01226 0.00356989 20.0815
0 -0.012719 0.0011702 77.6811
9.45501e-20 0.00353726 0.0124874 16.2087
-1.0842e-19 0.00978349 0.0086568 18.1705
1.20702e-19 -0.00396235 0.0124875 15.7229
0 0.00853624 0.00994662 17.9718
0 -0.0127167 0.00357001 25.139
5.64689e-22 0.0110308 0.00736595 17.3097
0 0.0133043 0 72.2947
2.71051e-20 0.0133101 0.000164761 72.2962
-2.1684e-19 0.00728695 0.0112174 17.6486
5.2516e-20 -0.00896334 0.00994741 18.4862
1.0842e-19 -0.010213 0.0086565 20.064
0 0.0134843 0 72.28
-2.1684e-19 -0.00771229 0.0112172 17.0685
4.23516e-20 -0.0114661 0.00736317 20.9625
2.71051e-20 0.0136661 0.000169325 72.1972
0 0.0136704 0 72.1921
-1.0842e-19 0.0122743 0.00608241 16.4248
0 0.0135014 0.00233865 46.4692
0 -0.000212091 0.0137434 14.4244
8.50209e-20 0.00603705 0.0124872 16.3167
0 0.00228788 0.0137434 14.6487
0 -0.0139536 0 77.8195
-1.69407e-21 -0.0139536 1.37177e-05 77.8195
0 -0.0139682 0 77.8206
0 -0.0139828 1.36577e-05 77.8234
0 -0.0139828 0 77.8234
0 -0.00271207 0.0137433 14.1954
7.07273e-20 -0.00646189 0.0124876 15.5137
1.0842e-19 -0.0127143 0.00608309 22.0835
-2.82344e-22 -0.0139669 0.00233981 51.8613
0 0.0135179 0.00479763 18.1787
0 0.00478783 0.0137434 14.8703
0 -0.00521206 0.0137433 13.9702
0 -0.0139646 0.0047994 23.9114
0 0.0147376 0.00117073 71.8982
2.82344e-22 0.0110359 0.00994643 17.7849
0 0.00978668 0.0112174 17.5882
0 0.0122827 0.00865616 17.864
3.61974e-20 0.00103802 0.0149988 13.1834
1.40363e-19 -0.00146203 0.0149988 12.9687
-1.03444e-19 0.00853678 0.012487 16.4047
-1.0842e-19 -0.0102122 0.0112172 16.8563
-5.05043e-20 -0.011463 0.00994568 18.427
0 0.0147565 0.00356775 19.9664
-1.0842e-19 -0.0152176 0.00117005 77.9618
-1.24673e-20 -0.0089622 0.0124877 15.2961
-2.1684e-19 -0.0127128 0.00865642 20.1436
5.64689e-22 0.0135297 0.00736494 17.0076
1.26195e-19 0.00353802 0.0149988 13.3994
1.36591e-19 -0.00396199 0.0149988 12.757
0 0.00728776 0.0137434 15.092
-1.0842e-19 -0.0152158 0.00356979 25.8023
0 0.0157567 0 71.5621
0 -0.00771205 0.0137433 13.7477
-5.42101e-20 0.0157653 0.000200597 71.5639
-1.55854e-19 -0.0139652 0.00736381 21.247
0 0.0147725 0.00608051 16.1639
-2.71051e-20 0.0159775 0 71.5603
9.03502e-21 0.0159972 0.00233633 46.1429
8.38232e-20 0.00603803 0.0149987 13.6166
0 0.0162004 0.000207421 71.4352
-2.71051e-20 0.0162074 0 71.4276
-1.0842e-19 -0.000212011 0.0162494 11.7289
3.1466e-20 -0.00646202 0.0149988 12.5495
1.0842e-19 -0.0152138 0.00608293 22.5721
0 0.00228798 0.0162494 11.9351
-1.69407e-21 -0.016456 0 78.084
-1.69407e-21 -0.016456 1.01993e-05 78.084
-1.69407e-21 -0.0164669 0 78.0847
-1.0842e-19 -0.00271201 0.0162494 11.5295
0 -0.0164778 1.01638e-05 78.0866
-1.69407e-21 -0.0164778 0 78.0866
-2.82344e-22 -0.0164659 0.00233964 52.3324
0 0.0122863 0.0112172 17.5161
-5.99276e-20 0.0110365 0.0124868 16.4759
-4.51751e-21 0.0160154 0.00479528 18.0777
4.23516e-22 0.0135355 0.00994611 17.6008
0 0.00978761 0.0137434 15.2992
1.0842e-19 0.00478796 0.0162494 12.1469
8.76547e-20 -0.0114622 0.0124879 15.083
-1.0842e-19 -0.0127122 0.0112171 16.6607
1.0842e-19 -0.005212 0.0162494 11.3362
0 -0.010212 0.0137433 13.5252
1.0842e-19 0.0147819 0.00865531 17.5806
-1.41772e-19 -0.0139628 0.00994585 18.3609
-1.41172e-22 -0.0164641 0.00479927 24.4873
-9.69059e-20 0.00853784 0.0149987 13.8304
0 0.0172319 0.0011701 71.1339
2.5861e-20 -0.00896199 0.0149988 12.3447
2.1684e-19 -0.0152126 0.00865635 20.1827
5.5401e-20 0.001038 0.0175 10.8414
1.3695e-19 -0.001462 0.0175 10.6627
1.0842e-19 0.017253 0.0035653 20.1015
0 0.0160286 0.00736361 16.7613
0 -0.0177165 0.00116993 78.2088
0 0.0072879 0.0162494 12.3608
-1.4177e-19 0.003538 0.0175 11.0263
1.17414e-20 -0.003962 0.0175 10.4898
1.0842e-19 -0.007712 0.0162494 11.1475
1.16467e-19 -0.0164645 0.00736776 21.4925
0 -0.0177151 0.00356961 26.5092
-2.71051e-20 0.0182028 0 70.8452
-2.71051e-20 0.0182155 0.000241221 70.8481
1.0842e-19 0.0172707 0.00607818 15.9905
-4.70103e-20 0.013536 0.0124892 16.5382
0 0.0122874 0.0137434 15.5082
2.71051e-20 0.0184707 0 70.8555
-4.64536e-20 0.006038 0.0175 11.2164
0 0.0147859 0.011217 17.4403
2.50934e-20 0.0110377 0.0149986 14.0409
4.51751e-21 0.0184934 0.00233259 45.967
4.78875e-20 -0.006462 0.0175 10.3219
1.0842e-19 -0.012712 0.0137433 13.3032
2.1684e-19 -0.0177135 0.0060828 23.0144
-1.85686e-20 -0.0139621 0.0124877 14.8767
-2.71051e-20 0.0187394 0.000249081 70.7314
2.71051e-20 0.0187499 0 70.7218
-1.0842e-19 -0.000212006 0.01875 9.77213
0 0.016035 0.00994571 17.4229
-2.45615e-20 -0.011462 0.0149988 12.1416
2.1684e-19 0.00228798 0.01875 9.92969
1.0842e-19 -0.0152122 0.0112171 16.4745
-1.0842e-19 -0.002712 0.01875 9.62043
0 -0.0189578 0 78.3172
0 -0.0189578 7.48767e-06 78.3172
0 -0.0189658 0 78.3176
-2.1684e-19 0.00978778 0.0162494 12.5732
0 -0.0189738 7.46722e-06 78.3188
-1.69407e-21 -0.0189738 0 78.3188
-4.23516e-22 -0.0189651 0.0023395 52.8053
0 0.0185135 0.0047916 18.1364
-1.0842e-19 -0.010212 0.0162494 10.9618
2.61521e-20 -0.0164626 0.00994597 18.2786
2.1684e-19 0.0172808 0.0086543 17.316
0 0.00478797 0.01875 10.0938
-1.0842e-19 -0.005212 0.01875 9.47354
-4.86316e-20 0.00853794 0.0175 11.4096
1.65171e-20 -0.0189602 0.00479567 25.0652
-4.23516e-22 -0.0189672 0.00479567 25.0605
5.80779e-20 -0.008962 0.0175 10.1581
0 -0.0177125 0.00865629 20.1943
-1.0842e-19 0.0197268 0.0011683 70.4808
3.38813e-21 0.0185276 0.00736167 16.5708
6.28228e-20 0.001038 0.02 9.1653
5.35381e-20 -0.001462 0.02 9.03058
-1.0842e-19 0.0197514 0.00356002 20.4615
1.0842e-19 0.00728791 0.01875 10.2644
0 0.0147871 0.0137433 15.6949
-8.16593e-20 0.0135376 0.014999 14.2472
-2.1684e-19 -0.0202155 0.00116983 78.4272
1.0842e-19 -0.007712 0.01875 9.33089
-4.17705e-20 0.003538 0.02 9.30499
-1.19643e-19 0.0160352 0.0124859 16.5857
7.26331e-20 -0.0189639 0.00736469 21.7016
-1.0842e-19 0.0122876 0.0162494 12.7866
1.47606e-20 -0.003962 0.02 8.89995
-2.8115e-20 -0.013962 0.0149988 11.9407
1.0842e-19 -0.015212 0.0137433 13.0819
-1.0842e-19 -0.0202144 0.00356944 27.2421
-2.1684e-19 0.0172851 0.0112168 17.3521
-1.0842e-19 -0.012712 0.0162494 10.7794
2.71051e-20 0.0206492 0 70.3095
-1.98325e-20 -0.0164619 0.0124877 14.6714
0 0.0206673 0.000280665 70.3138
-1.0842e-19 0.0197697 0.00607424 15.8953
6.08805e-22 0.0110378 0.0174999 11.6053
-7.02533e-20 0.00603798 0.02 9.45071
3.8061e-20 -0.011462 0.0175 9.99798
-5.42101e-20 0.0209637 0 70.5101
2.1684e-19 -0.0177121 0.0112171 16.2821
8.08456e-20 -0.006462 0.02 8.77311
-8.47033e-22 0.0185343 0.00994519 17.2556
0 -0.0202132 0.00608269 23.4252
-4.51751e-21 0.0209903 0.00232545 46.0551
-2.1684e-19 0.00978779 0.01875 10.4405
0 -0.000212006 0.02125 8.42152
-2.71051e-20 0.0212775 0.000287875 70.2979
-2.71051e-20 0.0212916 0 70.2917
0 -0.010212 0.01875 9.19242
1.0842e-19 0.00228798 0.02125 8.53784
2.82168e-20 -0.0189625 0.00994606 18.1719
0 -0.002712 0.02125 8.30822
8.47033e-22 -0.0214591 5.43834e-06 78.5224
8.47033e-22 -0.0214707 0 78.5234
-2.25875e-21 0.0210123 0.00478532 18.3748
1.0842e-19 0.0197796 0.008653 17.0891
-1.41172e-22 -0.0214644 0.00233938 53.2852
8.23872e-21 0.00853794 0.02 9.60277
1.0842e-19 0.00478797 0.02125 8.65866
-1.0842e-19 -0.005212 0.02125 8.1976
-9.67102e-20 -0.008962 0.02 8.65022
1.07838e-19 0.0160372 0.0149984 14.4459
1.0842e-19 0.0147873 0.0162494 13.0028
-1.0842e-19 -0.0202124 0.00865623 20.1657
1.27055e-20 -0.0214659 0.00479644 25.639
2.1684e-19 0.0172864 0.0137433 15.8615
-3.34843e-20 0.0135377 0.0175001 11.804
0 0.0222219 0.00116339 70.1561
0 -0.015212 0.0162494 10.6016
-3.67355e-20 -0.016462 0.0149988 11.7425
-1.12938e-21 0.0210266 0.00735887 16.4387
-1.2282e-19 0.0185339 0.0124904 16.6176
1.13296e-19 -0.013962 0.0175 9.84224
1.0842e-19 0.0122876 0.01875 10.6212
0 -0.017712 0.0137433 12.8608
1.0842e-19 0.00728791 0.02125 8.786
2.40462e-20 0.001038 0.0225 7.99835
-1.0842e-19 0.0222501 0.00355028 21.1623
1.14761e-19 -0.001462 0.0225 7.89617
1.0842e-19 -0.007712 0.02125 8.0904
-1.0842e-19 -0.012712 0.01875 9.0586
-6.35275e-22 -0.0214634 0.00736498 21.8688
1.03808e-19 -0.018962 0.0124878 14.4586
0 0.0197839 0.0112166 17.2621
1.0842e-19 -0.0227147 0.00116974 78.6186
5.82295e-20 0.003538 0.0225 8.10341
-2.43125e-20 0.0110378 0.0199999 9.76045
3.28979e-21 -0.003962 0.0225 7.79619
-1.0842e-19 -0.0227139 0.00356931 28.0321
8.08456e-20 -0.011462 0.02 8.53156
-1.0842e-19 0.0222687 0.00606848 15.886
0 0.0230907 0 69.9553
-1.0842e-19 -0.0202121 0.0112171 16.0661
-5.42101e-20 0.0231152 0.000321554 69.9547
-2.82344e-22 0.0210335 0.00994459 17.1031
-7.02516e-20 0.00603798 0.0225 8.21304
0 0.00978779 0.02125 8.92018
-9.67102e-20 -0.006462 0.0225 7.69881
-5.42101e-20 0.0234563 0 70.5523
-1.0842e-19 -0.0227129 0.00608259 23.7963
-1.0842e-19 -0.010212 0.02125 7.98719
4.51751e-21 0.0234867 0.00231572 46.4613
-1.58104e-19 -0.0214623 0.00994613 18.0278
0 0.0172867 0.0162494 13.2281
2.4511e-20 0.0160379 0.0174997 12.0078
1.0842e-19 -0.000212006 0.02375 7.47189
0 0.0238222 0.000334698 69.8566
4.18223e-20 0.0185361 0.0149979 14.6354
2.71051e-20 0.0238446 0 69.8497
2.1684e-19 0.00228798 0.02375 7.56214
0 0.0147874 0.01875 10.8058
-2.1684e-19 0.0222784 0.00865156 16.8931
0 -0.002712 0.02375 7.38307
0 -0.02396 3.91345e-06 78.7025
2.25875e-21 0.0235099 0.00477762 18.8939
-6.42586e-20 -0.016462 0.0175 9.69123
1.0842e-19 -0.017712 0.0162494 10.4289
8.23872e-21 0.00853794 0.0225 8.32855
0 -0.0239602 0.00233583 53.8512
3.38813e-20 -0.0239674 0.00234276 53.7565
-1.0842e-19 0.0197854 0.0137433 15.9998
0 -0.015212 0.01875 8.92962
-3.34843e-20 0.0135377 0.0199999 9.92262
-1.74279e-20 -0.018962 0.0149988 11.5469
-9.67102e-20 -0.008962 0.0225 7.60473
-1.0842e-19 0.00478797 0.02375 7.65499
0 -0.0227123 0.00865619 20.0804
0 -0.005212 0.02375 7.29588
3.28979e-21 -0.013962 0.02 8.41714
1.39337e-19 -0.0239649 0.00479702 26.2206
2.1684e-19 -0.020212 0.0137433 12.6394
4.82809e-20 0.0210324 0.0124842 16.6312
4.06576e-20 0.0210325 0.0124911 16.6294
1.0842e-19 0.0122876 0.02125 9.05997
-1.12938e-21 0.0235251 0.00735571 16.3674
1.0842e-19 0.0247144 0.00115991 69.6695
0 -0.012712 0.02125 7.88804
0 -0.021462 0.0124878 14.2326
1.0842e-19 0.00728791 0.02375 7.75253
1.0842e-19 0.0222828 0.0112165 17.1652
0 -0.007712 0.02375 7.21135
-1.0842e-19 0.024745 0.00354107 22.4804
6.28228e-20 0.001038 0.025 7.15997
-4.64619e-20 -0.001462 0.025 7.07786
-2.4339e-20 0.0110378 0.0224999 8.44965
-5.48454e-20 -0.0239617 0.00736519 21.9906
0 -0.025214 0.00116967 78.7865
-1.4177e-19 0.003538 0.025 7.24376
-9.67102e-20 -0.011462 0.0225 7.51419
-1.91544e-20 -0.003962 0.025 6.99709
-1.0842e-19 -0.0227121 0.0112171 15.8207
1.0842e-19 -0.0252134 0.00356919 28.8642
6.53274e-20 0.0185364 0.0174993 12.217
0 0.0247657 0.00606274 15.9649
-1.0842e-19 0.0172867 0.01875 10.995
0 0.0255124 0 69.4578
0 0.0235324 0.00994397 16.9689
0 0.0255491 0.000373423 69.451
-1.0842e-19 0.0197856 0.0162494 13.4557
1.11544e-19 0.0160373 0.0199997 10.0885
-2.1684e-19 0.00978779 0.02375 7.85549
-7.02533e-20 0.00603798 0.025 7.33057
1.0842e-19 -0.017712 0.01875 8.80505
-6.15279e-20 -0.018962 0.0175 9.54503
-1.91544e-20 -0.006462 0.025 6.91824
-7.41154e-20 0.0210351 0.0149975 14.8077
-1.0842e-19 -0.010212 0.02375 7.12998
0 0.0147874 0.02125 9.20354
6.45119e-20 -0.016462 0.02 8.30648
-1.0842e-19 -0.020212 0.0162494 10.2619
1.0842e-19 -0.0252127 0.0060825 24.1235
7.12037e-20 -0.0239623 0.00994618 17.8481
0 0.0259495 0 70.2144
-1.35525e-20 0.0259804 0.00230532 47.044
0 -0.015212 0.02125 7.79229
1.0842e-19 0.0222843 0.0137433 16.0963
0 -0.021462 0.0149988 11.3541
2.1684e-19 0.0247764 0.00865012 16.7367
1.0842e-19 -0.000212006 0.02625 6.76532
-3.35637e-20 0.0135377 0.0224999 8.57502
0 0.00228798 0.02625 6.84054
5.42101e-20 0.0263739 0.000391789 69.2147
-1.0842e-19 -0.002712 0.02625 6.69116
5.42101e-20 0.0264109 0 69.1994
8.23872e-21 0.00853794 0.025 7.4216
9.03502e-21 0.0260059 0.00476911 19.6854
0 -0.0264606 2.79231e-06 78.8607
3.28979e-21 -0.013962 0.0225 7.42679
2.1684e-19 -0.022712 0.0137433 12.4181
8.08456e-20 -0.008962 0.025 6.84192
1.18585e-19 -0.0264661 0.00234175 54.2754
2.28699e-20 0.0235308 0.0124833 16.6265
2.5411e-21 0.0235308 0.0124918 16.6245
-1.0842e-19 -0.0252122 0.00865616 19.954
-1.0842e-19 0.00478797 0.02625 6.91738
-1.0842e-19 0.0122876 0.02375 7.96297
0 -0.005212 0.02625 6.61827
-1.01644e-19 -0.0264641 0.00479744 26.7933
0 -0.012712 0.02375 7.05157
6.92449e-20 -0.023962 0.0124878 13.9962
0 0.0260223 0.00735219 16.3576
1.0842e-19 0.0247812 0.0112164 17.0784
0 0.0272032 0.00115759 69.0103
0 0.00728791 0.02625 6.99739
0 0.0197857 0.01875 11.19
2.74227e-20 0.0185364 0.0199993 10.2587
-4.37413e-20 0.011038 0.0249999 7.5168
1.0842e-19 -0.007712 0.02625 6.54745
-6.35275e-21 0.0210376 0.0174989 12.4299
0 0.0172867 0.02125 9.34978
0 0.0272397 0.00352904 24.1031
8.29033e-20 -0.0264618 0.00736533 22.0657
3.28979e-21 -0.011462 0.025 6.76822
2.40462e-20 0.001038 0.0275 6.52045
1.31093e-19 -0.001462 0.0275 6.45027
-1.13044e-19 -0.018962 0.02 8.19906
1.0842e-19 -0.020212 0.01875 8.68457
-1.0842e-19 0.0222846 0.0162494 13.6826
-1.0842e-19 -0.025212 0.0112171 15.5597
1.11544e-19 0.0160373 0.0224997 8.70331
0 -0.017712 0.02125 7.69898
0 -0.021462 0.0175 9.40355
-4.17705e-20 0.003538 0.0275 6.59188
1.0842e-19 -0.0277135 0.00116961 78.9349
8.08456e-20 -0.003962 0.0275 6.38116
-1.69407e-21 0.0260298 0.00994338 16.8501
-3.54881e-20 -0.016462 0.0225 7.34167
1.49925e-19 0.0235338 0.014997 14.9616
1.0842e-19 0.0272619 0.0060552 16.1374
-1.0842e-19 -0.022712 0.0162494 10.1002
0 0.0279286 0 69.7555
1.0842e-19 -0.0277131 0.00356909 29.7216
0 0.0147874 0.02375 8.07366
5.42101e-20 0.0279823 0.000421403 69.8062
1.0842e-19 0.00978779 0.02625 7.08098
8.1651e-21 0.006038 0.0275 6.66549
0 -0.010212 0.02625 6.47891
0 -0.015212 0.02375 6.97525
-9.67102e-20 -0.006462 0.0275 6.31354
1.47595e-20 -0.023962 0.0149988 11.1647
1.08354e-19 -0.0264622 0.00994621 17.6444
-2.1684e-19 0.0247828 0.0137434 16.1636
0 -0.0277125 0.00608242 24.39
5.42101e-20 0.0284251 0 71.4084
-2.65492e-20 0.0135379 0.0249999 7.61544
1.35525e-20 0.0284741 0.00227875 48.7026
-1.0842e-19 0.0272718 0.00864862 16.607
-3.54881e-20 -0.013962 0.025 6.69662
-1.0842e-19 -0.025212 0.0137433 12.1999
-1.0842e-19 -0.000212006 0.02875 6.20489
8.2321e-21 0.00853794 0.0275 6.74205
-2.1684e-19 0.00228798 0.02875 6.27106
4.23516e-22 0.0260327 0.0124876 16.6022
-1.0842e-19 -0.002712 0.02875 6.13971
4.51751e-21 0.0285046 0.00475129 20.7143
-5.42101e-20 0.0288977 0.000401716 71.6732
8.08456e-20 -0.008962 0.0275 6.24783
0 0.0289345 0 71.7931
0 -0.0289611 1.97592e-06 79.0014
1.0842e-19 0.0122876 0.02625 7.16779
8.95737e-20 0.0210354 0.0199989 10.4348
-1.0842e-19 -0.0277122 0.00865612 19.7867
0 0.0197857 0.02125 9.5003
1.82112e-20 -0.0289611 0.00234099 54.7735
2.1684e-19 0.0222847 0.01875 11.3919
-1.0842e-19 0.00478797 0.02875 6.33856
2.73168e-20 0.0185364 0.0225007 8.8347
-1.0842e-19 -0.012712 0.02625 6.41241
0 -0.005212 0.02875 6.07551
-1.02152e-19 -0.026462 0.0124878 13.7586
-3.89635e-20 0.0235372 0.0174985 12.646
0 -0.020212 0.02125 7.60767
0 -0.021462 0.02 8.09459
-1.71524e-20 -0.0289615 0.00479776 27.346
-1.0842e-19 0.0172867 0.02375 8.18632
3.28979e-21 -0.018962 0.0225 7.25822
7.90564e-21 0.0285183 0.00734773 16.4268
0 -0.022712 0.01875 8.5678
-1.0842e-19 0.0272766 0.0112163 16.9768
0 -0.017712 0.02375 6.90017
-2.43257e-20 0.0110378 0.0274999 6.8215
-1.0842e-19 0.0247831 0.0162494 13.9074
0 0.00728791 0.02875 6.40864
1.56997e-19 -0.023962 0.0175 9.26641
1.11597e-19 0.0160373 0.0249997 7.71645
1.0842e-19 0.0297038 0.00111931 72.3868
-1.0842e-19 -0.007712 0.02875 6.01294
-9.67102e-20 -0.011462 0.0275 6.18401
5.50571e-20 -0.0289618 0.00736544 22.0966
0 -0.027712 0.0112171 15.3002
3.28979e-21 -0.016462 0.025 6.62641
1.0842e-19 0.0297515 0.00348068 26.188
0 -0.025212 0.0162494 9.94352
6.28228e-20 0.001038 0.03 6.00085
1.31093e-19 -0.001462 0.03 5.9379
-5.92923e-20 0.0260294 0.0149949 15.0969
-5.75982e-20 0.0260294 0.0150027 15.0928
1.0842e-19 0.0147874 0.02625 7.25738
-4.17705e-20 0.003538 0.03 6.06492
-5.64689e-22 0.0285254 0.00994287 16.7373
-1.0842e-19 -0.0302131 0.00116957 79.068
-1.91544e-20 -0.003962 0.03 5.87588
-1.0842e-19 -0.015212 0.02625 6.34726
0 0.0297582 0.00604461 16.4889
0 0.00978779 0.02875 6.48121
0 0.0304053 0 73.5369
-8.4235e-20 -0.026462 0.0149988 10.98
1.0842e-19 -0.0302128 0.00356901 30.5888
0 0.0304496 0.000427148 73.5083
0 -0.010212 0.02875 5.95202
1.0842e-19 0.0272782 0.0137434 16.1931
-7.02533e-20 0.00603798 0.03 6.13086
-1.43202e-20 -0.0289621 0.00994623 17.428
-3.35372e-20 0.0135377 0.0275001 6.90357
8.08456e-20 -0.006462 0.03 5.81505
1.0842e-19 0.0222847 0.02125 9.65707
8.97855e-20 0.0210354 0.0224989 8.97071
-1.0842e-19 -0.0302124 0.00608237 24.6011
8.08456e-20 -0.013962 0.0275 6.1217
-3.00697e-20 0.0235342 0.0199985 10.6189
1.0842e-19 0.0197857 0.02375 8.30246
0 0.0309265 0 85.6264
0 -0.027712 0.0137433 11.9882
0 0.0297661 0.00864739 16.4994
-9.03502e-21 0.0309769 0.0022233 52.4335
0 0.0247832 0.01875 11.6028
-1.57772e-30 -0.021462 0.0225 7.17631
1.0842e-19 -0.022712 0.02125 7.51833
2.74227e-20 0.0185364 0.0250007 7.81995
-5.64689e-22 0.0285283 0.0124876 16.5546
1.0842e-19 -0.020212 0.02375 6.82605
8.2321e-21 0.00853794 0.03 6.19909
1.58401e-19 -0.023962 0.02 7.99294
-2.1684e-19 -0.000212006 0.03125 5.73337
1.0842e-19 0.0122876 0.02875 6.55603
8.08456e-20 -0.008962 0.03 5.75569
2.1684e-19 0.00228798 0.03125 5.7941
0 0.0310004 0.00472577 22.1535
-2.58345e-20 0.0260298 0.0174964 12.8635
-2.1684e-19 -0.002712 0.03125 5.67363
-4.23516e-21 0.0260298 0.0175036 12.8595
8.08456e-20 -0.018962 0.025 6.55714
0 -0.025212 0.01875 8.45433
0 -0.0302121 0.00865609 19.5993
-1.0842e-19 0.0172867 0.02625 7.34849
0 -0.012712 0.02875 5.89269
5.42101e-20 0.0314366 0.000417556 76.1411
0 -0.0314613 1.38619e-06 79.127
-1.0842e-19 0.0314756 0 76.4654
-1.39565e-19 -0.028962 0.0124878 13.5271
2.11758e-20 -0.0314642 0.00234041 55.2653
-1.0842e-19 0.00478797 0.03125 5.85598
1.0842e-19 -0.017712 0.02625 6.28296
-1.0842e-19 -0.005212 0.03125 5.61468
5.75698e-20 -0.026462 0.0175 9.13322
2.1684e-19 0.0272786 0.0162494 14.1138
-1.0842e-19 0.0297706 0.0112165 16.8652
2.5411e-20 -0.0314632 0.00479798 27.8686
1.11544e-19 0.0160373 0.0274997 6.98751
-6.77626e-21 0.0310128 0.00734326 16.5853
-2.43125e-20 0.0110378 0.0299999 6.26938
-9.67102e-20 -0.016462 0.0275 6.0604
-2.1684e-19 0.00728791 0.03125 5.92025
-9.67102e-20 -0.011462 0.03 5.69781
0 -0.027712 0.0162494 9.7913
1.0842e-19 -0.007712 0.03125 5.55707
0 0.0322011 0.00107821 76.8601
1.0842e-19 -0.030212 0.0112171 15.0495
-1.41172e-22 0.0285291 0.0149988 15.1995
-2.46169e-20 -0.0314625 0.00736553 22.0875
1.0842e-19 0.0147874 0.02875 6.63311
0 0.0322344 0.0034326 29.1012
-3.71772e-20 0.001038 0.0325 5.55255
0 -0.015212 0.02875 5.83444
1.31093e-19 -0.001462 0.0325 5.49393
-3.00697e-20 0.0235342 0.0224985 9.11407
1.0842e-19 0.0222847 0.02375 8.42319
-5.64689e-22 0.0310198 0.00994264 16.6254
-3.75049e-20 -0.028962 0.0149988 10.8011
1.0842e-19 0.0247832 0.02125 9.82429
8.95737e-20 0.0210354 0.0249989 7.92696
-1.4177e-19 0.003538 0.0325 5.61216
-1.0842e-19 -0.0327128 0.00116953 79.1862
-1.91544e-20 -0.003962 0.0325 5.43618
0 0.00978779 0.03125 5.98628
-5.42101e-20 0.0327897 0 76.9943
1.0842e-19 0.0297723 0.0137435 16.1857
0 0.0322502 0.00603529 16.9954
-4.48927e-20 0.0260298 0.0199964 10.8141
-1.94818e-20 0.0260298 0.0200036 10.811
1.0842e-19 -0.022712 0.02375 6.75319
-5.42101e-20 0.0328638 0.000481289 76.6685
3.28979e-21 -0.023962 0.0225 7.09626
1.0842e-19 0.0197857 0.02625 7.44259
0 -0.010212 0.03125 5.50074
1.0842e-19 -0.0327126 0.00356894 31.4505
-3.35372e-20 0.0135377 0.0299999 6.34176
-1.91544e-20 -0.021462 0.025 6.48887
1.0842e-19 -0.025212 0.02125 7.43132
-5.60365e-20 -0.0314621 0.00994625 17.2063
-7.02558e-20 0.00603798 0.0325 5.67341
8.08456e-20 -0.013962 0.03 5.64118
-1.0842e-19 0.0272786 0.01875 11.8182
1.0842e-19 -0.020212 0.02625 6.21939
8.08456e-20 -0.006462 0.0325 5.37953
2.75286e-20 0.0185364 0.0275007 7.07351
8.08456e-20 -0.026462 0.02 7.89412
1.0842e-19 -0.030212 0.0137433 11.7839
-2.1684e-19 -0.0327123 0.00608232 24.7418
-1.0842e-19 0.0322592 0.00864664 16.3979
5.84013e-20 -0.018962 0.0275 5.99987
-1.12938e-21 0.0310227 0.0124877 16.4866
0 0.0334483 0 93.5832
-1.0842e-19 -0.027712 0.01875 8.34396
-5.64689e-22 0.0285291 0.0175 13.0689
-9.03502e-21 0.033468 0.00219424 54.2355
-1.0842e-19 0.0172867 0.02875 6.71109
-1.0842e-19 0.0122876 0.03125 6.05402
-6.5248e-21 0.008538 0.0325 5.73668
8.08456e-20 -0.008962 0.0325 5.32419
-1.0842e-19 -0.012712 0.03125 5.44578
-2.1684e-19 -0.000212006 0.03375 5.31264
-1.0842e-19 -0.017712 0.02875 5.77695
-4.51751e-21 0.0334864 0.00470655 23.4676
-1.0842e-19 0.00228798 0.03375 5.3701
2.1684e-19 -0.0327121 0.00865608 19.3981
-4.24302e-20 -0.028962 0.0175 9.00391
-3.45058e-20 -0.031462 0.0124878 13.3018
-2.1684e-19 -0.002712 0.03375 5.25608
-1.0842e-19 0.0297727 0.0162494 14.3084
0 -0.0339616 9.62831e-07 79.2399
1.11544e-19 0.0160373 0.0299997 6.41566
1.64113e-19 -0.0339616 0.00233999 55.7466
0 0.00478797 0.03375 5.42846
0 -0.005212 0.03375 5.20035
-1.0842e-19 0.0322633 0.0112172 16.7388
-5.42101e-20 0.0341686 0 75.0486
1.58401e-19 -0.016462 0.03 5.58545
-2.25875e-21 0.0334994 0.00733869 16.7695
-1.32349e-20 -0.0339617 0.00479816 28.3592
-1.0842e-19 -0.030212 0.0162494 9.64365
-2.4339e-20 0.0110378 0.0324999 5.80173
-2.1684e-19 0.0247832 0.02375 8.55205
-3.02814e-20 0.0235342 0.0249985 8.03939
-1.94818e-20 0.0260298 0.0224964 9.26836
-3.7693e-20 0.026037 0.0224963 9.26623
2.1684e-19 0.0222847 0.02625 7.53974
-2.82344e-22 0.0310234 0.0149988 15.2831
0 -0.011462 0.0325 5.27017
-1.0842e-19 0.00728791 0.03375 5.48893
0 0.0147874 0.03125 6.12391
1.0842e-19 0.0272786 0.02125 10.0018
1.0842e-19 -0.032712 0.0112171 14.8023
-1.0842e-19 -0.007712 0.03375 5.14602
-3.1552e-20 0.0210376 0.0274989 7.16233
-9.67102e-20 -0.023962 0.025 6.42203
0 -0.025212 0.02375 6.68221
5.42101e-20 0.0346563 0.00073045 74.8917
-1.0842e-19 -0.022712 0.02625 6.15686
-1.30438e-20 -0.026462 0.0225 7.01845
-1.2507e-19 -0.0339619 0.00736558 22.043
0 -0.015212 0.03125 5.39182
-1.41172e-22 0.0285291 0.02 11.0109
-2.6792e-20 -0.031462 0.0149988 10.6276
2.1684e-19 0.0347093 0.003417 30.4922
1.58401e-19 -0.021462 0.0275 5.94018
1.0842e-19 0.0197857 0.02875 6.79191
-1.0842e-19 -0.027712 0.02125 7.34689
1.12938e-21 0.033505 0.0099433 16.5041
2.40462e-20 0.001038 0.035 5.14595
5.35381e-20 -0.001462 0.035 5.09058
0 0.0322649 0.0137437 16.1585
-1.0842e-19 0.0351003 0 75.6867
0 0.00978779 0.03375 5.55125
-1.0842e-19 -0.020212 0.02875 5.72018
-1.4177e-19 0.003538 0.035 5.20221
0 0.0297727 0.01875 12.0364
-1.91544e-20 -0.028962 0.02 7.79823
-3.35372e-20 0.0135377 0.0324999 5.86877
8.08456e-20 -0.003962 0.035 5.03606
-2.1684e-19 -0.0352126 0.0011695 79.2937
0 0.0347305 0.00602051 17.4386
-1.0842e-19 -0.010212 0.03375 5.09295
2.75286e-20 0.0185364 0.0299993 6.49137
5.84013e-20 -0.013962 0.0325 5.21731
-4.83735e-20 -0.033962 0.00994627 16.9768
-1.0842e-19 -0.0352125 0.00356889 32.3015
-1.0842e-19 -0.032712 0.0137433 11.585
5.84013e-20 -0.018962 0.03 5.53047
4.23566e-20 0.00603798 0.035 5.26004
-1.0842e-19 -0.030212 0.01875 8.23699
-9.67102e-20 -0.006462 0.035 4.98269
8.47033e-22 0.0310234 0.0175 13.2676
-1.0842e-19 0.0172867 0.03125 6.19458
1.0842e-19 -0.0352122 0.00608228 24.8404
1.69407e-21 0.0335076 0.0124881 16.3929
-1.0842e-19 0.0347335 0.00864855 16.3005
0 0.0358561 0 95.5626
-1.0842e-19 0.0122876 0.03375 5.61539
0 -0.017712 0.03125 5.33861
1.807e-20 0.035929 0.00216007 56.1319
8.05822e-20 -0.031462 0.0175 8.87864
-4.10282e-22 0.00853794 0.035 5.31998
0 -0.012712 0.03375 5.04124
-1.94818e-20 0.0260298 0.0249964 8.1598
-3.7693e-20 0.026037 0.0249963 8.1583
2.1684e-19 0.0247832 0.02625 7.64282
-1.0842e-19 0.0322653 0.0162495 14.4831
8.08456e-20 -0.008962 0.035 4.9307
0 0.0272786 0.02375 8.6889
-4.15683e-20 -0.033962 0.0124878 13.078
-3.00697e-20 0.0235342 0.0274985 7.25535
1.11544e-19 0.0160373 0.0324997 5.93732
0 -0.000212006 0.03625 4.92343
-2.1684e-19 -0.0352121 0.00865606 19.1814
-4.51751e-21 0.035972 0.00468312 24.6767
0 0.00228798 0.03625 4.97763
-5.64689e-22 0.0285291 0.0225 9.42804
-1.0842e-19 -0.002712 0.03625 4.87018
0 0.0222847 0.02875 6.87519
0 -0.025212 0.02625 6.09587
-1.30438e-20 -0.026462 0.025 6.35701
-4.15987e-20 -0.016462 0.0325 5.16529
0 -0.0364618 6.6043e-07 79.3393
-1.91544e-20 -0.023962 0.0275 5.88167
1.0842e-19 -0.027712 0.02375 6.6134
-1.0842e-19 0.034738 0.0112189 16.5812
0 -0.032712 0.0162494 9.50069
-2.25523e-20 -0.0364617 0.00233967 56.2145
2.1684e-19 0.00478797 0.03625 5.03265
-1.0842e-19 0.0297727 0.02125 10.1881
0 0.0366057 0 79.34
1.0842e-19 -0.005212 0.03625 4.81766
-1.0842e-19 -0.022712 0.02875 5.66431
8.95737e-20 0.0210354 0.0299989 6.56958
6.45119e-20 -0.028962 0.0225 6.94296
-1.57217e-19 0.011038 0.0349999 5.38184
0 0.0335083 0.0149989 15.3428
2.25875e-21 0.0359833 0.00733988 16.9343
-2.1684e-20 0.0367406 0.000746212 78.8512
-4.85456e-20 -0.0364618 0.00479828 28.8233
8.08456e-20 -0.011462 0.035 4.88009
-1.0842e-19 0.0147874 0.03375 5.68178
-1.91544e-20 -0.021462 0.03 5.47626
5.64689e-22 0.0310234 0.02 11.2104
-1.0842e-19 -0.030212 0.02125 7.26508
-1.0842e-19 -0.035212 0.0112171 14.5495
-2.1684e-19 0.00728792 0.03625 5.09013
1.0842e-19 0.0197857 0.03125 6.26793
0 -0.015212 0.03375 4.99041
0 -0.007712 0.03625 4.76674
3.51085e-20 -0.033962 0.0149988 10.4583
-8.67679e-20 -0.0364622 0.00736562 21.9694
0 -0.020212 0.03125 5.28616
8.08456e-20 -0.031462 0.02 7.70522