# omega  POINT_DATA 53068
# x  y  z  omega
-5.90671e-05 2.1684e-19 0 75.7432
0.000934805 0 0 75.5849
-0.00106911 0 0 75.9261
0.00140088 2.71051e-20 0 75.4095
-0.00151888 -2.71051e-20 0 75.9837
0.00117901 -9.03502e-21 0.00117113 73.3223
-0.00128849 2.25875e-20 0.00117062 73.8777
-4.31765e-05 1.0842e-19 0.00234072 49.119
0.00239261 0 0 74.9168
-0.00253032 0 0 75.9982
0.00336229 8.13152e-20 0 74.4546
0.00242341 0 0.00234108 48.1623
-0.00252293 0 0.00234014 49.9317
-0.00355263 -5.42101e-20 0 76.0237
0.00120442 0 0.0035713 23.3443
-0.00127507 -1.35525e-20 0.00357065 24.6861
0.00362707 -4.51751e-21 0.00117131 72.0604
0.00385067 -5.42101e-20 0 74.1913
-0.00376956 -4.51751e-21 0.00117017 74.0402
-0.00399133 0 0 76.0161
-2.29192e-05 -1.0842e-19 0.00480025 20.5135
0.00481724 0 0 73.6431
-0.00501448 0 0 75.9168
0.00367197 -1.35525e-20 0.00357105 22.5605
-0.00376301 0 0.00356998 25.9823
0.00245907 -1.0842e-19 0.00480044 19.2554
0.00487218 1.0842e-19 0.00233996 47.4017
-0.00251212 0 0.00479977 21.9634
-0.00501145 0 0.00233967 50.5551
0.00575627 -5.42101e-20 0 73.1027
-0.00604431 0 0 75.8274
0.00605007 -1.807e-20 0.00116989 70.6957
0.00122797 -4.51751e-21 0.006084 18.3604
-0.001262 0 0.00608355 19.9137
0.00627263 5.42101e-20 0 72.904
-0.00625929 -4.51751e-21 0.00116985 73.9118
-0.00647612 1.35525e-19 0 75.7789
0.00493143 -2.1684e-19 0.00479869 18.7468
-0.00500606 0 0.00479935 23.2572
0.00612525 -1.807e-20 0.00356686 22.82
0.00371201 -4.51751e-21 0.00608361 17.2105
-0.00375618 0 0.00608307 21.2533
-0.00625636 -4.51751e-21 0.00356948 27.224
0.00720746 0 0 72.6184
-8.80336e-06 0 0.00736662 19.1721
-0.00750642 -1.0842e-19 0 75.6088
0.00730091 1.0842e-19 0.00233311 47.7204
0.00248389 -1.0842e-19 0.00736673 18.1684
-0.00250453 1.0842e-19 0.00736633 20.1351
-0.00750536 1.0842e-19 0.00233933 51.1009
0.00810899 2.71051e-20 0 72.2361
0.00844495 -4.51751e-21 0.00116271 70.0522
-0.00854047 8.13152e-20 0 75.4436
0.00866226 5.42101e-20 0 72.4571
0.0061894 4.51751e-21 0.00607973 16.9545
-0.00625302 -9.03502e-21 0.00608271 22.3028
0.00124214 0 0.00865691 18.982
-0.00125418 1.35525e-20 0.00865666 19.5572
0.00739431 0 0.00479014 19.5762
-0.0087541 0 0.00116965 73.6006
0.00497255 0 0.00736563 17.5299
-0.00500221 -1.0842e-19 0.00736611 20.8439
-0.00750287 -1.0842e-19 0.00479904 24.4646
-0.00896833 0 0 75.3723
0.00856709 -1.807e-20 0.00355042 25.5858
0.00373618 9.03502e-21 0.00865671 18.3451
-0.00375209 -1.35525e-20 0.00865641 19.8489
-0.00875292 4.51751e-21 0.00356915 28.6449
0.00955779 0 0 73.021
-2.33168e-06 -1.0842e-19 0.00994661 18.4637
0.00971438 0 0.00230723 50.6043
-0.0100026 1.0842e-19 0 75.1787
0.00249558 0 0.00994668 18.239
-0.00250115 0 0.00994648 18.4628
-0.0100023 0 0.00233912 51.6401
0.0103892 -8.13152e-20 0 72.4068
0.00745704 0 0.00736086 17.3895
-0.00750103 1.0842e-19 0.00736595 21.3502
0.00866276 -9.03502e-21 0.00606706 17.3774
-0.0087514 4.51751e-21 0.00608247 23.1897
0.00622747 -9.03502e-21 0.00865489 17.9433
-0.006251 0 0.00865624 19.9507
0.0107996 -2.25875e-20 0.00114301 70.7456
0.00985495 0 0.00476418 22.6621
0.010977 8.13152e-20 0 73.8247
-0.0110388 -2.71051e-20 0 74.9868
-0.0100013 0 0.00479884 25.6308
0.00499216 0 0.00994634 17.9778
-0.00500053 -1.0842e-19 0.0099464 18.3015
0.00124803 -1.35525e-20 0.0112174 17.6654
-0.001251 -9.03502e-21 0.0112172 17.4032
-0.0112517 1.35525e-20 0.00116954 73.2211
-0.0114646 5.42101e-20 0 74.9088
0.0110102 4.51751e-21 0.0035042 32.8488
0.0118003 1.0842e-19 0 78.066
-0.0112513 9.03502e-21 0.00356894 30.0732
0.00374639 9.03502e-21 0.0112173 17.6937
-0.00375048 -2.25875e-20 0.0112171 16.8483
0.00871575 1.35525e-20 0.0086503 17.8361
-0.00875046 -4.51751e-21 0.00865614 19.9328
0.012129 -1.0842e-19 0.00223333 57.1694
0.0099385 0 0.00735088 17.7431
-0.0100005 1.0842e-19 0.00736585 21.6792
0.0074867 0 0.00994503 17.8366
-0.00750024 0 0.00994635 18.0881
-3.82247e-07 -2.1684e-19 0.0124879 16.0097
-0.012501 0 0 74.7147
0.0126142 0 0 79.3948
0.0111384 -4.51751e-21 0.00604172 18.8452
-0.012501 0 0.00233899 52.1496
0.00249923 1.0842e-19 0.0124879 16.3847
-0.00250018 -1.0842e-19 0.0124878 15.5144
-0.0112506 -4.51751e-21 0.00608232 23.8797
0.00624356 -4.51751e-21 0.0112169 17.687
-0.00625022 -1.35525e-20 0.0112171 16.4378
0.0131915 -2.71051e-20 0 95.9311
0.0123278 -1.0842e-19 0.00471106 27.2549
0.0132267 0 0.00104247 89.1784
-0.0125005 1.0842e-19 0.00479871 26.6679
0.00499843 -1.0842e-19 0.0124878 16.6829
-0.00500008 0 0.0124878 14.997
-0.0135382 2.71051e-20 0 74.5213
0.00124969 -4.51751e-21 0.0137434 14.7397
-0.00125016 -4.51751e-21 0.0137433 14.1717
-0.0137506 1.807e-20 0.00116948 72.8317
0.0135067 9.03502e-21 0.00337591 41.4514
-0.013963 8.13152e-20 0 74.4436
0.00997739 -1.0842e-19 0.00994339 17.7707
-0.0100001 0 0.00994633 17.7632
0.014125 -5.42101e-20 0 148.588
0.0111994 -1.807e-20 0.00864583 17.8088
-0.0112502 9.03502e-21 0.00865607 19.7133
-0.0137505 -4.51751e-21 0.00356883 31.4238
0.00873818 -4.51751e-21 0.0112161 17.6996
-0.00875009 -4.51751e-21 0.0112171 15.9931
0.00374931 0 0.0137434 15.3163
-0.00375007 9.03502e-21 0.0137433 13.6363
0.0143989 0 0 162.127
0.0124168 -1.0842e-19 0.00734439 18.3827
0.0144673 2.71051e-20 0.000330796 161.697
-0.0125002 0 0.00736579 21.8096
0.00749644 -1.0842e-19 0.0124877 16.9572
-0.00750003 -1.0842e-19 0.0124878 14.5228
0.014749 0 0.000698994 172.484
0.0148911 0 0 240.556
0.0136237 -4.51751e-21 0.0060267 20.5747
0.0148703 -1.807e-20 0.00154753 122.331
0.0149756 -5.42101e-20 0.000309223 243.436
-2.93175e-08 0 0.0149988 13.0942
-0.0150003 1.0842e-19 0 74.2548
-0.0137503 9.03502e-21 0.00608223 24.3254
0.00624827 0 0.0137433 15.8668
-0.00625003 9.03502e-21 0.0137433 13.1268
0.0151457 2.71051e-20 0 297.435
-0.0150004 1.0842e-19 0.00233892 52.6441
0.00249992 -1.0842e-19 0.0149988 13.6518
-0.00250001 -1.0842e-19 0.0149988 12.5772
0.0153731 3.01167e-21 0.000848982 240.721
0.0154079 0 0 354.687
0.0154333 2.71051e-20 0.000196582 353.987
0.0148306 0 0.004694 30.095
0.0155974 0 0.00145938 112.943
-0.0150002 -1.0842e-19 0.00479864 27.5678
0.0157765 -2.71051e-20 0.000438014 422.923
0.00499965 1.0842e-19 0.0149988 14.2231
-0.00500001 0 0.0149988 12.0971
0.0112268 1.807e-20 0.0112162 17.6569
-0.01125 -9.03502e-21 0.0112171 15.446
0.0124603 -1.0842e-19 0.0099452 17.5977
-0.0125 -1.0842e-19 0.00994631 17.346
0.00999097 -1.0842e-19 0.0124877 17.1496
-0.01 0 0.0124878 14.0291
-0.016038 -5.42101e-20 0 74.0665
0.0160421 2.71051e-20 0 388.763
0.0160727 2.71051e-20 0.000187423 388.442
0.0136832 -4.51751e-21 0.0086521 17.54
-0.0137501 9.03502e-21 0.00865604 19.3649
0.0161756 -1.807e-20 0.00179843 99.9297
0.0162555 -9.03502e-21 0.000985774 239.914
0.00874511 0 0.0137433 16.3925
0.0162903 2.71051e-20 0 363.832
-0.0162502 0 0.00116945 72.4502
-0.00875001 9.03502e-21 0.0137433 12.646
0.00124997 0 0.0162494 12.0226
-0.00125001 1.807e-20 0.0162494 11.527
-0.0164624 -2.71051e-20 0 73.9913
0.0161381 8.13152e-21 0.00328259 47.7488
0.0165248 0 0 338.623
0.0165235 2.71051e-20 0.000214492 338.893
0.0149084 0 0.00736477 18.1034
-0.0162502 -1.35525e-20 0.00356877 32.7766
0.00374983 0 0.0162494 12.5736
-0.00375 0 0.0162494 11.0815
-0.0150001 -2.1684e-19 0.00736576 21.7799
0.00749843 0 0.0149988 14.8025
-0.0075 0 0.0149988 11.6506
0.0168483 5.42101e-20 0.000518488 303.84
0.0168009 5.42101e-20 0.00159734 100.426
0.0171763 2.71051e-20 0 294.048
0.0171798 0 0.000213918 293.987
0.0162492 7.7443e-21 0.00607578 18.5303
-0.0162501 1.35525e-20 0.00608218 24.557
0.017409 0 0 289.141
0.00624914 -9.03502e-21 0.0162494 13.1282
-0.00625 1.807e-20 0.0162494 10.664
0.0174064 -4.51751e-21 0.00108106 195.839
-1.02405e-14 0 0.0175 10.7672
-0.0175001 0 0 73.811
0.0174597 -9.03502e-21 0.00218801 80.395
0.017634 2.71051e-20 0 280.359
0.0176441 0 0.000226518 280.46
0.0124768 0 0.0124885 17.1406
-0.0175001 -1.0842e-19 0.00233889 53.1365
-0.0125 0 0.0124878 13.5446
0.00249998 -1.0842e-19 0.0175 11.2279
-0.0025 0 0.0175 10.3555
0.013712 -9.03502e-21 0.0112202 17.4065
-0.01375 1.35525e-20 0.0112171 14.9641
0.011236 -4.51751e-21 0.0137435 16.6701
-0.01125 -4.51751e-21 0.0137433 12.1748
0.0149484 0 0.00995676 17.0046
0.0179798 0 0.000551805 270.638
-0.015 0 0.0099463 16.9033
0.00999396 0 0.0149988 15.3237
-0.01 0 0.0149988 11.234
0.0177172 9.03502e-21 0.00353836 35.7315
0.0179881 -5.42101e-20 0.00171051 100.519
-0.0175001 -1.0842e-19 0.00479861 28.3675
0.0175164 0 0.00482374 21.9351
0.00499976 0 0.0175 11.727
-0.005 0 0.0175 9.98128
0.0182698 -2.71051e-20 0 279.639
0.0180402 0 0.00291708 45.5048
0.0182858 0 0.000227338 279.734
-0.01625 -4.51751e-21 0.00865603 18.9875
0.00874647 -9.03502e-21 0.0162494 13.7646
-0.00875 0 0.0162494 10.2961
0.0162929 -1.41979e-20 0.00868413 16.2115
0.018496 -2.71051e-20 0 288.635
0.0180113 0 0.00422619 23.686
-0.018538 -2.71051e-20 0 73.6302
0.0185987 1.35525e-20 0.00110122 195.888
0.0187236 0 0 290.214
0.0187582 0 0.000214893 290.169
0.0177321 -1.807e-20 0.00614951 15.7683
-0.01875 0 0.00116944 72.0844
0.00124999 1.807e-20 0.01875 9.99425
-0.00125 -1.807e-20 0.01875 9.62527
0.0186544 0 0.00230765 72.2961
0.0180198 0 0.00548223 16.5458
-0.0189621 -5.42101e-20 0 73.5595
-0.0175 0 0.00736574 21.6372
0.0186737 2.71051e-20 0.00359745 32.0055
0.00749863 0 0.0175 12.2699
-0.0075 0 0.0175 9.64414
0.0175523 -1.807e-20 0.00743048 14.8694
-0.01875 0 0.00356874 34.0792
0.00374987 0 0.01875 10.4185
-0.00375 -9.03502e-21 0.01875 9.29011
0.0191417 0 0.000523466 299.872
0.0180335 0 0.00682266 14.2163
0.0186794 -1.35525e-20 0.00489465 18.4538
0.0193409 0 0 449.131
0.019272 5.42101e-20 0.00165716 104.115
0.0193788 -2.71051e-20 0.000199 450.585
0.0137222 0 0.0137444 16.6504
-0.01375 9.03502e-21 0.0137433 11.7662
0.0149636 0 0.0124914 16.829
0.0124806 -2.1684e-19 0.0149989 15.6732
0.0192887 0 0.00296028 39.0985
-0.015 0 0.0124878 13.0949
-0.0125 0 0.0149988 10.8538
0.0195825 0 0 560.064
0.0186882 1.807e-20 0.00618728 14.2926
-0.01875 -9.03502e-21 0.00608217 24.6605
-0.01625 9.03502e-21 0.011217 14.4671
0.0112379 4.51751e-21 0.0162494 14.3701
0.0180425 0 0.00805496 14.3621
-0.01125 0 0.0162494 9.95529
0.00624921 -1.807e-20 0.01875 10.8788
-0.00625 -3.61401e-20 0.01875 8.98998
0.0193156 -5.42101e-20 0.00426883 19.6005
0.0177574 0 0.0087192 14.7309
0.0197848 0 0 642.017
0.0163125 -9.03502e-21 0.0112323 16.6214
0.0197851 -3.16226e-20 0.00105651 292.802
0.0199433 2.25875e-21 0.000343781 697.466
0.0199517 -2.03288e-20 0 826.15
-0.02 0 0 73.3959
-1.02403e-14 0 0.02 9.10936
0.0199137 0 0.002322 70.8904
0.0193276 0 0.00556506 14.0292
0.0186907 4.51751e-21 0.007459 13.4461
-0.0175 -1.0842e-19 0.00994629 16.4416
-0.02 -1.0842e-19 0.00233888 53.5867
0.0198262 -9.03502e-21 0.00353876 27.8801
0.0201482 0 0 1192.47
0.00999425 1.0842e-19 0.0175 12.8564
0.00249998 -1.0842e-19 0.02 9.45081
-0.0025 0 0.02 8.80512
-0.01 0 0.0175 9.34134
0.017571 0 0.00998358 15.3869
0.0202492 0 0.000417568 918.835
0.0197197 0 0.00492314 15.6975
0.0198624 -1.35525e-20 0.00431664 18.3694
0.0203337 0 0 1518.8
0.0180485 5.42101e-20 0.00938017 14.6781
0.0203539 -1.12938e-21 0.000720236 371.098
0.0204602 -4.51751e-21 0.00021777 1525.48
0.0193297 5.42101e-20 0.00683974 12.4448
0.0205466 1.35525e-20 0 1627.68
-0.02 -1.0842e-19 0.00479859 29.055
0.0205431 0 0.00166059 106.6
0.00499976 0 0.02 9.83546
-0.005 0 0.02 8.53127
0.018691 0 0.00873215 13.829
0.0206055 0 0.00113383 215.722
0.020248 -6.77626e-21 0.00398707 20.5965
0.0198777 0 0.00559885 13.2017
-0.01875 -1.35525e-20 0.00865601 18.541
0.0197161 -9.03502e-21 0.00622263 12.6152
0.00874659 9.03502e-21 0.01875 11.3805
-0.00875 1.807e-20 0.01875 8.72486
0.0206918 0 0.000485439 907.069
0.0207292 0 0 1481.45
0.0202493 4.51751e-21 0.00468188 15.1936
0.020562 -5.42101e-20 0.00303088 32.7112
0.0205791 0 0.0036086 24.8684
0.0209125 -1.35525e-20 0 1317.76
0.0180516 5.42101e-20 0.0105934 15.5804
0.0202818 -2.25875e-21 0.00528131 13.3057
0.0193324 -5.42101e-20 0.00810405 12.7355
0.0209518 0 0.000794603 328.428
0.0210055 0 0.000255445 1169.38
0.0177662 -1.807e-20 0.0112451 15.8321
0.0198824 -1.35525e-20 0.0068589 11.9338
-0.021038 -1.35525e-19 0 73.2301
0.0205908 -5.64689e-21 0.00435357 16.6487
0.020941 1.807e-20 0.00237638 58.9054
0.0197229 -9.03502e-21 0.00748077 12.1227
0.0210741 1.54886e-20 0.00124456 177.571
0.0211253 0 0 1190.95
0.02028 4.51751e-21 0.00593584 12.3003
0.0211074 0 0.00172891 97.3163
0.0149672 0 0.0149992 15.7902
0.0186932 4.51751e-21 0.00999396 14.6153
0.0206045 0 0.00499039 13.5215
-0.015 0 0.0149988 10.5111
0.0137244 0 0.0162495 14.8624
-0.02125 -4.51751e-21 0.00116944 71.749
-0.01625 9.03502e-21 0.0137433 11.3743
0.0212778 0 0.000537366 707.878
-0.01375 -3.61401e-20 0.0162494 9.65763
0.00124999 -9.03502e-21 0.02125 8.58219
-0.00125 9.03502e-21 0.02125 8.3133
0.0209137 2.25875e-21 0.00401727 18.4898
0.0202812 -2.25875e-21 0.00654348 11.7181
0.021312 0 0 1144.78
-0.02 0 0.00736573 21.419
0.0163191 1.29072e-21 0.0137469 16.3427
0.0210372 -1.16165e-20 0.00357854 23.2491
0.0211194 1.35525e-20 0.00306084 29.2175
0.00749863 0 0.02 10.2545
-0.0075 0 0.02 8.28746
0.0206095 2.71051e-20 0.0056213 12.2994
0.0209335 4.51751e-21 0.00469187 13.5707
-0.021462 -1.35525e-19 0 73.1666
0.0198906 -1.35525e-20 0.00811521 12.1508
0.019334 0 0.00936858 13.5199
0.012481 -1.0842e-19 0.0175 13.4213
-0.0175 0 0.0124878 12.6642
-0.0125 0 0.0175 9.0691
0.0215095 1.35525e-20 0 1079.15
0.0202822 -1.12938e-21 0.00718905 11.5942
0.0206114 0 0.00624672 11.6162
-0.02125 -1.807e-20 0.00356873 35.2101
0.0175768 2.71051e-20 0.0124975 16.097
0.0215533 4.51751e-21 0.00086045 296.987
0.00374987 0 0.02125 8.88834
-0.00375 0 0.02125 8.064
0.0197282 1.807e-20 0.00874265 12.6596
0.0209184 -2.25875e-21 0.00530361 12.495
0.0215457 4.51751e-21 0.00146101 124.823
0.0215987 4.51751e-21 0.000276646 994.471
0.0215159 4.51751e-21 0.00210555 64.0196
0.0180546 5.42101e-20 0.0118959 15.8576
0.021231 0 0.0043614 15.0206
0.0215157 3.38813e-21 0.00273879 34.0965
0.0217116 1.35525e-20 0 1032.35
0.0206127 0 0.00687123 11.3201
0.0202827 2.25875e-21 0.00779649 11.7326
0.0209271 -2.25875e-21 0.00593526 11.5828
0.0212132 2.71051e-20 0.00496926 12.8421
0.0215326 -3.38813e-21 0.00340415 21.8362
0.0186946 0 0.011248 15.3266
-0.01875 -4.51751e-21 0.011217 13.9936
0.0112381 1.807e-20 0.01875 11.9507
-0.01125 1.807e-20 0.01875 8.48324
0.0218884 0 0.00056802 640.675
0.0215249 -4.51751e-21 0.00403417 16.2094
0.0218693 -2.71051e-20 0.00116661 186.976
0.0219118 0 0 1014.53
0.021857 0 0.00180024 87.3382
0.020929 2.25875e-21 0.0065602 11.149
0.0206135 2.71051e-20 0.00749641 11.341
0.0202832 0 0.00844256 11.9693
0.0212419 0 0.00562259 11.7291
0.0218488 0 0.00244594 43.738
0.0198921 -2.71051e-20 0.00937253 12.9941
0.0215471 4.51751e-21 0.00467385 13.3473
0.0193355 0 0.0106231 14.6469
0.0218549 2.71051e-20 0.00309251 25.3146
-0.02125 -1.807e-20 0.00608216 24.6899
0.0197292 -1.807e-20 0.00999813 13.7048
0.0221193 -1.35525e-20 0 985.656
0.0209299 -1.12938e-20 0.00718499 11.0505
0.0212453 0 0.0062492 11.1328
0.00624921 9.03502e-21 0.02125 9.24098
-0.00625 -9.03502e-21 0.02125 7.84862
0.0206142 0 0.00812214 11.5326
0.0218602 0 0.0037332 17.6585
0.0215479 -4.51751e-21 0.00530169 11.9709
0.0221931 -4.51751e-21 0.000875308 295.485
0.0222091 9.03502e-21 0.000287223 924.83
0.0202837 -2.25875e-21 0.00905069 12.4602
0.0221806 -2.25875e-21 0.001495 119.538
0.0221729 -2.25875e-21 0.00213628 55.3821
0.0218648 2.71051e-20 0.0043649 14.1193
0.0180554 0 0.0131005 16.1218
0.0223146 1.35525e-20 0 966.751
0.0212462 -2.71051e-20 0.00687392 10.8931
-0.02 0 0.00994629 15.9758
0.0209305 4.51751e-21 0.00781023 11.181
0.0221717 -4.51751e-21 0.00278024 29.9499
0.00999425 1.0842e-19 0.02 10.7268
0.0215574 6.77626e-21 0.00593597 11.1615
-0.01 0 0.02 8.0677
0.0206151 -2.71051e-20 0.00874856 11.9039
0.021869 0 0.00499521 12.3003
0.0221756 -2.25875e-21 0.0034203 19.5707
0.0177686 2.71051e-20 0.0137495 16.0498
0.020284 6.77626e-21 0.00969614 12.9777
0.0186955 9.03502e-21 0.0124995 15.7092
-0.0225 0 0 73.0242
-1.02402e-14 0 0.0225 7.95593
0.0225117 0 0.000578583 611.934
0.0225229 2.71051e-20 0 962.247
0.0212467 2.71051e-20 0.00749879 10.9147
0.0225008 -5.42101e-20 0.00118742 183.631
0.0215594 4.51751e-21 0.00656172 10.7861
0.0221795 2.25875e-21 0.00405365 15.0212
0.0198927 -1.35525e-20 0.0106245 14.1592
0.0209311 2.25875e-21 0.00843592 11.4643
0.0224935 0 0.00182613 80.7999
0.02187 2.71051e-20 0.00562207 11.3186
-0.0225 0 0.00233887 53.9518
0.0224908 0 0.0024723 39.1696
0.00249998 -1.0842e-19 0.0225 8.20721
-0.0025 0 0.0225 7.72829
0.0206154 2.71051e-20 0.00937446 12.4209
0.0221823 0 0.00468259 12.7691
0.0193362 0 0.0118745 15.2115
0.0224923 -2.71051e-20 0.0031118 23.0655
0.0197298 1.807e-20 0.0112496 14.6027
0.02156 2.25875e-21 0.00718659 10.6996
0.0227337 0 0 953.722
0.021247 -2.71051e-20 0.00812398 11.1134
0.0218727 -2.71051e-20 0.00624927 10.7851
0.0202841 -6.77626e-21 0.0103026 13.6751
0.0224952 2.71051e-20 0.00374415 16.4981
0.0209317 0 0.00906182 11.9261
0.0221841 -6.77626e-21 0.00531005 11.5264
0.0228272 4.51751e-21 0.000290736 902.332
0.0228187 6.77626e-21 0.000886665 292.077
0.0228117 -4.51751e-21 0.00151191 113.246
0.0228077 -4.51751e-21 0.00215451 51.1397
0.0206155 0 0.00999985 13.0431
0.0224972 -2.71051e-20 0.00437224 13.4646
0.0218735 0 0.00687445 10.5768
0.0229286 2.71051e-20 0 947.144
0.0215604 -2.25875e-21 0.0078116 10.8145
-0.02125 4.51751e-21 0.00865601 18.0789
0.022185 6.77626e-21 0.00593627 10.8353
0.022807 -2.25875e-21 0.00279629 27.5302
0.0212475 2.71051e-20 0.00874944 11.4787
0.00874659 0 0.02125 9.60482
-0.01625 1.807e-20 0.0162494 9.38368
-0.00875 0 0.02125 7.64909
-0.0225 0 0.00479859 29.5714
0.0149676 0 0.0175 13.8623
0.0163205 -7.7443e-21 0.0162497 15.1124
0.0224981 -2.71051e-20 0.00499856 11.8771
-0.0175 0 0.0149988 10.1974
0.00499976 0 0.0225 8.49415
-0.005 0 0.0225 7.52344
-0.015 0 0.0175 8.82526
0.0202842 0 0.0109469 14.0637
0.0209319 -2.25875e-21 0.00968728 12.5031
0.0228084 -2.25875e-21 0.0034307 18.3067
0.018056 5.42101e-20 0.0143983 15.8827
0.0175779 9.03502e-21 0.0149998 15.6252
0.0218739 -2.71051e-20 0.00749941 10.5984
0.0221861 0 0.00656201 10.5024
0.0231393 2.71051e-20 0 945.243
0.0231335 2.71051e-20 0.000583267 602.449
0.0215608 -2.25875e-21 0.00843687 11.0919
0.0231277 -2.71051e-20 0.00119646 179.968
0.0198929 0 0.0118749 14.8318
0.0228102 -2.25875e-21 0.00405972 14.3035
0.0224985 0 0.00562421 10.9882
0.0206155 5.42101e-20 0.010625 13.5977
0.0231238 0 0.00183721 75.8154
0.0186957 -4.51751e-21 0.0137498 15.7931
0.0212477 0 0.00937484 11.9922
0.0137246 0 0.01875 12.5027
-0.01875 1.807e-20 0.0137433 11.0247
-0.01375 -3.61401e-20 0.01875 8.2696
0.0231223 2.71051e-20 0.00248253 36.0141
0.0228112 -9.03502e-21 0.00468621 12.2974
0.0221866 6.77626e-21 0.00718706 10.4264
0.0231227 2.71051e-20 0.00311907 21.4935
0.0218741 0 0.00812449 10.7914
0.0209319 0 0.0103125 13.1328
0.0202842 -6.77626e-21 0.0115529 14.4575
0.0233506 -1.35525e-20 0 942.488
0.022499 0 0.00624956 10.5141
0.01973 9.03502e-21 0.0124999 15.1659
0.0193365 -5.42101e-20 0.0131249 15.6297
0.0215611 -4.51751e-21 0.00906223 11.53
0.0228116 2.25875e-21 0.00531183 11.1869
0.0231237 2.71051e-20 0.00374822 15.6681
0.0234469 -6.77626e-21 0.000292113 893.92
0.0234425 2.25875e-21 0.00089102 291.36
0.0212478 2.71051e-20 0.00999997 12.5904
0.0206155 0 0.01125 14.0224
0.0234387 2.25875e-21 0.00151844 108.893
0.0221868 -6.77626e-21 0.00781209 10.5327
0.0224994 -2.71051e-20 0.00687472 10.3263
0.0231244 -2.71051e-20 0.0043744 12.9589
0.0234365 -2.25875e-21 0.0021615 47.3794
-0.023538 -5.42101e-20 0 72.8788
0.0235476 0 0 940.466
0.0218744 0 0.00874973 11.1422
0.0228118 0 0.00593712 10.567
0.012481 -1.0842e-19 0.02 11.232
-0.02 0 0.0124878 12.2696
-0.0125 0 0.02 7.87001
0.0234359 2.25875e-21 0.00280208 25.5632
0.020932 4.51751e-21 0.0109375 13.6095
0.0215613 2.25875e-21 0.00968744 12.0914
0.0231246 0 0.00499972 11.5251
0.0202842 -4.51751e-21 0.012197 14.7409
-0.0225 0 0.00736572 21.1315
0.0234363 -2.25875e-21 0.00343443 17.3254
0.0224996 0 0.00749974 10.3463
0.00749863 0 0.0225 8.80604
-0.0075 0 0.0225 7.33947
0.022187 2.25875e-21 0.00843721 10.7982
0.022812 4.51751e-21 0.00656227 10.2662
0.0212478 0 0.010625 13.1479
0.0237586 0 0 940.195
0.0237556 5.42101e-20 0.000584582 599.558
-0.02375 4.51751e-21 0.00116943 71.4529
0.0237524 0 0.00119912 177.037
0.00124999 9.03502e-21 0.02375 7.59256
-0.00125 1.807e-20 0.02375 7.38652
0.0234369 6.77626e-21 0.0040617 13.7391
0.0206155 0 0.011875 14.3837
0.0218746 0 0.00937493 11.6307
0.0231247 2.71051e-20 0.00562484 10.7178
0.0237503 2.71051e-20 0.00184058 71.5284
0.019893 0 0.013125 15.3052
0.0180561 -5.42101e-20 0.0156015 15.2821
0.0237494 -2.71051e-20 0.00248567 33.5143
0.0215613 6.77626e-21 0.0103125 12.6848
0.0234373 4.51751e-21 0.00468725 11.9236
0.020932 0 0.0115625 14.0209
0.0228122 2.25875e-21 0.00718734 10.1964
0.0224997 -2.71051e-20 0.00812478 10.5297
0.0237494 2.71051e-20 0.00312126 20.2473
0.0231248 0 0.00624989 10.2863
-0.023962 5.42101e-20 0 72.8242
0.0221872 -4.51751e-21 0.00906238 11.2113
0.0186958 -9.03502e-21 0.015 15.4711
0.0239698 -1.35525e-20 0 939.834
0.0202842 2.25875e-21 0.012803 15.0317
-0.02375 1.35525e-20 0.00356873 36.1037
-0.02125 0 0.011217 13.5602
0.0234374 -2.25875e-21 0.00531237 10.9088
0.0112381 -9.03502e-21 0.02125 10.0524
0.0212478 -2.71051e-20 0.01125 13.6051
0.0237497 2.71051e-20 0.00374935 14.998
0.00374987 0 0.02375 7.81983
-0.01125 -9.03502e-21 0.02125 7.47146
-0.00375 0 0.02375 7.19418
0.01973 9.03502e-21 0.01375 15.3895
0.0218746 -2.71051e-20 0.00999999 12.1977
0.0240682 -4.51751e-21 0.000292422 892.041
0.0177688 0 0.01625 15.0675
0.0240659 1.88079e-37 0.000892125 290.624
0.0193366 0 0.014375 15.5352
0.0206155 0 0.0125 14.6969
0.0240638 2.25875e-21 0.00152022 104.326
0.0228123 -2.25875e-21 0.00781235 10.2977
0.0231248 2.71051e-20 0.00687493 10.1134
0.0224998 0 0.00874988 10.862
0.0237499 0 0.00437489 12.5469
0.0240626 4.51751e-21 0.00216353 44.2829
0.0241688 0 0 939.658
0.0215613 0 0.0109375 13.1907
0.0234374 -9.03502e-21 0.00593743 10.3408
0.0221873 -9.03502e-21 0.00968747 11.7388
0.020932 -2.25875e-21 0.0121875 14.3654
0.0240622 -2.25875e-21 0.0028038 23.9952
0.02375 2.71051e-20 0.00499997 11.2342
0.0240622 0 0.00343551 16.5202
0.0231249 0 0.00749994 10.1321
0.0218746 0 0.010625 12.7449
0.0228124 0 0.0084374 10.5509
0.0202842 2.25875e-21 0.013447 15.1521
0.0234374 -2.25875e-21 0.00656245 10.0633
0.0212478 -2.71051e-20 0.011875 13.9979
0.0224999 2.71051e-20 0.00937497 11.3206
0.0243798 0 0 939.902
0.0243784 0 0.000584785 599.013
0.0240624 -2.25875e-21 0.00406221 13.273
0.0243767 2.71051e-20 0.00119964 174.268
0.02375 0 0.00562498 10.4895
0.0206155 -2.71051e-20 0.013125 14.9197
0.0243755 0 0.00184134 67.6209
0.0215613 4.51751e-21 0.0115625 13.6224
0.0221873 0 0.0103125 12.3002
0.024375 -2.71051e-20 0.00248644 31.36
0.0231249 0 0.00812495 10.3064
0.0234375 4.51751e-21 0.00718746 9.99737
0.0240625 4.51751e-21 0.00468745 11.6132
-0.02375 -9.03502e-21 0.00608215 24.5469
0.020932 9.03502e-21 0.0128125 14.6616
0.019893 1.35525e-20 0.014375 15.3239
0.0228124 2.25875e-21 0.00906245 10.9399
0.00624921 9.03502e-21 0.02375 8.08777
0.02375 0 0.00624999 10.0898
-0.00625 0 0.02375 7.02858
0.0243749 2.71051e-20 0.00312184 19.2015
0.0245911 0 0 940.111
0.0218746 0 0.01125 13.2174
-0.0225 0 0.00994629 15.52
0.00999425 1.0842e-19 0.0225 9.16018
0.0224999 0 0.01 11.8535
-0.01 0 0.0225 7.17125
0.0240625 4.51751e-21 0.00531249 10.6748
0.0212478 -2.71051e-20 0.0125 14.3336
0.0243749 0 0.00374963 14.4385
0.0202842 2.25875e-21 0.014053 15.1878
0.0246907 6.77626e-21 0.000292434 892.228
0.0234375 -2.25875e-21 0.00781247 10.0939
0.0246895 0 0.000892278 289.545
0.0231249 -2.71051e-20 0.00874997 10.6202
0.02375 2.71051e-20 0.00687499 9.92751
0.0180561 5.42101e-20 0.0168985 14.8204
0.0246884 6.77626e-21 0.00152058 99.9683
0.0221873 -4.51751e-21 0.0109375 12.8086
-0.0175 0 0.0175 8.60457
0.024375 0 0.00437498 12.2016
0.0215613 -4.51751e-21 0.0121875 13.9966
0.0186958 4.51751e-21 0.01625 14.9952
0.0206155 0 0.01375 15.0266
0.0246878 -6.77626e-21 0.00216396 41.4798
0.0228125 6.77626e-21 0.00968749 11.4317
0.0240625 2.25875e-21 0.00593749 10.1468
0.01973 9.03502e-21 0.015 15.2517
0.0247913 2.71051e-20 0 940.32
0.017578 0 0.0175 14.2083
-0.01875 -3.61401e-20 0.0162494 9.14028
-0.01625 -9.03502e-21 0.01875 8.07431
0.0246875 0 0.0028042 22.6461
0.0163206 2.58143e-21 0.01875 12.9556
0.0193366 -5.42101e-20 0.015625 15.1786
0.020932 2.25875e-21 0.0134375 14.8364
0.0225 0 0.010625 12.3826
0.024375 -5.42101e-20 0.005 10.9887
0.0218746 0 0.011875 13.628
0.02375 0 0.00749999 9.94444
0.0234375 -6.77626e-21 0.00843748 10.3346
0.0246875 -2.25875e-21 0.00343578 15.8414
0.0240625 -6.77626e-21 0.0065625 9.88668
0.023125 0 0.00937499 11.0492
0.0212478 -2.71051e-20 0.013125 14.5848
0.0149676 0 0.02 11.702
-0.02 0 0.0149988 9.9171
-0.015 0 0.02 7.69126
-0.025 0 0 72.7151
-1.02404e-14 0 0.025 7.12588
0.0250025 0 0 940.604
0.0250019 2.71051e-20 0.00058479 598.545
0.024375 2.71051e-20 0.005625 10.2942
0.0221873 0 0.0115625 13.2513
0.0246875 -2.25875e-21 0.00406232 12.8825
0.0250009 2.71051e-20 0.0011997 171.059
0.0228125 9.03502e-21 0.0103125 11.9616
0.0202842 0 0.014697 15.1704
0.0250004 0 0.00184145 63.8712
0.0215613 0 0.0128125 14.309
0.02375 2.71051e-20 0.00812499 10.1097
-0.025 0 0.00233887 54.2218
0.0240625 -4.51751e-21 0.0071875 9.82243
0.0250001 0 0.00248657 29.4533
0.00249998 -1.0842e-19 0.025 7.3213
-0.0025 0 0.025 6.94589
0.0234375 2.25875e-21 0.00906249 10.7
0.0246875 -2.25875e-21 0.00468749 11.3519
0.0206155 -2.71051e-20 0.014375 15.0574
0.0225 0 0.01125 12.857
0.024375 -2.71051e-20 0.00625 9.91864
0.025 2.71051e-20 0.00312194 18.3079
0.0218746 0 0.0125 13.9811
0.023125 2.71051e-20 0.01 11.5485
0.025214 0 0 940.894
0.020932 2.25875e-21 0.0140625 14.9216
0.0246875 0 0.0053125 10.4762
-0.02375 0 0.00865601 17.6045
0.025 0 0.00374969 13.9671
0.019893 1.35525e-20 0.015625 15.0728
0.0137246 0 0.02125 10.5078
0.0228125 0 0.0109375 12.4603
0.0240625 4.51751e-21 0.0078125 9.91383
-0.02125 -9.03502e-21 0.0137433 10.7114
0.0212478 -2.71051e-20 0.01375 14.7343
0.00874659 0 0.02375 8.35777
-0.01375 -9.03502e-21 0.02125 7.30922
-0.00875 -9.03502e-21 0.02375 6.86907
0.02375 0 0.00875 10.4052
0.0221873 -4.51751e-21 0.0121875 13.6403
0.0253141 0 0.000292407 892.774
0.024375 -2.71051e-20 0.006875 9.76369
0.0253136 2.25875e-21 0.000892266 287.512
0.025313 -6.77626e-21 0.00152059 95.4603
0.0234375 -2.25875e-21 0.0096875 11.1586
0.025 2.71051e-20 0.004375 11.9102
0.0246875 6.77626e-21 0.0059375 9.97925
0.0253127 6.77626e-21 0.00216402 38.9122
0.0215613 0 0.0134375 14.5207
0.0202842 2.25875e-21 0.015303 15.0788
0.0254148 -1.35525e-20 0 941.161
0.0225 0 0.011875 13.2756
0.023125 -2.71051e-20 0.010625 12.0551
-0.025 0 0.00479858 29.8802
0.0253125 2.25875e-21 0.00280427 21.4753
0.00499976 0 0.025 7.54241
0.0206155 0 0.015 15.0291
0.025 2.71051e-20 0.005 10.7805
-0.005 0 0.025 6.78307
0.0240625 -2.25875e-21 0.0084375 10.1408
0.024375 -2.71051e-20 0.0075 9.77771
0.0218746 0 0.013125 14.2557
0.02375 2.71051e-20 0.009375 10.8064
0.0253125 -4.51751e-21 0.00343582 15.2696
0.0246875 -9.03502e-21 0.0065625 9.73174
0.01973 9.03502e-21 0.01625 14.8723
0.0180561 0 0.0181015 13.6464
0.020932 -4.51751e-21 0.0146875 14.9433
0.0228125 0 0.0115625 12.9046
0.0234375 -9.03502e-21 0.0103125 11.6578
0.0186958 0 0.0175 14.2384
0.0221873 -4.51751e-21 0.0128125 13.9678
0.025 -2.71051e-20 0.005625 10.1266
0.0256262 -2.71051e-20 0 941.437
0.0256259 -2.71051e-20 0.00058477 597.663
0.0253125 0 0.00406234 12.5545
0.0256255 0 0.0011997 167.354
0.0212478 -2.71051e-20 0.014375 14.8068
0.0193366 0 0.016875 14.6993
0.0256252 0 0.00184145 60.2627
0.024375 -2.71051e-20 0.008125 9.93284
0.0246875 -1.35525e-20 0.0071875 9.66782
0.0240625 9.03502e-21 0.0090625 10.4833
0.023125 -2.71051e-20 0.01125 12.523
0.012481 -1.0842e-19 0.0225 9.55343
-0.0225 0 0.0124878 11.9064
0.0225 0 0.0125 13.64
-0.0125 0 0.0225 7.01913
0.0215613 4.51751e-21 0.0140625 14.647
0.0253125 2.25875e-21 0.0046875 11.1311
0.025625 0 0.00248658 27.7576
0.02375 -2.71051e-20 0.01 11.274
0.025 -2.71051e-20 0.00625 9.76942
0.0202842 0 0.015947 14.9102
0.025625 -2.71051e-20 0.00312195 17.5435
0.0177688 -9.03502e-21 0.01875 13.2429
0.0218746 0 0.01375 14.4402
0.0258379 2.71051e-20 0 941.721
0.0228125 0 0.0121875 13.3001
0.0234375 0 0.0109375 12.1411
0.0253125 -2.25875e-21 0.0053125 10.3077
0.0206155 -2.71051e-20 0.015625 14.9194
0.0246875 4.51751e-21 0.0078125 9.752
0.025625 -2.71051e-20 0.00374969 13.5714
0.024375 -2.71051e-20 0.00875 10.21
0.025 -2.71051e-20 0.006875 9.61943
0.020932 -9.03502e-21 0.0153125 14.9056
0.0221873 -9.03502e-21 0.0134375 14.2085
0.0240625 -2.25875e-21 0.0096875 10.9114
0.0259383 6.77626e-21 0.000292389 893.335
0.025938 2.25875e-21 0.000892236 284.591
0.0259377 -1.35525e-20 0.00152057 90.961
0.023125 -2.71051e-20 0.011875 12.9428
0.025625 -2.71051e-20 0.004375 11.6656
0.0253125 -1.35525e-20 0.0059375 9.83443
0.0212478 -2.71051e-20 0.015 14.8156
0.02375 -2.71051e-20 0.010625 11.7566
0.0259376 0 0.00216402 36.5835
-0.026038 0 0 72.5986
0.0260389 -1.35525e-20 0 941.999
0.0225 0 0.013125 13.9336
-0.025 0 0.00736572 20.7628
0.019893 1.35525e-20 0.016875 14.6138
0.0215613 -4.51751e-21 0.0146875 14.7034
0.0259375 2.25875e-21 0.00280426 20.4641
0.0246875 -9.03502e-21 0.0084375 9.96429
0.00749863 0 0.025 7.78226
0.025 -2.71051e-20 0.0075 9.62891
-0.0075 0 0.025 6.63448
0.025625 -2.71051e-20 0.005 10.6051
0.024375 -2.71051e-20 0.009375 10.585
0.0234375 4.51751e-21 0.0115625 12.5811
0.0253125 0 0.0065625 9.59645
0.0259375 -9.03502e-21 0.00343582 14.7898
0.0228125 0 0.0128125 13.6388
0.0218746 0 0.014375 14.5477
0.0240625 4.51751e-21 0.0103125 11.3815
0.0202842 0 0.016553 14.6731
0.025625 -2.71051e-20 0.005625 9.98385
0.0206155 0 0.01625 14.7369
0.0262505 0 0 942.303
0.0259375 0 0.00406234 12.2815
0.0262505 0 0.00058475 596.332
-0.02375 0 0.011217 13.1467
0.0221873 -4.51751e-21 0.0140625 14.3681
0.0112381 1.807e-20 0.02375 8.6947
-0.02625 2.71051e-20 0.00116943 71.2201
0.0262503 0 0.00119968 163.207
0.00124999 0 0.02625 6.86211
0.02375 -2.71051e-20 0.01125 12.2132
-0.01125 -9.03502e-21 0.02375 6.72974
-0.00125 9.03502e-21 0.02625 6.6934
0.023125 -2.71051e-20 0.0125 13.3134