# pMean  POINT_DATA 53068
# x  y  z  pMean
-5.90671e-05 2.1684e-19 0 0.0107372
0.000934805 0 0 0.0107259
-0.00106911 0 0 0.0107496
0.00140088 2.71051e-20 0 0.010721
-0.00151888 -2.71051e-20 0 0.0107546
0.00117901 -9.03502e-21 0.00117113 0.0107233
-0.00128849 2.25875e-20 0.00117062 0.010752
-4.31765e-05 1.0842e-19 0.00234072 0.0107367
0.00239261 0 0 0.0107097
-0.00253032 0 0 0.0107664
0.00336229 8.13152e-20 0 0.0106995
0.00242341 0 0.00234108 0.0107087
-0.00252293 0 0.00234014 0.0107671
-0.00355263 -5.42101e-20 0 0.0107794
0.00120442 0 0.0035713 0.010722
-0.00127507 -1.35525e-20 0.00357065 0.0107527
0.00362707 -4.51751e-21 0.00117131 0.0106964
0.00385067 -5.42101e-20 0 0.0106935
-0.00376956 -4.51751e-21 0.00117017 0.0107819
-0.00399133 0 0 0.0107844
-2.29192e-05 -1.0842e-19 0.00480025 0.0107422
0.00481724 0 0 0.0106789
-0.00501448 0 0 0.0107963
0.00367197 -1.35525e-20 0.00357105 0.010696
-0.00376301 0 0.00356998 0.010785
0.00245907 -1.0842e-19 0.00480044 0.0107133
0.00487218 1.0842e-19 0.00233996 0.0106803
-0.00251212 0 0.00479977 0.010774
-0.00501145 0 0.00233967 0.0107981
0.00575627 -5.42101e-20 0 0.0106654
-0.00604431 0 0 0.0108092
0.00605007 -1.807e-20 0.00116989 0.0106612
0.00122797 -4.51751e-21 0.006084 0.0107333
-0.001262 0 0.00608355 0.0107648
0.00627263 5.42101e-20 0 0.0106569
-0.00625929 -4.51751e-21 0.00116985 0.0108117
-0.00647612 1.35525e-19 0 0.010814
0.00493143 -2.1684e-19 0.00479869 0.0106889
-0.00500606 0 0.00479935 0.0108058
0.00612525 -1.807e-20 0.00356686 0.0106703
0.00371201 -4.51751e-21 0.00608361 0.010706
-0.00375618 0 0.00608307 0.0107967
-0.00625636 -4.51751e-21 0.00356948 0.0108165
0.00720746 0 0 0.0106389
-8.80336e-06 0 0.00736662 0.0107559
-0.00750642 -1.0842e-19 0 0.0108252
0.00730091 1.0842e-19 0.00233311 0.0106446
0.00248389 -1.0842e-19 0.00736673 0.0107265
-0.00250453 1.0842e-19 0.00736633 0.0107861
-0.00750536 1.0842e-19 0.00233933 0.010828
0.00810899 2.71051e-20 0 0.0106195
0.00844495 -4.51751e-21 0.00116271 0.0106135
-0.00854047 8.13152e-20 0 0.0108374
0.00866226 5.42101e-20 0 0.0106064
0.0061894 4.51751e-21 0.00607973 0.0106865
-0.00625302 -9.03502e-21 0.00608271 0.0108271
0.00124214 0 0.00865691 0.0107489
-0.00125418 1.35525e-20 0.00865666 0.0107779
0.00739431 0 0.00479014 0.0106647
-0.0087541 0 0.00116965 0.0108399
0.00497255 0 0.00736563 0.0107004
-0.00500221 -1.0842e-19 0.00736611 0.0108153
-0.00750287 -1.0842e-19 0.00479904 0.010836
-0.00896833 0 0 0.0108419
0.00856709 -1.807e-20 0.00355042 0.0106333
0.00373618 9.03502e-21 0.00865671 0.0107197
-0.00375209 -1.35525e-20 0.00865641 0.0108057
-0.00875292 4.51751e-21 0.00356915 0.0108465
0.00955779 0 0 0.0105861
-2.33168e-06 -1.0842e-19 0.00994661 0.0107615
0.00971438 0 0.00230723 0.0105949
-0.0100026 1.0842e-19 0 0.0108521
0.00249558 0 0.00994668 0.0107333
-0.00250115 0 0.00994648 0.0107886
-0.0100023 0 0.00233912 0.0108559
0.0103892 -8.13152e-20 0 0.0105656
0.00745704 0 0.00736086 0.0106775
-0.00750103 1.0842e-19 0.00736595 0.0108429
0.00866276 -9.03502e-21 0.00606706 0.0106693
-0.0087514 4.51751e-21 0.00608247 0.0108556
0.00622747 -9.03502e-21 0.00865489 0.010691
-0.006251 0 0.00865624 0.0108321
0.0107996 -2.25875e-20 0.00114301 0.0105547
0.00985495 0 0.00476418 0.0106279
0.010977 8.13152e-20 0 0.0105399
-0.0110388 -2.71051e-20 0 0.0108634
-0.0100013 0 0.00479884 0.0108641
0.00499216 0 0.00994634 0.010704
-0.00500053 -1.0842e-19 0.0099464 0.0108141
0.00124803 -1.35525e-20 0.0112174 0.0107463
-0.001251 -9.03502e-21 0.0112172 0.0107728
-0.0112517 1.35525e-20 0.00116954 0.0108657
-0.0114646 5.42101e-20 0 0.0108675
0.0110102 4.51751e-21 0.0035042 0.0105749
0.0118003 1.0842e-19 0 0.0104995
-0.0112513 9.03502e-21 0.00356894 0.0108739
0.00374639 9.03502e-21 0.0112173 0.0107184
-0.00375048 -2.25875e-20 0.0112171 0.0107976
0.00871575 1.35525e-20 0.0086503 0.0106619
-0.00875046 -4.51751e-21 0.00865614 0.010857
0.012129 -1.0842e-19 0.00223333 0.0105144
0.0099385 0 0.00735088 0.0106461
-0.0100005 1.0842e-19 0.00736585 0.0108685
0.0074867 0 0.00994503 0.0106723
-0.00750024 0 0.00994635 0.0108381
-3.82247e-07 -2.1684e-19 0.0124879 0.0107496
-0.012501 0 0 0.0108768
0.0126142 0 0 0.0104797
0.0111384 -4.51751e-21 0.00604172 0.0106282
-0.012501 0 0.00233899 0.0108811
0.00249923 1.0842e-19 0.0124879 0.0107234
-0.00250018 -1.0842e-19 0.0124878 0.0107739
-0.0112506 -4.51751e-21 0.00608232 0.0108816
0.00624356 -4.51751e-21 0.0112169 0.0106879
-0.00625022 -1.35525e-20 0.0112171 0.0108207
0.0131915 -2.71051e-20 0 0.0104696
0.0123278 -1.0842e-19 0.00471106 0.01056
0.0132267 0 0.00104247 0.0104715
-0.0125005 1.0842e-19 0.00479871 0.0108893
0.00499843 -1.0842e-19 0.0124878 0.0106943
-0.00500008 0 0.0124878 0.0107965
-0.0135382 2.71051e-20 0 0.010887
0.00124969 -4.51751e-21 0.0137434 0.0107278
-0.00125016 -4.51751e-21 0.0137433 0.0107517
-0.0137506 1.807e-20 0.00116948 0.0108892
0.0135067 9.03502e-21 0.00337591 0.0104867
-0.013963 8.13152e-20 0 0.0108907
0.00997739 -1.0842e-19 0.00994339 0.0106301
-0.0100001 0 0.00994633 0.0108602
0.014125 -5.42101e-20 0 0.0104705
0.0111994 -1.807e-20 0.00864583 0.0106189
-0.0112502 9.03502e-21 0.00865607 0.0108796
-0.0137505 -4.51751e-21 0.00356883 0.010898
0.00873818 -4.51751e-21 0.0112161 0.0106498
-0.00875009 -4.51751e-21 0.0112171 0.0108421
0.00374931 0 0.0137434 0.0107015
-0.00375007 9.03502e-21 0.0137433 0.0107736
0.0143989 0 0 0.0104684
0.0124168 -1.0842e-19 0.00734439 0.0105834
0.0144673 2.71051e-20 0.000330796 0.0104682
-0.0125002 0 0.00736579 0.0108914
0.00749644 -1.0842e-19 0.0124877 0.0106591
-0.00750003 -1.0842e-19 0.0124878 0.0108173
0.014749 0 0.000698994 0.0104681
0.0148911 0 0 0.0104418
0.0136237 -4.51751e-21 0.0060267 0.0105384
0.0148703 -1.807e-20 0.00154753 0.0104281
0.0149756 -5.42101e-20 0.000309223 0.0104404
-2.93175e-08 0 0.0149988 0.0107221
-0.0150003 1.0842e-19 0 0.010899
-0.0137503 9.03502e-21 0.00608223 0.0109044
0.00624827 0 0.0137433 0.0106701
-0.00625003 9.03502e-21 0.0137433 0.0107938
0.0151457 2.71051e-20 0 0.0104255
-0.0150004 1.0842e-19 0.00233892 0.0109036
0.00249992 -1.0842e-19 0.0149988 0.0106981
-0.00250001 -1.0842e-19 0.0149988 0.0107439
0.0153731 3.01167e-21 0.000848982 0.0104056
0.0154079 0 0 0.0104024
0.0154333 2.71051e-20 0.000196582 0.0104025
0.0148306 0 0.004694 0.0104503
0.0155974 0 0.00145938 0.0103723
-0.0150002 -1.0842e-19 0.00479864 0.0109112
0.0157765 -2.71051e-20 0.000438014 0.0103751
0.00499965 1.0842e-19 0.0149988 0.0106703
-0.00500001 0 0.0149988 0.010764
0.0112268 1.807e-20 0.0112162 0.0105909
-0.01125 -9.03502e-21 0.0112171 0.0108614
0.0124603 -1.0842e-19 0.0099452 0.0105617
-0.0125 -1.0842e-19 0.00994631 0.0108799
0.00999097 -1.0842e-19 0.0124877 0.0106098
-0.01 0 0.0124878 0.0108364
-0.016038 -5.42101e-20 0 0.0109082
0.0160421 2.71051e-20 0 0.0103621
0.0160727 2.71051e-20 0.000187423 0.0103618
0.0136832 -4.51751e-21 0.0086521 0.0105346
-0.0137501 9.03502e-21 0.00865604 0.0108996
0.0161756 -1.807e-20 0.00179843 0.0103618
0.0162555 -9.03502e-21 0.000985774 0.0103556
0.00874511 0 0.0137433 0.0106299
0.0162903 2.71051e-20 0 0.0103538
-0.0162502 0 0.00116945 0.0109101
-0.00875001 9.03502e-21 0.0137433 0.0108125
0.00124997 0 0.0162494 0.0106939
-0.00125001 1.807e-20 0.0162494 0.0107154
-0.0164624 -2.71051e-20 0 0.0109114
0.0161381 8.13152e-21 0.00328259 0.0103768
0.0165248 0 0 0.0103451
0.0165235 2.71051e-20 0.000214492 0.0103451
0.0149084 0 0.00736477 0.0104667
-0.0162502 -1.35525e-20 0.00356877 0.0109189
0.00374983 0 0.0162494 0.0106697
-0.00375 0 0.0162494 0.0107352
-0.0150001 -2.1684e-19 0.00736576 0.0109114
0.00749843 0 0.0149988 0.0106361
-0.0075 0 0.0149988 0.0107826
0.0168483 5.42101e-20 0.000518488 0.0103313
0.0168009 5.42101e-20 0.00159734 0.010341
0.0171763 2.71051e-20 0 0.0103255
0.0171798 0 0.000213918 0.0103253
0.0162492 7.7443e-21 0.00607578 0.0103832
-0.0162501 1.35525e-20 0.00608218 0.010924
0.017409 0 0 0.0103208
0.00624914 -9.03502e-21 0.0162494 0.010641
-0.00625 1.807e-20 0.0162494 0.0107536
0.0174064 -4.51751e-21 0.00108106 0.0103193
-1.02405e-14 0 0.0175 0.010681
-0.0175001 0 0 0.0109187
0.0174597 -9.03502e-21 0.00218801 0.0103149
0.017634 2.71051e-20 0 0.0103172
0.0176441 0 0.000226518 0.0103171
0.0124768 0 0.0124885 0.0105369
-0.0175001 -1.0842e-19 0.00233889 0.0109233
-0.0125 0 0.0124878 0.0108537
0.00249998 -1.0842e-19 0.0175 0.0106594
-0.0025 0 0.0175 0.0107008
0.013712 -9.03502e-21 0.0112202 0.0104998
-0.01375 1.35525e-20 0.0112171 0.0108786
0.011236 -4.51751e-21 0.0137435 0.0105718
-0.01125 -4.51751e-21 0.0137433 0.0108296
0.0149484 0 0.00995676 0.0104504
0.0179798 0 0.000551805 0.0103108
-0.015 0 0.0099463 0.0108973
0.00999396 0 0.0149988 0.0105898
-0.01 0 0.0149988 0.0107998
0.0177172 9.03502e-21 0.00353836 0.0102865
0.0179881 -5.42101e-20 0.00171051 0.0102919
-0.0175001 -1.0842e-19 0.00479861 0.0109302
0.0175164 0 0.00482374 0.0103
0.00499976 0 0.0175 0.0106348
-0.005 0 0.0175 0.0107191
0.0182698 -2.71051e-20 0 0.0102963
0.0180402 0 0.00291708 0.010292
0.0182858 0 0.000227338 0.010296
-0.01625 -4.51751e-21 0.00865603 0.0109169
0.00874647 -9.03502e-21 0.0162494 0.0106049
-0.00875 0 0.0162494 0.0107707
0.0162929 -1.41979e-20 0.00868413 0.0103801
0.018496 -2.71051e-20 0 0.0102817
0.0180113 0 0.00422619 0.0102573
-0.018538 -2.71051e-20 0 0.0109268
0.0185987 1.35525e-20 0.00110122 0.0102773
0.0187236 0 0 0.0102761
0.0187582 0 0.000214893 0.0102761
0.0177321 -1.807e-20 0.00614951 0.010275
-0.01875 0 0.00116944 0.0109286
0.00124999 1.807e-20 0.01875 0.0106481
-0.00125 -1.807e-20 0.01875 0.0106674
0.0186544 0 0.00230765 0.0102609
0.0180198 0 0.00548223 0.0103057
-0.0189621 -5.42101e-20 0 0.0109297
-0.0175 0 0.00736574 0.0109286
0.0186737 2.71051e-20 0.00359745 0.0102335
0.00749863 0 0.0175 0.0106053
-0.0075 0 0.0175 0.0107363
0.0175523 -1.807e-20 0.00743048 0.0102789
-0.01875 0 0.00356874 0.0109372
0.00374987 0 0.01875 0.0106269
-0.00375 -9.03502e-21 0.01875 0.0106855
0.0191417 0 0.000523466 0.0102598
0.0180335 0 0.00682266 0.0102137
0.0186794 -1.35525e-20 0.00489465 0.0102276
0.0193409 0 0 0.0102579
0.019272 5.42101e-20 0.00165716 0.0102472
0.0193788 -2.71051e-20 0.000199 0.0102577
0.0137222 0 0.0137444 0.010486
-0.01375 9.03502e-21 0.0137433 0.0108451
0.0149636 0 0.0124914 0.0104351
0.0124806 -2.1684e-19 0.0149989 0.0105253
0.0192887 0 0.00296028 0.0102117
-0.015 0 0.0124878 0.0108691
-0.0125 0 0.0149988 0.0108156
0.0195825 0 0 0.0102547
0.0186882 1.807e-20 0.00618728 0.0102081
-0.01875 -9.03502e-21 0.00608217 0.0109408
-0.01625 9.03502e-21 0.011217 0.0108937
0.0112379 4.51751e-21 0.0162494 0.0105556
0.0180425 0 0.00805496 0.0102955
-0.01125 0 0.0162494 0.0107866
0.00624921 -1.807e-20 0.01875 0.0106028
-0.00625 -3.61401e-20 0.01875 0.0107026
0.0193156 -5.42101e-20 0.00426883 0.010176
0.0177574 0 0.0087192 0.0102646
0.0197848 0 0 0.0102645
0.0163125 -9.03502e-21 0.0112323 0.0103631
0.0197851 -3.16226e-20 0.00105651 0.0102299
0.0199433 2.25875e-21 0.000343781 0.0102587
0.0199517 -2.03288e-20 0 0.0102537
-0.02 0 0 0.0109359
-1.02403e-14 0 0.02 0.0106287
0.0199137 0 0.002322 0.0101915
0.0193276 0 0.00556506 0.0101746
0.0186907 4.51751e-21 0.007459 0.0102023
-0.0175 -1.0842e-19 0.00994629 0.0109125
-0.02 -1.0842e-19 0.00233888 0.0109404
0.0198262 -9.03502e-21 0.00353876 0.010168
0.0201482 0 0 0.0102186
0.00999425 1.0842e-19 0.0175 0.0105676
0.00249998 -1.0842e-19 0.02 0.0106099
-0.0025 0 0.02 0.0106465
-0.01 0 0.0175 0.0107524
0.017571 0 0.00998358 0.0102733
0.0202492 0 0.000417568 0.0102158
0.0197197 0 0.00492314 0.010155
0.0198624 -1.35525e-20 0.00431664 0.0101494
0.0203337 0 0 0.010201
0.0180485 5.42101e-20 0.00938017 0.0102012
0.0203539 -1.12938e-21 0.000720236 0.0102342
0.0204602 -4.51751e-21 0.00021777 0.0101922
0.0193297 5.42101e-20 0.00683974 0.0101443
0.0205466 1.35525e-20 0 0.0101825
-0.02 -1.0842e-19 0.00479859 0.0109465
0.0205431 0 0.00166059 0.0101682
0.00499976 0 0.02 0.0105895
-0.005 0 0.02 0.0106636
0.018691 0 0.00873215 0.0101981
0.0206055 0 0.00113383 0.0101868
0.020248 -6.77626e-21 0.00398707 0.0101448
0.0198777 0 0.00559885 0.0101396
-0.01875 -1.35525e-20 0.00865601 0.0109318
0.0197161 -9.03502e-21 0.00622263 0.0101313
0.00874659 9.03502e-21 0.01875 0.0105744
-0.00875 1.807e-20 0.01875 0.0107187
0.0206918 0 0.000485439 0.0101808
0.0207292 0 0 0.0101693
0.0202493 4.51751e-21 0.00468188 0.0101083
0.020562 -5.42101e-20 0.00303088 0.0101384
0.0205791 0 0.0036086 0.0101292
0.0209125 -1.35525e-20 0 0.0101629
0.0180516 5.42101e-20 0.0105934 0.0102996
0.0202818 -2.25875e-21 0.00528131 0.010137
0.0193324 -5.42101e-20 0.00810405 0.0101558
0.0209518 0 0.000794603 0.0101859
0.0210055 0 0.000255445 0.0101597
0.0177662 -1.807e-20 0.0112451 0.0102614
0.0198824 -1.35525e-20 0.0068589 0.0101099
-0.021038 -1.35525e-19 0 0.010943
0.0205908 -5.64689e-21 0.00435357 0.0101063
0.020941 1.807e-20 0.00237638 0.0101402
0.0197229 -9.03502e-21 0.00748077 0.010119
0.0210741 1.54886e-20 0.00124456 0.0101601
0.0211253 0 0 0.0101534
0.02028 4.51751e-21 0.00593584 0.0100876
0.0211074 0 0.00172891 0.0101478
0.0149672 0 0.0149992 0.0104426
0.0186932 4.51751e-21 0.00999396 0.0102036
0.0206045 0 0.00499039 0.0101051
-0.015 0 0.0149988 0.0108299
0.0137244 0 0.0162495 0.0104877
-0.02125 -4.51751e-21 0.00116944 0.0109446
-0.01625 9.03502e-21 0.0137433 0.0108589
0.0212778 0 0.000537366 0.0101506
-0.01375 -3.61401e-20 0.0162494 0.0108012
0.00124999 -9.03502e-21 0.02125 0.0105916
-0.00125 9.03502e-21 0.02125 0.0106086
0.0209137 2.25875e-21 0.00401727 0.010091
0.0202812 -2.25875e-21 0.00654348 0.0101037
0.021312 0 0 0.0101437
-0.02 0 0.00736573 0.0109432
0.0163191 1.29072e-21 0.0137469 0.0103727
0.0210372 -1.16165e-20 0.00357854 0.0101018
0.0211194 1.35525e-20 0.00306084 0.0101132
0.00749863 0 0.02 0.0105667
-0.0075 0 0.02 0.0106799
0.0206095 2.71051e-20 0.0056213 0.010092
0.0209335 4.51751e-21 0.00469187 0.0100823
-0.021462 -1.35525e-19 0 0.0109454
0.0198906 -1.35525e-20 0.00811521 0.0101112
0.019334 0 0.00936858 0.0101431
0.012481 -1.0842e-19 0.0175 0.0105188
-0.0175 0 0.0124878 0.0108827
-0.0125 0 0.0175 0.0107675
0.0215095 1.35525e-20 0 0.0101377
0.0202822 -1.12938e-21 0.00718905 0.0100637
0.0206114 0 0.00624672 0.0100785
-0.02125 -1.807e-20 0.00356873 0.0109529
0.0175768 2.71051e-20 0.0124975 0.0102783
0.0215533 4.51751e-21 0.00086045 0.0101503
0.00374987 0 0.02125 0.0105739
-0.00375 0 0.02125 0.0106253
0.0197282 1.807e-20 0.00874265 0.010117
0.0209184 -2.25875e-21 0.00530361 0.0100796
0.0215457 4.51751e-21 0.00146101 0.0101451
0.0215987 4.51751e-21 0.000276646 0.0101347
0.0215159 4.51751e-21 0.00210555 0.0101031
0.0180546 5.42101e-20 0.0118959 0.0101947
0.021231 0 0.0043614 0.0100751
0.0215157 3.38813e-21 0.00273879 0.0101167
0.0217116 1.35525e-20 0 0.01013
0.0206127 0 0.00687123 0.0100669
0.0202827 2.25875e-21 0.00779649 0.0100965
0.0209271 -2.25875e-21 0.00593526 0.0100639
0.0212132 2.71051e-20 0.00496926 0.0100651
0.0215326 -3.38813e-21 0.00340415 0.010064
0.0186946 0 0.011248 0.0102077
-0.01875 -4.51751e-21 0.011217 0.0109068
0.0112381 1.807e-20 0.01875 0.0105386
-0.01125 1.807e-20 0.01875 0.010734
0.0218884 0 0.00056802 0.0101244
0.0215249 -4.51751e-21 0.00403417 0.0100696
0.0218693 -2.71051e-20 0.00116661 0.0101247
0.0219118 0 0 0.0101208
0.021857 0 0.00180024 0.0101136
0.020929 2.25875e-21 0.0065602 0.0100549
0.0206135 2.71051e-20 0.00749641 0.0100642
0.0202832 0 0.00844256 0.0100609
0.0212419 0 0.00562259 0.0100543
0.0218488 0 0.00244594 0.0101028
0.0198921 -2.71051e-20 0.00937253 0.0101065
0.0215471 4.51751e-21 0.00467385 0.0100547
0.0193355 0 0.0106231 0.010171
0.0218549 2.71051e-20 0.00309251 0.010078
-0.02125 -1.807e-20 0.00608216 0.0109549
0.0197292 -1.807e-20 0.00999813 0.010126
0.0221193 -1.35525e-20 0 0.010114
0.0209299 -1.12938e-20 0.00718499 0.0100426
0.0212453 0 0.0062492 0.0100415
0.00624921 9.03502e-21 0.02125 0.0105554
-0.00625 -9.03502e-21 0.02125 0.0106415
0.0206142 0 0.00812214 0.0100625
0.0218602 0 0.0037332 0.0100587
0.0215479 -4.51751e-21 0.00530169 0.0100454
0.0221931 -4.51751e-21 0.000875308 0.0101164
0.0222091 9.03502e-21 0.000287223 0.0101108
0.0202837 -2.25875e-21 0.00905069 0.0100944
0.0221806 -2.25875e-21 0.001495 0.0101086
0.0221729 -2.25875e-21 0.00213628 0.010092
0.0218648 2.71051e-20 0.0043649 0.010047
0.0180554 0 0.0131005 0.0103214
0.0223146 1.35525e-20 0 0.010107
0.0212462 -2.71051e-20 0.00687392 0.010031
-0.02 0 0.00994629 0.0109254
0.0209305 4.51751e-21 0.00781023 0.0100471
0.0221717 -4.51751e-21 0.00278024 0.0100741
0.00999425 1.0842e-19 0.02 0.0105402
0.0215574 6.77626e-21 0.00593597 0.0100299
-0.01 0 0.02 0.0106955
0.0206151 -2.71051e-20 0.00874856 0.010062
0.021869 0 0.00499521 0.0100322
0.0221756 -2.25875e-21 0.0034203 0.0100515
0.0177686 2.71051e-20 0.0137495 0.0102841
0.020284 6.77626e-21 0.00969614 0.0100643
0.0186955 9.03502e-21 0.0124995 0.0102251
-0.0225 0 0 0.0109507
-1.02402e-14 0 0.0225 0.0105655
0.0225117 0 0.000578583 0.0101015
0.0225229 2.71051e-20 0 0.0100994
0.0212467 2.71051e-20 0.00749879 0.0100266
0.0225008 -5.42101e-20 0.00118742 0.0100997
0.0215594 4.51751e-21 0.00656172 0.0100192
0.0221795 2.25875e-21 0.00405365 0.0100397
0.0198927 -1.35525e-20 0.0106245 0.010128
0.0209311 2.25875e-21 0.00843592 0.0100405
0.0224935 0 0.00182613 0.010088
0.02187 2.71051e-20 0.00562207 0.0100212
-0.0225 0 0.00233887 0.0109551
0.0224908 0 0.0024723 0.0100709
0.00249998 -1.0842e-19 0.0225 0.0105495
-0.0025 0 0.0225 0.0105816
0.0206154 2.71051e-20 0.00937446 0.0100638
0.0221823 0 0.00468259 0.0100238
0.0193362 0 0.0118745 0.0101685
0.0224923 -2.71051e-20 0.0031118 0.0100509
0.0197298 1.807e-20 0.0112496 0.0101409
0.02156 2.25875e-21 0.00718659 0.0100093
0.0227337 0 0 0.0100933
0.021247 -2.71051e-20 0.00812398 0.0100254
0.0218727 -2.71051e-20 0.00624927 0.0100081
0.0202841 -6.77626e-21 0.0103026 0.0101106
0.0224952 2.71051e-20 0.00374415 0.0100342
0.0209317 0 0.00906182 0.0100464
0.0221841 -6.77626e-21 0.00531005 0.0100117
0.0228272 4.51751e-21 0.000290736 0.0100907
0.0228187 6.77626e-21 0.000886665 0.0100937
0.0228117 -4.51751e-21 0.00151191 0.0100848
0.0228077 -4.51751e-21 0.00215451 0.0100673
0.0206155 0 0.00999985 0.0100729
0.0224972 -2.71051e-20 0.00437224 0.0100193
0.0218735 0 0.00687445 0.00999768
0.0229286 2.71051e-20 0 0.0100877
0.0215604 -2.25875e-21 0.0078116 0.0100087
-0.02125 4.51751e-21 0.00865601 0.0109443
0.022185 6.77626e-21 0.00593627 0.00999824
0.022807 -2.25875e-21 0.00279629 0.01005
0.0212475 2.71051e-20 0.00874944 0.0100254
0.00874659 0 0.02125 0.0105359
-0.01625 1.807e-20 0.0162494 0.0108146
-0.00875 0 0.02125 0.0106573
-0.0225 0 0.00479859 0.0109604
0.0149676 0 0.0175 0.0104618
0.0163205 -7.7443e-21 0.0162497 0.0104074
0.0224981 -2.71051e-20 0.00499856 0.0100043
-0.0175 0 0.0149988 0.0108428
0.00499976 0 0.0225 0.0105335
-0.005 0 0.0225 0.0105977
-0.015 0 0.0175 0.0107814
0.0202842 0 0.0109469 0.0100817
0.0209319 -2.25875e-21 0.00968728 0.0100459
0.0228084 -2.25875e-21 0.0034307 0.0100298
0.018056 5.42101e-20 0.0143983 0.0102226
0.0175779 9.03502e-21 0.0149998 0.0103112
0.0218739 -2.71051e-20 0.00749941 0.00999212
0.0221861 0 0.00656201 0.00998715
0.0231393 2.71051e-20 0 0.010082
0.0231335 2.71051e-20 0.000583267 0.0100836
0.0215608 -2.25875e-21 0.00843687 0.0100062
0.0231277 -2.71051e-20 0.00119646 0.0100801
0.0198929 0 0.0118749 0.0101392
0.0228102 -2.25875e-21 0.00405972 0.0100152
0.0224985 0 0.00562421 0.00999088
0.0206155 5.42101e-20 0.010625 0.010083
0.0231238 0 0.00183721 0.010066
0.0186957 -4.51751e-21 0.0137498 0.010246
0.0212477 0 0.00937484 0.0100286
0.0137246 0 0.01875 0.0104924
-0.01875 1.807e-20 0.0137433 0.0108712
-0.01375 -3.61401e-20 0.01875 0.0107485
0.0231223 2.71051e-20 0.00248253 0.010048
0.0228112 -9.03502e-21 0.00468621 0.0099988
0.0221866 6.77626e-21 0.00718706 0.00997749
0.0231227 2.71051e-20 0.00311907 0.0100293
0.0218741 0 0.00812449 0.00999047
0.0209319 0 0.0103125 0.010064
0.0202842 -6.77626e-21 0.0115529 0.0101277
0.0233506 -1.35525e-20 0 0.0100769
0.022499 0 0.00624956 0.00997795
0.01973 9.03502e-21 0.0124999 0.0101673
0.0193365 -5.42101e-20 0.0131249 0.0102171
0.0215611 -4.51751e-21 0.00906223 0.0100096
0.0228116 2.25875e-21 0.00531183 0.0099843
0.0231237 2.71051e-20 0.00374822 0.0100121
0.0234469 -6.77626e-21 0.000292113 0.0100749
0.0234425 2.25875e-21 0.00089102 0.0100762
0.0212478 2.71051e-20 0.00999997 0.0100377
0.0206155 0 0.01125 0.0100932
0.0234387 2.25875e-21 0.00151844 0.0100652
0.0221868 -6.77626e-21 0.00781209 0.0099752
0.0224994 -2.71051e-20 0.00687472 0.00996735
0.0231244 -2.71051e-20 0.0043744 0.009996
0.0234365 -2.25875e-21 0.0021615 0.0100468
-0.023538 -5.42101e-20 0 0.0109567
0.0235476 0 0 0.0100725
0.0218744 0 0.00874973 0.00999111
0.0228118 0 0.00593712 0.00996997
0.012481 -1.0842e-19 0.02 0.0105095
-0.02 0 0.0124878 0.0108945
-0.0125 0 0.02 0.0107104
0.0234359 2.25875e-21 0.00280208 0.0100288
0.020932 4.51751e-21 0.0109375 0.0100692
0.0215613 2.25875e-21 0.00968744 0.0100142
0.0231246 0 0.00499972 0.00997973
0.0202842 -4.51751e-21 0.012197 0.0101041
-0.0225 0 0.00736572 0.0109554
0.0234363 -2.25875e-21 0.00343443 0.0100101
0.0224996 0 0.00749974 0.00996116
0.00749863 0 0.0225 0.0105178
-0.0075 0 0.0225 0.0106137
0.022187 2.25875e-21 0.00843721 0.00997344
0.022812 4.51751e-21 0.00656227 0.00995815
0.0212478 0 0.010625 0.0100501
0.0237586 0 0 0.0100685
0.0237556 5.42101e-20 0.000584582 0.0100693
-0.02375 4.51751e-21 0.00116943 0.0109581
0.0237524 0 0.00119912 0.0100641
0.00124999 9.03502e-21 0.02375 0.0105238
-0.00125 1.807e-20 0.02375 0.0105388
0.0234369 6.77626e-21 0.0040617 0.00999383
0.0206155 0 0.011875 0.0101056
0.0218746 0 0.00937493 0.00999545
0.0231247 2.71051e-20 0.00562484 0.00996462
0.0237503 2.71051e-20 0.00184058 0.0100483
0.019893 0 0.013125 0.0101796
0.0180561 -5.42101e-20 0.0156015 0.0103654
0.0237494 -2.71051e-20 0.00248567 0.0100296
0.0215613 6.77626e-21 0.0103125 0.0100277
0.0234373 4.51751e-21 0.00468725 0.0099767
0.020932 0 0.0115625 0.0100867
0.0228122 2.25875e-21 0.00718734 0.00994885
0.0224997 -2.71051e-20 0.00812478 0.00995909
0.0237494 2.71051e-20 0.00312126 0.0100109
0.0231248 0 0.00624989 0.00995109
-0.023962 5.42101e-20 0 0.0109587
0.0221872 -4.51751e-21 0.00906238 0.00997718
0.0186958 -9.03502e-21 0.015 0.0102758
0.0239698 -1.35525e-20 0 0.0100646
0.0202842 2.25875e-21 0.012803 0.0101633
-0.02375 1.35525e-20 0.00356873 0.0109664
-0.02125 0 0.011217 0.010918
0.0234374 -2.25875e-21 0.00531237 0.00996032
0.0112381 -9.03502e-21 0.02125 0.0105148
0.0212478 -2.71051e-20 0.01125 0.0100627
0.0237497 2.71051e-20 0.00374935 0.00999309
0.00374987 0 0.02375 0.0105094
-0.01125 -9.03502e-21 0.02125 0.0106725
-0.00375 0 0.02375 0.0105544
0.01973 9.03502e-21 0.01375 0.0101971
0.0218746 -2.71051e-20 0.00999999 0.0100049
0.0240682 -4.51751e-21 0.000292422 0.0100631
0.0177688 0 0.01625 0.0103356
0.0240659 1.88079e-37 0.000892125 0.0100629
0.0193366 0 0.014375 0.0102262
0.0206155 0 0.0125 0.0101245
0.0240638 2.25875e-21 0.00152022 0.0100504
0.0228123 -2.25875e-21 0.00781235 0.00994524
0.0231248 2.71051e-20 0.00687493 0.00994024
0.0224998 0 0.00874988 0.00996022
0.0237499 0 0.00437489 0.0099758
0.0240626 4.51751e-21 0.00216353 0.0100314
0.0241688 0 0 0.0100614
0.0215613 0 0.0109375 0.0100396
0.0234374 -9.03502e-21 0.00593743 0.00994523
0.0221873 -9.03502e-21 0.00968747 0.00998307
0.020932 -2.25875e-21 0.0121875 0.0100968
0.0240622 -2.25875e-21 0.0028038 0.0100127
0.02375 2.71051e-20 0.00499997 0.00995832
0.0240622 0 0.00343551 0.00999366
0.0231249 0 0.00749994 0.00993357
0.0218746 0 0.010625 0.0100181
0.0228124 0 0.0084374 0.00994423
0.0202842 2.25875e-21 0.013447 0.0101364
0.0234374 -2.25875e-21 0.00656245 0.00993273
0.0212478 -2.71051e-20 0.011875 0.0100775
0.0224999 2.71051e-20 0.00937497 0.0099653
0.0243798 0 0 0.0100589
0.0243784 0 0.000584785 0.0100589
0.0240624 -2.25875e-21 0.00406221 0.00997585
0.0243767 2.71051e-20 0.00119964 0.0100522
0.02375 0 0.00562498 0.00994198
0.0206155 -2.71051e-20 0.013125 0.0101428
0.0243755 0 0.00184134 0.0100356
0.0215613 4.51751e-21 0.0115625 0.0100555
0.0221873 0 0.0103125 0.00999638
0.024375 -2.71051e-20 0.00248644 0.0100161
0.0231249 0 0.00812495 0.00993117
0.0234375 4.51751e-21 0.00718746 0.00992339
0.0240625 4.51751e-21 0.00468745 0.00995766
-0.02375 -9.03502e-21 0.00608215 0.010967
0.020932 9.03502e-21 0.0128125 0.010124
0.019893 1.35525e-20 0.014375 0.0102019
0.0228124 2.25875e-21 0.00906245 0.00994795
0.00624921 9.03502e-21 0.02375 0.0104962
0.02375 0 0.00624999 0.00992778
-0.00625 0 0.02375 0.0105703
0.0243749 2.71051e-20 0.00312184 0.00999674
0.0245911 0 0 0.0100564
0.0218746 0 0.01125 0.0100329
-0.0225 0 0.00994629 0.0109362
0.00999425 1.0842e-19 0.0225 0.0105025
0.0224999 0 0.01 0.00997529
-0.01 0 0.0225 0.0106293
0.0240625 4.51751e-21 0.00531249 0.00993992
0.0212478 -2.71051e-20 0.0125 0.0100966
0.0243749 0 0.00374963 0.00997773
0.0202842 2.25875e-21 0.014053 0.0101919
0.0246907 6.77626e-21 0.000292434 0.0100554
0.0234375 -2.25875e-21 0.00781247 0.00991898
0.0246895 0 0.000892278 0.0100539
0.0231249 -2.71051e-20 0.00874997 0.00993262
0.02375 2.71051e-20 0.00687499 0.00991657
0.0180561 5.42101e-20 0.0168985 0.0102868
0.0246884 6.77626e-21 0.00152058 0.0100401
0.0221873 -4.51751e-21 0.0109375 0.01001
-0.0175 0 0.0175 0.0107943
0.024375 0 0.00437498 0.00995902
0.0215613 -4.51751e-21 0.0121875 0.0100719
0.0186958 4.51751e-21 0.01625 0.010314
0.0206155 0 0.01375 0.0101595
0.0246878 -6.77626e-21 0.00216396 0.0100207
0.0228125 6.77626e-21 0.00968749 0.00995518
0.0240625 2.25875e-21 0.00593749 0.00992403
0.01973 9.03502e-21 0.015 0.0102362
0.0247913 2.71051e-20 0 0.0100546
0.017578 0 0.0175 0.0103681
-0.01875 -3.61401e-20 0.0162494 0.0108267
-0.01625 -9.03502e-21 0.01875 0.0107618
0.0246875 0 0.0028042 0.010001
0.0163206 2.58143e-21 0.01875 0.0104475
0.0193366 -5.42101e-20 0.015625 0.0102917
0.020932 2.25875e-21 0.0134375 0.0101369
0.0225 0 0.010625 0.00998932
0.024375 -5.42101e-20 0.005 0.00994038
0.0218746 0 0.011875 0.0100499
0.02375 0 0.00749999 0.00990948
0.0234375 -6.77626e-21 0.00843748 0.00991827
0.0246875 -2.25875e-21 0.00343578 0.00998099
0.0240625 -6.77626e-21 0.0065625 0.00991094
0.023125 0 0.00937499 0.00993832
0.0212478 -2.71051e-20 0.013125 0.0101176
0.0149676 0 0.02 0.0104788
-0.02 0 0.0149988 0.0108543
-0.015 0 0.02 0.0107245
-0.025 0 0 0.0109631
-1.02404e-14 0 0.025 0.0104904
0.0250025 0 0 0.0100537
0.0250019 2.71051e-20 0.00058479 0.010053
0.024375 2.71051e-20 0.005625 0.00992302
0.0221873 0 0.0115625 0.0100278
0.0246875 -2.25875e-21 0.00406232 0.00996156
0.0250009 2.71051e-20 0.0011997 0.0100449
0.0228125 9.03502e-21 0.0103125 0.00996845
0.0202842 0 0.014697 0.0101692
0.0250004 0 0.00184145 0.0100274
0.0215613 0 0.0128125 0.0100943
0.02375 2.71051e-20 0.00812499 0.00990682
-0.025 0 0.00233887 0.0109675
0.0240625 -4.51751e-21 0.0071875 0.00990136
0.0250001 0 0.00248657 0.0100072
0.00249998 -1.0842e-19 0.025 0.0104765
-0.0025 0 0.025 0.0105055
0.0234375 2.25875e-21 0.00906249 0.00992213
0.0246875 -2.25875e-21 0.00468749 0.00994205
0.0206155 -2.71051e-20 0.014375 0.0101775
0.0225 0 0.01125 0.0100057
0.024375 -2.71051e-20 0.00625 0.00990812
0.025 2.71051e-20 0.00312194 0.00998668
0.0218746 0 0.0125 0.0100699
0.023125 2.71051e-20 0.01 0.0099489
0.025214 0 0 0.0100529
0.020932 2.25875e-21 0.0140625 0.0101613
0.0246875 0 0.0053125 0.00992327
-0.02375 0 0.00865601 0.0109545
0.025 0 0.00374969 0.00996627
0.019893 1.35525e-20 0.015625 0.0102577
0.0137246 0 0.02125 0.0104907
0.0228125 0 0.0109375 0.00998389
0.0240625 4.51751e-21 0.0078125 0.00989643
-0.02125 -9.03502e-21 0.0137433 0.010882
0.0212478 -2.71051e-20 0.01375 0.0101381
0.00874659 0 0.02375 0.0104849
-0.01375 -9.03502e-21 0.02125 0.010687
-0.00875 -9.03502e-21 0.02375 0.0105861
0.02375 0 0.00875 0.00990843
0.0221873 -4.51751e-21 0.0121875 0.0100459
0.0253141 0 0.000292407 0.0100525
0.024375 -2.71051e-20 0.006875 0.00989648
0.0253136 2.25875e-21 0.000892266 0.0100495
0.025313 -6.77626e-21 0.00152059 0.0100347
0.0234375 -2.25875e-21 0.0096875 0.00993026
0.025 2.71051e-20 0.004375 0.00994599
0.0246875 6.77626e-21 0.0059375 0.00990656
0.0253127 6.77626e-21 0.00216402 0.0100146
0.0215613 0 0.0134375 0.0101149
0.0202842 2.25875e-21 0.015303 0.0102399
0.0254148 -1.35525e-20 0 0.0100525
0.0225 0 0.011875 0.0100244
0.023125 -2.71051e-20 0.010625 0.00996375
-0.025 0 0.00479858 0.0109721
0.0253125 2.25875e-21 0.00280427 0.00999358
0.00499976 0 0.025 0.0104642
0.0206155 0 0.015 0.0102029
0.025 2.71051e-20 0.005 0.00992615
-0.005 0 0.025 0.0105212
0.0240625 -2.25875e-21 0.0084375 0.00989576
0.024375 -2.71051e-20 0.0075 0.009889
0.0218746 0 0.013125 0.0100921
0.02375 2.71051e-20 0.009375 0.00991459
0.0253125 -4.51751e-21 0.00343582 0.00997241
0.0246875 -9.03502e-21 0.0065625 0.00989288
0.01973 9.03502e-21 0.01625 0.0102817
0.0180561 0 0.0181015 0.0104249
0.020932 -4.51751e-21 0.0146875 0.0101768
0.0228125 0 0.0115625 0.0100026
0.0234375 -9.03502e-21 0.0103125 0.00994375
0.0186958 0 0.0175 0.0103525
0.0221873 -4.51751e-21 0.0128125 0.010069
0.025 -2.71051e-20 0.005625 0.00990789
0.0256262 -2.71051e-20 0 0.0100533
0.0256259 -2.71051e-20 0.00058477 0.0100518
0.0253125 0 0.00406234 0.0099513
0.0256255 0 0.0011997 0.0100424
0.0212478 -2.71051e-20 0.014375 0.0101598
0.0193366 0 0.016875 0.0103157
0.0256252 0 0.00184145 0.010024
0.024375 -2.71051e-20 0.008125 0.00988607
0.0246875 -1.35525e-20 0.0071875 0.00988293
0.0240625 9.03502e-21 0.0090625 0.00989978
0.023125 -2.71051e-20 0.01125 0.00998147
0.012481 -1.0842e-19 0.0225 0.0104889
-0.0225 0 0.0124878 0.0109046
0.0225 0 0.0125 0.0100458
-0.0125 0 0.0225 0.0106445
0.0215613 4.51751e-21 0.0140625 0.0101388
0.0253125 2.25875e-21 0.0046875 0.00993026
0.025625 0 0.00248658 0.0100027
0.02375 -2.71051e-20 0.01 0.00992566
0.025 -2.71051e-20 0.00625 0.00989227
0.0202842 0 0.015947 0.0102177
0.025625 -2.71051e-20 0.00312195 0.00998082
0.0177688 -9.03502e-21 0.01875 0.0103999
0.0218746 0 0.01375 0.0101157
0.0258379 2.71051e-20 0 0.010054
0.0228125 0 0.0121875 0.0100228
0.0234375 0 0.0109375 0.00996053
0.0253125 -2.25875e-21 0.0053125 0.00991055
0.0206155 -2.71051e-20 0.015625 0.0102294
0.0246875 4.51751e-21 0.0078125 0.00987758
0.025625 -2.71051e-20 0.00374969 0.00995892