# U  POINT_DATA 53068
# x  y  z  U_x  U_y  U_z
-5.90671e-05 2.1684e-19 0 0 0 0
0.000934805 0 0 0 0 0
-0.00106911 0 0 0 0 0
0.00140088 2.71051e-20 0 0 0 0
-0.00151888 -2.71051e-20 0 0 0 0
0.00117901 -9.03502e-21 0.00117113 0.0126853 -0.0616007 -0.00111564
-0.00128849 2.25875e-20 0.00117062 0.0126815 -0.0608636 -0.000624238
-4.31765e-05 1.0842e-19 0.00234072 0.0189614 -0.0731105 -0.000856284
0.00239261 0 0 0 0 0
-0.00253032 0 0 0 0 0
0.00336229 8.13152e-20 0 0 0 0
0.00242341 0 0.00234108 0.0183732 -0.074209 -0.0015689
-0.00252293 0 0.00234014 0.0196235 -0.0713126 -0.000364354
-0.00355263 -5.42101e-20 0 0 0 0
0.00120442 0 0.0035713 0.0241238 -0.0808762 -0.00102497
-0.00127507 -1.35525e-20 0.00357065 0.0254453 -0.0786973 -0.000342977
0.00362707 -4.51751e-21 0.00117131 0.0129581 -0.0612245 -0.00176701
0.00385067 -5.42101e-20 0 0 0 0
-0.00376956 -4.51751e-21 0.00117017 0.0128773 -0.0594989 -0.000332397
-0.00399133 0 0 0 0 0
-2.29192e-05 -1.0842e-19 0.00480025 0.0315054 -0.0798695 0.000238519
0.00481724 0 0 0 0 0
-0.00501448 0 0 0 0 0
0.00367197 -1.35525e-20 0.00357105 0.0225626 -0.0823076 -0.00191031
-0.00376301 0 0.00356998 0.0267542 -0.0762772 8.24615e-05
0.00245907 -1.0842e-19 0.00480044 0.0293688 -0.0819544 -0.000524363
0.00487218 1.0842e-19 0.00233996 0.0177204 -0.0741494 -0.00230923
-0.00251212 0 0.00479977 0.0335328 -0.0775281 0.000819729
-0.00501145 0 0.00233967 0.0204112 -0.069248 -7.24052e-05
0.00575627 -5.42101e-20 0 0 0 0
-0.00604431 0 0 0 0 0
0.00605007 -1.807e-20 0.00116989 0.0133575 -0.0595092 -0.00235123
0.00122797 -4.51751e-21 0.006084 0.037133 -0.0803832 0.000960475
-0.001262 0 0.00608355 0.0398551 -0.0780461 0.00161713
0.00627263 5.42101e-20 0 0 0 0
-0.00625929 -4.51751e-21 0.00116985 0.0131873 -0.0578345 -0.000189911
-0.00647612 1.35525e-19 0 0 0 0
0.00493143 -2.1684e-19 0.00479869 0.0269005 -0.0834045 -0.0012922
-0.00500606 0 0.00479935 0.0356211 -0.0752192 0.00125038
0.00612525 -1.807e-20 0.00356686 0.0205042 -0.0824879 -0.00258085
0.00371201 -4.51751e-21 0.00608361 0.0342521 -0.0825938 0.000183414
-0.00375618 0 0.00608307 0.0425893 -0.0757774 0.00216011
-0.00625636 -4.51751e-21 0.00356948 0.0282092 -0.0739406 0.000362924
0.00720746 0 0 0 0 0
-8.80336e-06 0 0.00736662 0.046679 -0.0774856 0.00289344
-0.00750642 -1.0842e-19 0 0 0 0
0.00730091 1.0842e-19 0.00233311 0.016872 -0.0727305 -0.00257217
0.00248389 -1.0842e-19 0.00736673 0.0434323 -0.0797325 0.00219783
-0.00250453 1.0842e-19 0.00736633 0.0498336 -0.0753186 0.00348852
-0.00750536 1.0842e-19 0.00233933 0.0213407 -0.0671497 0.000100077
0.00810899 2.71051e-20 0 0 0 0
0.00844495 -4.51751e-21 0.00116271 0.0138085 -0.0564421 -0.00249867
-0.00854047 8.13152e-20 0 0 0 0
0.00866226 5.42101e-20 0 0 0 0
0.0061894 4.51751e-21 0.00607973 0.0310267 -0.0844203 -0.000485579
-0.00625302 -9.03502e-21 0.00608271 0.0454228 -0.073684 0.00262675
0.00124214 0 0.00865691 0.0531763 -0.0767072 0.00424438
-0.00125418 1.35525e-20 0.00865666 0.0567555 -0.0746011 0.00487717
0.00739431 0 0.00479014 0.0239663 -0.0840199 -0.00143244
-0.0087541 0 0.00116965 0.0135522 -0.0560066 -0.000148299
0.00497255 0 0.00736563 0.0399805 -0.0819083 0.00152555
-0.00500221 -1.0842e-19 0.00736611 0.0529641 -0.0733145 0.0039834
-0.00750287 -1.0842e-19 0.00479904 0.0378567 -0.073087 0.00159758
-0.00896833 0 0 0 0 0
0.00856709 -1.807e-20 0.00355042 0.0178741 -0.0814661 -0.00210074
0.00373618 9.03502e-21 0.00865671 0.0494667 -0.0789566 0.00355687
-0.00375209 -1.35525e-20 0.00865641 0.0602283 -0.0726863 0.00540283
-0.00875292 4.51751e-21 0.00356915 0.0298848 -0.0718002 0.000588243
0.00955779 0 0 0 0 0
-2.33168e-06 -1.0842e-19 0.00994661 0.0632317 -0.0738316 0.00638171
0.00971438 0 0.00230723 0.0154714 -0.0701808 -0.00193906
-0.0100026 1.0842e-19 0 0 0 0
0.00249558 0 0.00994668 0.0595585 -0.0758446 0.00582969
-0.00250115 0 0.00994648 0.0667198 -0.0719927 0.00684292
-0.0100023 0 0.00233912 0.0224108 -0.0651072 0.000209606
0.0103892 -8.13152e-20 0 0 0 0
0.00745704 0 0.00736086 0.0362869 -0.083862 0.00131856
-0.00750103 1.0842e-19 0.00736595 0.0560839 -0.0714989 0.00439148
0.00866276 -9.03502e-21 0.00606706 0.0274388 -0.0857945 -0.000210546
-0.0087514 4.51751e-21 0.00608247 0.048358 -0.0717996 0.00303213
0.00622747 -9.03502e-21 0.00865489 0.0455642 -0.0812441 0.00304615
-0.006251 0 0.00865624 0.0635872 -0.0709609 0.00582009
0.0107996 -2.25875e-20 0.00114301 0.0130635 -0.0517667 -0.00223613
0.00985495 0 0.00476418 0.0207626 -0.0843727 -0.000163745
0.010977 8.13152e-20 0 0 0 0
-0.0110388 -2.71051e-20 0 0 0 0
-0.0100013 0 0.00479884 0.0402483 -0.0711447 0.00189554
0.00499216 0 0.00994634 0.0556892 -0.077997 0.0052864
-0.00500053 -1.0842e-19 0.0099464 0.0700258 -0.0703245 0.00719442
0.00124803 -1.35525e-20 0.0112174 0.0695825 -0.0729212 0.00799085
-0.001251 -9.03502e-21 0.0112172 0.0731082 -0.0711737 0.00837859
-0.0112517 1.35525e-20 0.00116954 0.0139688 -0.0541876 -0.00016854
-0.0114646 5.42101e-20 0 0 0 0
0.0110102 4.51751e-21 0.0035042 0.0149314 -0.0806176 -0.00010093
0.0118003 1.0842e-19 0 0 0 0
-0.0112513 9.03502e-21 0.00356894 0.0317727 -0.0697977 0.000792765
0.00374639 9.03502e-21 0.0112173 0.0658049 -0.0748483 0.00751566
-0.00375048 -2.25875e-20 0.0112171 0.0763833 -0.0695855 0.0086564
0.00871575 1.35525e-20 0.0086503 0.0415949 -0.0834283 0.00314723
-0.00875046 -4.51751e-21 0.00865614 0.0668107 -0.0694024 0.00613233
0.012129 -1.0842e-19 0.00223333 0.0126412 -0.0674094 -0.000401082
0.0099385 0 0.00735088 0.0326283 -0.0857255 0.00224305
-0.0100005 1.0842e-19 0.00736585 0.0591695 -0.0698596 0.00471551
0.0074867 0 0.00994503 0.0516877 -0.0801965 0.00500131
-0.00750024 0 0.00994635 0.0731418 -0.0688049 0.00743931
-3.82247e-07 -2.1684e-19 0.0124879 0.0783813 -0.0704945 0.00973315
-0.012501 0 0 0 0 0
0.0126142 0 0 0 0 0
0.0111384 -4.51751e-21 0.00604172 0.0239872 -0.0874338 0.00191131
-0.012501 0 0.00233899 0.0236139 -0.0631554 0.000296433
0.00249923 1.0842e-19 0.0124879 0.0749992 -0.0721834 0.00945116
-0.00250018 -1.0842e-19 0.0124878 0.081494 -0.0689474 0.00991732
-0.0112506 -4.51751e-21 0.00608232 0.0513521 -0.0701009 0.00336922
0.00624356 -4.51751e-21 0.0112169 0.0618105 -0.0769431 0.00704404
-0.00625022 -1.35525e-20 0.0112171 0.0794099 -0.0681277 0.00882513
0.0131915 -2.71051e-20 0 0 0 0
0.0123278 -1.0842e-19 0.00471106 0.0177171 -0.0858805 0.00253789
0.0132267 0 0.00104247 0.00947195 -0.0461394 -0.00138839
-0.0125005 1.0842e-19 0.00479871 0.0427653 -0.0693605 0.0021557
0.00499843 -1.0842e-19 0.0124878 0.0713572 -0.0740277 0.00910491
-0.00500008 0 0.0124878 0.0843463 -0.0675186 0.0100015
-0.0135382 2.71051e-20 0 0 0 0
0.00124969 -4.51751e-21 0.0137434 0.0836971 -0.0697398 0.0111849
-0.00125016 -4.51751e-21 0.0137433 0.086644 -0.0682548 0.011267
-0.0137506 1.807e-20 0.00116948 0.0144378 -0.0524187 -0.000192194
0.0135067 9.03502e-21 0.00337591 0.0115214 -0.081875 0.00290489
-0.013963 8.13152e-20 0 0 0 0
0.00997739 -1.0842e-19 0.00994339 0.0478342 -0.082345 0.00531873
-0.0100001 0 0.00994633 0.0760594 -0.0674073 0.00758452
0.014125 -5.42101e-20 0 0 0 0
0.0111994 -1.807e-20 0.00864583 0.0380326 -0.0855294 0.00427818
-0.0112502 9.03502e-21 0.00865607 0.0698739 -0.067979 0.00634383
-0.0137505 -4.51751e-21 0.00356883 0.0338559 -0.067928 0.000995279
0.00873818 -4.51751e-21 0.0112161 0.057752 -0.0791096 0.0068167
-0.00875009 -4.51751e-21 0.0112171 0.0821914 -0.0667743 0.00889437
0.00374931 0 0.0137434 0.0804639 -0.0713462 0.0110093
-0.00375007 9.03502e-21 0.0137433 0.0893163 -0.0668713 0.0112564
0.0143989 0 0 0 0 0
0.0124168 -1.0842e-19 0.00734439 0.0297118 -0.0879983 0.0044483
0.0144673 2.71051e-20 0.000330796 0.00405688 -0.0171213 -0.000216004
-0.0125002 0 0.00736579 0.0621848 -0.068368 0.00495714
0.00749644 -1.0842e-19 0.0124877 0.0675296 -0.0759996 0.00879809
-0.00750003 -1.0842e-19 0.0124878 0.0869511 -0.0661852 0.00999354
0.014749 0 0.000698994 0.00874719 -0.0364434 -0.00049764
0.0148911 0 0 0 0 0
0.0136237 -4.51751e-21 0.0060267 0.0216062 -0.0904451 0.00523587
0.0148703 -1.807e-20 0.00154753 0.00847832 -0.054152 0.00116323
0.0149756 -5.42101e-20 0.000309223 0.00379231 -0.0160047 -0.000201917
-2.93175e-08 0 0.0149988 0.0907021 -0.0676952 0.0124099
-0.0150003 1.0842e-19 0 0 0 0
-0.0137503 9.03502e-21 0.00608223 0.0543519 -0.0685613 0.00364046
0.00624827 0 0.0137433 0.0769558 -0.0730929 0.0107678
-0.00625003 9.03502e-21 0.0137433 0.0917347 -0.06557 0.011161
0.0151457 2.71051e-20 0 0 0 0
-0.0150004 1.0842e-19 0.00233892 0.0249337 -0.0612907 0.000391337
0.00249992 -1.0842e-19 0.0149988 0.0879353 -0.0691463 0.0124169
-0.00250001 -1.0842e-19 0.0149988 0.0932112 -0.0663349 0.0123197
0.0153731 3.01167e-21 0.000848982 0.00787056 -0.0399135 0.000289317
0.0154079 0 0 0 0 0
0.0154333 2.71051e-20 0.000196582 0.00317541 -0.0106291 -0.000325585
0.0148306 0 0.004694 0.0151623 -0.0892981 0.00547291
0.0155974 0 0.00145938 0.0073984 -0.0604933 0.00228552
-0.0150002 -1.0842e-19 0.00479864 0.0453669 -0.0677229 0.00238421
0.0157765 -2.71051e-20 0.000438014 0.00748631 -0.024153 -0.000783647
0.00499965 1.0842e-19 0.0149988 0.0849027 -0.0707043 0.0123415
-0.00500001 0 0.0149988 0.0954829 -0.065051 0.0121544
0.0112268 1.807e-20 0.0112162 0.0539908 -0.0812053 0.00710609
-0.01125 -9.03502e-21 0.0112171 0.0847389 -0.0655026 0.00887484
0.0124603 -1.0842e-19 0.0099452 0.0447085 -0.0844001 0.00637175
-0.0125 -1.0842e-19 0.00994631 0.0787754 -0.0661055 0.00764003
0.00999097 -1.0842e-19 0.0124877 0.0637149 -0.078012 0.00868915
-0.01 0 0.0124878 0.0893255 -0.0649287 0.00990476
-0.016038 -5.42101e-20 0 0 0 0
0.0160421 2.71051e-20 0 0 0 0
0.0160727 2.71051e-20 0.000187423 0.00302745 -0.0101338 -0.000310415
0.0136832 -4.51751e-21 0.0086521 0.0356934 -0.0877034 0.00633821
-0.0137501 9.03502e-21 0.00865604 0.0727605 -0.0666606 0.0064653
0.0161756 -1.807e-20 0.00179843 0.00591417 -0.0661998 0.00282839
0.0162555 -9.03502e-21 0.000985774 0.00630487 -0.0436424 0.000789954
0.00874511 0 0.0137433 0.0732684 -0.0749575 0.0105183
0.0162903 2.71051e-20 0 0 0 0
-0.0162502 0 0.00116945 0.0149494 -0.050651 -0.000181916
-0.00875001 9.03502e-21 0.0137433 0.093924 -0.0643366 0.0109922
0.00124997 0 0.0162494 0.0948519 -0.0670982 0.0136328
-0.00125001 1.807e-20 0.0162494 0.097179 -0.0657724 0.0134545
-0.0164624 -2.71051e-20 0 0 0 0
0.0161381 8.13152e-21 0.00328259 0.00784366 -0.0866841 0.00554133
0.0165248 0 0 0 0 0
0.0165235 2.71051e-20 0.000214492 0.00247657 -0.0106321 -0.000284045
0.0149084 0 0.00736477 0.0279778 -0.0906595 0.00681868
-0.0162502 -1.35525e-20 0.00356877 0.0360953 -0.0662019 0.00119581
0.00374983 0 0.0162494 0.0922837 -0.0684997 0.0137331
-0.00375 0 0.0162494 0.0992857 -0.0645135 0.0132098
-0.0150001 -2.1684e-19 0.00736576 0.0650973 -0.0669985 0.00512477
0.00749843 0 0.0149988 0.0816359 -0.0723722 0.0121971
-0.0075 0 0.0149988 0.0975418 -0.0638314 0.0119249
0.0168483 5.42101e-20 0.000518488 0.00630614 -0.0257627 -0.000797307
0.0168009 5.42101e-20 0.00159734 0.00389925 -0.0667167 0.00269886
0.0171763 2.71051e-20 0 0 0 0
0.0171798 0 0.000213918 0.00246995 -0.0106037 -0.000283286
0.0162492 7.7443e-21 0.00607578 0.0201605 -0.0942452 0.00767719
-0.0162501 1.35525e-20 0.00608218 0.0573085 -0.0671603 0.003853
0.017409 0 0 0 0 0
0.00624914 -9.03502e-21 0.0162494 0.0894636 -0.0699902 0.013747
-0.00625 1.807e-20 0.0162494 0.101197 -0.0633128 0.0129099
0.0174064 -4.51751e-21 0.00108106 0.0045566 -0.0487471 0.00128891
-1.02405e-14 0 0.0175 0.100371 -0.0653118 0.0144425
-0.0175001 0 0 0 0 0
0.0174597 -9.03502e-21 0.00218801 0.00355752 -0.077924 0.00432533
0.017634 2.71051e-20 0 0 0 0
0.0176441 0 0.000226518 0.00234662 -0.0127225 -8.47973e-05
0.0124768 0 0.0124885 0.0603088 -0.0799335 0.00883467
-0.0175001 -1.0842e-19 0.00233889 0.0263476 -0.0594932 0.000504178
-0.0125 0 0.0124878 0.0914902 -0.0637341 0.00974789
0.00249998 -1.0842e-19 0.0175 0.0981643 -0.0666191 0.0146805
-0.0025 0 0.0175 0.102377 -0.0640659 0.0141426
0.013712 -9.03502e-21 0.0112202 0.0511429 -0.0830819 0.00781242
-0.01375 1.35525e-20 0.0112171 0.0870692 -0.064295 0.00878043
0.011236 -4.51751e-21 0.0137435 0.0695898 -0.0768571 0.0103205
-0.01125 -4.51751e-21 0.0137433 0.0959109 -0.0631599 0.0107631
0.0149484 0 0.00995676 0.0427399 -0.086291 0.00759013
0.0179798 0 0.000551805 0.00590435 -0.0306809 -0.000216056
-0.015 0 0.0099463 0.0812929 -0.0648786 0.00761955
0.00999396 0 0.0149988 0.0782227 -0.0741201 0.0119983
-0.01 0 0.0149988 0.0994134 -0.0626668 0.0116428
0.0177172 9.03502e-21 0.00353836 0.00673139 -0.0943107 0.00678184
0.0179881 -5.42101e-20 0.00171051 0.00192608 -0.0736086 0.0036478
-0.0175001 -1.0842e-19 0.00479861 0.0480064 -0.0662246 0.00258077
0.0175164 0 0.00482374 0.0130264 -0.0962943 0.00732459
0.00499976 0 0.0175 0.0957411 -0.0679959 0.0148423
-0.005 0 0.0175 0.104205 -0.0628753 0.0137934
0.0182698 -2.71051e-20 0 0 0 0
0.0180402 0 0.00291708 0.00393939 -0.0923316 0.00649934
0.0182858 0 0.000227338 0.00235512 -0.0127686 -8.51044e-05
-0.01625 -4.51751e-21 0.00865603 0.0754624 -0.065424 0.00651112
0.00874647 -9.03502e-21 0.0162494 0.0864223 -0.0715698 0.0136585
-0.00875 0 0.0162494 0.102939 -0.0621635 0.0125662
0.0162929 -1.41979e-20 0.00868413 0.0345884 -0.0898573 0.00794309
0.018496 -2.71051e-20 0 0 0 0
0.0180113 0 0.00422619 0.00947448 -0.0977829 0.00732222
-0.018538 -2.71051e-20 0 0 0 0
0.0185987 1.35525e-20 0.00110122 0.00283297 -0.0535532 0.00175129
0.0187236 0 0 0 0 0
0.0187582 0 0.000214893 0.00136718 -0.0141016 -0.000174812
0.0177321 -1.807e-20 0.00614951 0.019547 -0.0958811 0.00772895
-0.01875 0 0.00116944 0.0155149 -0.0488576 -0.000131824
0.00124999 1.807e-20 0.01875 0.103627 -0.064832 0.0154876
-0.00125 -1.807e-20 0.01875 0.105517 -0.0636036 0.0151265
0.0186544 0 0.00230765 0.00221032 -0.0850471 0.00515132
0.0180198 0 0.00548223 0.0162558 -0.0967731 0.00754967
-0.0189621 -5.42101e-20 0 0 0 0
-0.0175 0 0.00736574 0.0678817 -0.0657294 0.00522767
0.0186737 2.71051e-20 0.00359745 0.006459 -0.0965254 0.0067108
0.00749863 0 0.0175 0.0931021 -0.0694467 0.0149071
-0.0075 0 0.0175 0.105878 -0.0617344 0.0134058
0.0175523 -1.807e-20 0.00743048 0.0267502 -0.0935196 0.00783287
-0.01875 0 0.00356874 0.0384361 -0.0646179 0.00138624
0.00374987 0 0.01875 0.101558 -0.0661148 0.0157898
-0.00375 -9.03502e-21 0.01875 0.107248 -0.0624262 0.0147214
0.0191417 0 0.000523466 0.00365713 -0.0339156 -0.000305818
0.0180335 0 0.00682266 0.022853 -0.0953365 0.00790887
0.0186794 -1.35525e-20 0.00489465 0.0127907 -0.0979913 0.00705561
0.0193409 0 0 0 0 0
0.019272 5.42101e-20 0.00165716 -0.000297626 -0.0777505 0.00404151
0.0193788 -2.71051e-20 0.000199 0.00126607 -0.0130587 -0.000161883
0.0137222 0 0.0137444 0.0663025 -0.0786873 0.010151
-0.01375 9.03502e-21 0.0137433 0.0977214 -0.0620316 0.0104864
0.0149636 0 0.0124914 0.0577008 -0.0816426 0.00897652
0.0124806 -2.1684e-19 0.0149989 0.0748703 -0.0758864 0.0117282
0.0192887 0 0.00296028 0.00325272 -0.0964821 0.0064111
-0.015 0 0.0124878 0.093467 -0.0625907 0.00953635
-0.0125 0 0.0149988 0.101122 -0.06155 0.0113194
0.0195825 0 0 0 0 0
0.0186882 1.807e-20 0.00618728 0.0194695 -0.096491 0.00725245
-0.01875 -9.03502e-21 0.00608217 0.0601827 -0.0658758 0.00400941
-0.01625 9.03502e-21 0.011217 0.0892005 -0.0631395 0.00862608
0.0112379 4.51751e-21 0.0162494 0.0832132 -0.073214 0.0134293
0.0180425 0 0.00805496 0.0305002 -0.0922983 0.00772751
-0.01125 0 0.0162494 0.104534 -0.0610602 0.0121888
0.00624921 -1.807e-20 0.01875 0.0992939 -0.0674576 0.0160119
-0.00625 -3.61401e-20 0.01875 0.10884 -0.0612959 0.0142837
0.0193156 -5.42101e-20 0.00426883 0.00924362 -0.0994825 0.00662351
0.0177574 0 0.0087192 0.03404 -0.0909157 0.00789633
0.0197848 0 0 0 0 0
0.0163125 -9.03502e-21 0.0112323 0.0493547 -0.084733 0.00825819
0.0197851 -3.16226e-20 0.00105651 0.00113191 -0.0534867 0.00189427
0.0199433 2.25875e-21 0.000343781 0.00301087 -0.0235827 1.00822e-05
0.0199517 -2.03288e-20 0 0 0 0
-0.02 0 0 0 0 0
-1.02403e-14 0 0.02 0.108185 -0.0632099 0.0160367
0.0199137 0 0.002322 0.000764065 -0.0890369 0.00499162
0.0193276 0 0.00556506 0.0161767 -0.0979 0.00674043
0.0186907 4.51751e-21 0.007459 0.0265073 -0.0941999 0.00736916
-0.0175 -1.0842e-19 0.00994629 0.083619 -0.063711 0.00753689
-0.02 -1.0842e-19 0.00233888 0.0278427 -0.0577667 0.000628842
0.0198262 -9.03502e-21 0.00353876 0.00566669 -0.0988909 0.00608715
0.0201482 0 0 0 0 0
0.00999425 1.0842e-19 0.0175 0.0902603 -0.0709664 0.0148347
0.00249998 -1.0842e-19 0.02 0.106348 -0.0644309 0.0164374
-0.0025 0 0.02 0.109873 -0.0620376 0.0155923
-0.01 0 0.0175 0.107415 -0.0606385 0.0129891
0.017571 0 0.00998358 0.0414593 -0.0881185 0.00797924
0.0202492 0 0.000417568 0.00277546 -0.0278484 0.000327558
0.0197197 0 0.00492314 0.0125928 -0.0989598 0.00626183
0.0198624 -1.35525e-20 0.00431664 0.00918769 -0.0998201 0.00615004
0.0203337 0 0 0 0 0
0.0180485 5.42101e-20 0.00938017 0.0375894 -0.0897546 0.00804837
0.0203539 -1.12938e-21 0.000720236 0.000844162 -0.0460294 0.00141778
0.0204602 -4.51751e-21 0.00021777 0.00280926 -0.0140682 -0.000454593
0.0193297 5.42101e-20 0.00683974 0.0225145 -0.0959371 0.00683572
0.0205466 1.35525e-20 0 0 0 0
-0.02 -1.0842e-19 0.00479859 0.0506398 -0.0648559 0.00274291
0.0205431 0 0.00166059 -0.00242892 -0.082729 0.00401198
0.00499976 0 0.02 0.104347 -0.0657045 0.0167761
-0.005 0 0.02 0.111429 -0.0609114 0.0151172
0.018691 0 0.00873215 0.0338807 -0.0914353 0.00748905
0.0206055 0 0.00113383 -0.000983741 -0.0624419 0.00244515
0.020248 -6.77626e-21 0.00398707 0.00739684 -0.100309 0.00584998
0.0198777 0 0.00559885 0.0159439 -0.0981891 0.00619842
-0.01875 -1.35525e-20 0.00865601 0.0779766 -0.0642508 0.00649362
0.0197161 -9.03502e-21 0.00622263 0.0191681 -0.0971554 0.00637486
0.00874659 9.03502e-21 0.01875 0.0968349 -0.0688621 0.0161184
-0.00875 1.807e-20 0.01875 0.110309 -0.060209 0.0138224
0.0206918 0 0.000485439 0.00146992 -0.0308902 0.000377553
0.0207292 0 0 0 0 0
0.0202493 4.51751e-21 0.00468188 0.0110256 -0.0996928 0.00577797
0.020562 -5.42101e-20 0.00303088 0.0025512 -0.0994292 0.00549413
0.0205791 0 0.0036086 0.00535527 -0.100056 0.00552043
0.0209125 -1.35525e-20 0 0 0 0
0.0180516 5.42101e-20 0.0105934 0.0452313 -0.0868331 0.00783338
0.0202818 -2.25875e-21 0.00528131 0.0141355 -0.098851 0.00572269
0.0193324 -5.42101e-20 0.00810405 0.0301605 -0.0932205 0.00701127
0.0209518 0 0.000794603 -0.000973884 -0.050358 0.00107659
0.0210055 0 0.000255445 0.0017512 -0.0152422 -0.000396737
0.0177662 -1.807e-20 0.0112451 0.0485418 -0.0856386 0.00803758
0.0198824 -1.35525e-20 0.0068589 0.0223296 -0.0961931 0.00625665
-0.021038 -1.35525e-19 0 0 0 0
0.0205908 -5.64689e-21 0.00435357 0.00906848 -0.100249 0.00548711
0.020941 1.807e-20 0.00237638 -0.000538844 -0.0942419 0.00469518
0.0197229 -9.03502e-21 0.00748077 0.0260989 -0.0948329 0.00643312
0.0210741 1.54886e-20 0.00124456 -0.00276482 -0.0696249 0.00263374
0.0211253 0 0 0 0 0
0.02028 4.51751e-21 0.00593584 0.0173727 -0.0979449 0.00589711
0.0211074 0 0.00172891 -0.00331118 -0.0864514 0.00394545
0.0149672 0 0.0149992 0.0718625 -0.077571 0.0112553
0.0186932 4.51751e-21 0.00999396 0.0412113 -0.088677 0.00755704
0.0206045 0 0.00499039 0.0125236 -0.0993807 0.00540821
-0.015 0 0.0149988 0.10269 -0.0604757 0.0109649
0.0137244 0 0.0162495 0.0800122 -0.0749173 0.0129861
-0.02125 -4.51751e-21 0.00116944 0.0161672 -0.0470799 -5.72696e-05
-0.01625 9.03502e-21 0.0137433 0.0993782 -0.0609461 0.0101738
0.0212778 0 0.000537366 -1.80242e-05 -0.0341786 0.000413341
-0.01375 -3.61401e-20 0.0162494 0.106004 -0.0599982 0.0117866
0.00124999 -9.03502e-21 0.02125 0.110882 -0.0628054 0.0169908
-0.00125 9.03502e-21 0.02125 0.112519 -0.0616397 0.0165029
0.0209137 2.25875e-21 0.00401727 0.00725257 -0.100717 0.00523351
0.0202812 -2.25875e-21 0.00654348 0.0205356 -0.0969363 0.00585505
0.021312 0 0 0 0 0
-0.02 0 0.00736573 0.0705204 -0.0645412 0.00527341
0.0163191 1.29072e-21 0.0137469 0.0635924 -0.0803946 0.00964972
0.0210372 -1.16165e-20 0.00357854 0.00491967 -0.100418 0.00510583
0.0211194 1.35525e-20 0.00306084 0.00235195 -0.100099 0.00508251
0.00749863 0 0.02 0.102171 -0.0670328 0.017024
-0.0075 0 0.02 0.112871 -0.059828 0.0146208
0.0206095 2.71051e-20 0.0056213 0.015605 -0.0985571 0.00548097
0.0209335 4.51751e-21 0.00469187 0.0107182 -0.0999432 0.00505755
-0.021462 -1.35525e-19 0 0 0 0
0.0198906 -1.35525e-20 0.00811521 0.0298336 -0.0935633 0.00638224
0.019334 0 0.00936858 0.0372098 -0.0904782 0.00716813
0.012481 -1.0842e-19 0.0175 0.0872887 -0.0725498 0.0145588
-0.0175 0 0.0124878 0.0952761 -0.0614912 0.00928259
-0.0125 0 0.0175 0.108835 -0.0595836 0.0125516
0.0215095 1.35525e-20 0 0 0 0
0.0202822 -1.12938e-21 0.00718905 0.0239417 -0.0957996 0.00587117
0.0206114 0 0.00624672 0.0187979 -0.0976044 0.00554192
-0.02125 -1.807e-20 0.00356873 0.0408346 -0.063181 0.00156063
0.0175768 2.71051e-20 0.0124975 0.0554978 -0.0833495 0.00847421
0.0215533 4.51751e-21 0.00086045 -0.0027007 -0.0549957 0.00143645
0.00374987 0 0.02125 0.109107 -0.0640175 0.0174351
-0.00375 0 0.02125 0.114035 -0.0605187 0.0159861
0.0197282 1.807e-20 0.00874265 0.03348 -0.0921259 0.00660751
0.0209184 -2.25875e-21 0.00530361 0.0138468 -0.0991831 0.00512273
0.0215457 4.51751e-21 0.00146101 -0.00455441 -0.0814247 0.00340549
0.0215987 4.51751e-21 0.000276646 0.0010565 -0.0167046 -0.000168588
0.0215159 4.51751e-21 0.00210555 -0.00267266 -0.0950617 0.00445235
0.0180546 5.42101e-20 0.0118959 0.051786 -0.0846396 0.008191
0.021231 0 0.0043614 0.00883278 -0.100482 0.00481259
0.0215157 3.38813e-21 0.00273879 0.000553644 -0.0995542 0.0047228
0.0217116 1.35525e-20 0 0 0 0
0.0206127 0 0.00687123 0.0221025 -0.0965376 0.00550884
0.0202827 2.25875e-21 0.00779649 0.0278128 -0.0944446 0.00588465
0.0209271 -2.25875e-21 0.00593526 0.0169851 -0.098269 0.00520789
0.0212132 2.71051e-20 0.00496926 0.0120208 -0.0997635 0.00480412
0.0215326 -3.38813e-21 0.00340415 0.00397015 -0.101127 0.00477516
0.0186946 0 0.011248 0.0482472 -0.0861157 0.00765349
-0.01875 -4.51751e-21 0.011217 0.0911505 -0.0620277 0.00842442
0.0112381 1.807e-20 0.01875 0.094165 -0.0703205 0.0160432
-0.01125 1.807e-20 0.01875 0.111674 -0.0591622 0.013345
0.0218884 0 0.00056802 -0.00117269 -0.0368027 0.000694035
0.0215249 -4.51751e-21 0.00403417 0.00717114 -0.100834 0.00456291
0.0218693 -2.71051e-20 0.00116661 -0.00447176 -0.0707595 0.00250585
0.0219118 0 0 0 0 0
0.021857 0 0.00180024 -0.00410011 -0.0905527 0.00386095
0.020929 2.25875e-21 0.0065602 0.020339 -0.097271 0.00520627
0.0206135 2.71051e-20 0.00749641 0.0257141 -0.095304 0.00549445
0.0202832 0 0.00844256 0.0314315 -0.0931613 0.00604148
0.0212419 0 0.00562259 0.0152611 -0.0989148 0.00484284
0.0218488 0 0.00244594 -0.00115917 -0.0985817 0.00438396
0.0198921 -2.71051e-20 0.00937253 0.0369772 -0.0908313 0.00652496
0.0215471 4.51751e-21 0.00467385 0.0102534 -0.100346 0.00450168
0.0193355 0 0.0106231 0.0447842 -0.0876532 0.00717466
0.0218549 2.71051e-20 0.00309251 0.0022837 -0.10088 0.00444163
-0.02125 -1.807e-20 0.00608216 0.0629449 -0.0646877 0.00411293
0.0197292 -1.807e-20 0.00999813 0.0408044 -0.0893348 0.00669394
0.0221193 -1.35525e-20 0 0 0 0
0.0209299 -1.12938e-20 0.00718499 0.0236889 -0.0961285 0.00514922
0.0212453 0 0.0062492 0.0185297 -0.0979591 0.00486382
0.00624921 9.03502e-21 0.02125 0.10718 -0.0652795 0.0178135
-0.00625 -9.03502e-21 0.02125 0.115443 -0.0594397 0.0154506
0.0206142 0 0.00812214 0.0294452 -0.0939929 0.00555652
0.0218602 0 0.0037332 0.00553805 -0.101197 0.004339
0.0215479 -4.51751e-21 0.00530169 0.013466 -0.099551 0.00451431
0.0221931 -4.51751e-21 0.000875308 -0.00414831 -0.0579506 0.0017545
0.0222091 9.03502e-21 0.000287223 0.000419366 -0.0180086 2.32094e-05
0.0202837 -2.25875e-21 0.00905069 0.0350496 -0.0917344 0.00606326
0.0221806 -2.25875e-21 0.001495 -0.00537198 -0.0852195 0.00339252
0.0221729 -2.25875e-21 0.00213628 -0.00296563 -0.0971978 0.0040541
0.0218648 2.71051e-20 0.0043649 0.00864416 -0.100789 0.00423486
0.0180554 0 0.0131005 0.0588728 -0.0824153 0.00852964
0.0223146 1.35525e-20 0 0 0 0
0.0212462 -2.71051e-20 0.00687392 0.0218991 -0.0968886 0.00481357
-0.02 0 0.00994629 0.0857631 -0.062591 0.00740407
0.0209305 4.51751e-21 0.00781023 0.0274749 -0.0948526 0.00513667
0.0221717 -4.51751e-21 0.00278024 0.00066127 -0.100725 0.00417358
0.00999425 1.0842e-19 0.02 0.0998006 -0.068415 0.0171303
0.0215574 6.77626e-21 0.00593597 0.0167235 -0.0986472 0.00452809
-0.01 0 0.02 0.11421 -0.0587844 0.0141105
0.0206151 -2.71051e-20 0.00874856 0.0330743 -0.0926429 0.00564714
0.021869 0 0.00499521 0.0117451 -0.100146 0.0042003
0.0221756 -2.25875e-21 0.0034203 0.00386028 -0.101449 0.00407473
0.0177686 2.71051e-20 0.0137495 0.0621158 -0.0813763 0.00903758
0.020284 6.77626e-21 0.00969614 0.0386331 -0.0903969 0.00613215
0.0186955 9.03502e-21 0.0124995 0.0549443 -0.083897 0.00797701
-0.0225 0 0 0 0 0
-1.02402e-14 0 0.0225 0.114888 -0.0612837 0.017387
0.0225117 0 0.000578583 -0.00226035 -0.0391345 0.000896485
0.0225229 2.71051e-20 0 0 0 0
0.0212467 2.71051e-20 0.00749879 0.0254622 -0.0956856 0.00475366
0.0225008 -5.42101e-20 0.00118742 -0.00552587 -0.0740174 0.00261172
0.0215594 4.51751e-21 0.00656172 0.0200968 -0.097632 0.00449159
0.0221795 2.25875e-21 0.00405365 0.00703529 -0.101223 0.00396823
0.0198927 -1.35525e-20 0.0106245 0.0444579 -0.0880235 0.00662487
0.0209311 2.25875e-21 0.00843592 0.0310649 -0.093527 0.00522409
0.0224935 0 0.00182613 -0.004527 -0.0930506 0.00363285
0.02187 2.71051e-20 0.00562207 0.0149745 -0.0993008 0.00418237
-0.0225 0 0.00233887 0.0294192 -0.0561481 0.000751604
0.0224908 0 0.0024723 -0.00122624 -0.0998157 0.0038829
0.00249998 -1.0842e-19 0.0225 0.113261 -0.0624491 0.0179082
-0.0025 0 0.0225 0.116394 -0.0601628 0.0168359
0.0206154 2.71051e-20 0.00937446 0.0366866 -0.0912668 0.00568378
0.0221823 0 0.00468259 0.0100611 -0.100697 0.00391294
0.0193362 0 0.0118745 0.0511726 -0.0853339 0.00741516
0.0224923 -2.71051e-20 0.0031118 0.0022313 -0.101482 0.00382974
0.0197298 1.807e-20 0.0112496 0.0477681 -0.0867577 0.00686972
0.02156 2.25875e-21 0.00718659 0.0235234 -0.0964994 0.00440126
0.0227337 0 0 0 0 0
0.021247 -2.71051e-20 0.00812398 0.0291382 -0.0943887 0.00476544
0.0218727 -2.71051e-20 0.00624927 0.0182973 -0.0983386 0.00414846
0.0202841 -6.77626e-21 0.0103026 0.0425294 -0.0889041 0.00616982
0.0224952 2.71051e-20 0.00374415 0.0054023 -0.101578 0.00371998
0.0209317 0 0.00906182 0.034762 -0.092159 0.00527494
0.0221841 -6.77626e-21 0.00531005 0.0132204 -0.099939 0.00386994
0.0228272 4.51751e-21 0.000290736 -0.000299759 -0.0191011 0.000132458
0.0228187 6.77626e-21 0.000886665 -0.00536775 -0.0610637 0.0018792
0.0228117 -4.51751e-21 0.00151191 -0.00604178 -0.0879055 0.00323945
0.0228077 -4.51751e-21 0.00215451 -0.00309866 -0.0985405 0.00363046
0.0206155 0 0.00999985 0.0404182 -0.089849 0.00574647
0.0224972 -2.71051e-20 0.00437224 0.00845455 -0.101168 0.00363543
0.0218735 0 0.00687445 0.0217109 -0.0972604 0.00406193
0.0229286 2.71051e-20 0 0 0 0
0.0215604 -2.25875e-21 0.0078116 0.0271954 -0.0952431 0.00434667
-0.02125 4.51751e-21 0.00865601 0.0803056 -0.0631267 0.00642423
0.022185 6.77626e-21 0.00593627 0.0164993 -0.0990352 0.0038181
0.022807 -2.25875e-21 0.00279629 0.000493736 -0.101404 0.00359709
0.0212475 2.71051e-20 0.00874944 0.0327779 -0.093046 0.00481749
0.00874659 0 0.02125 0.105089 -0.0665931 0.0180899
-0.01625 1.807e-20 0.0162494 0.107365 -0.0589743 0.0113676
-0.00875 0 0.02125 0.116753 -0.0584 0.0149039
-0.0225 0 0.00479859 0.053236 -0.063609 0.00286926
0.0149676 0 0.0175 0.0843388 -0.0741467 0.0139626
0.0163205 -7.7443e-21 0.0162497 0.0768918 -0.0766491 0.0120756
0.0224981 -2.71051e-20 0.00499856 0.0115261 -0.10052 0.00356666
-0.0175 0 0.0149988 0.104137 -0.0594398 0.0105885
0.00499976 0 0.0225 0.111499 -0.0636619 0.0183819
-0.005 0 0.0225 0.117792 -0.0590842 0.0162663
-0.015 0 0.0175 0.110154 -0.0585663 0.0121001
0.0202842 0 0.0109469 0.0459174 -0.087668 0.00633621
0.0209319 -2.25875e-21 0.00968728 0.0383479 -0.0907723 0.00531307
0.0228084 -2.25875e-21 0.0034307 0.00377138 -0.101881 0.00347855
0.018056 5.42101e-20 0.0143983 0.0650963 -0.0805638 0.00940035
0.0175779 9.03502e-21 0.0149998 0.068784 -0.0793997 0.0101025
0.0218739 -2.71051e-20 0.00749941 0.0252572 -0.096066 0.00396667
0.0221861 0 0.00656201 0.0198969 -0.0980055 0.00373174
0.0231393 2.71051e-20 0 0 0 0
0.0231335 2.71051e-20 0.000583267 -0.00328043 -0.0412785 0.000993497
0.0215608 -2.25875e-21 0.00843687 0.0308068 -0.0939273 0.00436662
0.0231277 -2.71051e-20 0.00119646 -0.00640638 -0.0768376 0.00256578
0.0198929 0 0.0118749 0.0508728 -0.0856938 0.00686272
0.0228102 -2.25875e-21 0.00405972 0.00684792 -0.101619 0.00337368
0.0224985 0 0.00562421 0.0147551 -0.0996855 0.00349102
0.0206155 5.42101e-20 0.010625 0.0440466 -0.0884853 0.00586433
0.0231238 0 0.00183721 -0.00486011 -0.0948768 0.0033091
0.0186957 -4.51751e-21 0.0137498 0.0614585 -0.0818731 0.00855745
0.0212477 0 0.00937484 0.0364162 -0.0916709 0.0048547
0.0137246 0 0.01875 0.0913358 -0.071873 0.0156925
-0.01875 1.807e-20 0.0137433 0.100902 -0.059899 0.00983537
-0.01375 -3.61401e-20 0.01875 0.112944 -0.0581523 0.0128573
0.0231223 2.71051e-20 0.00248253 -0.00136346 -0.100712 0.00337568
0.0228112 -9.03502e-21 0.00468621 0.00985653 -0.101073 0.00328577
0.0221866 6.77626e-21 0.00718706 0.0233659 -0.09687 0.00360875
0.0231227 2.71051e-20 0.00311907 0.0020954 -0.101986 0.00325359
0.0218741 0 0.00812449 0.0288868 -0.0947832 0.00392496
0.0209319 0 0.0103125 0.0421439 -0.0893508 0.00540972
0.0202842 -6.77626e-21 0.0115529 0.0491278 -0.0864673 0.00641714
0.0233506 -1.35525e-20 0 0 0 0
0.022499 0 0.00624956 0.0181083 -0.0987126 0.00339226
0.01973 9.03502e-21 0.0124999 0.0542545 -0.0845396 0.00715762
0.0193365 -5.42101e-20 0.0131249 0.0579258 -0.0832063 0.00776566
0.0215611 -4.51751e-21 0.00906223 0.0344718 -0.0925667 0.00440063
0.0228116 2.25875e-21 0.00531183 0.0130133 -0.100319 0.0031902
0.0231237 2.71051e-20 0.00374822 0.00524421 -0.101982 0.00312429
0.0234469 -6.77626e-21 0.000292113 -0.00106826 -0.0201472 0.000210917
0.0234425 2.25875e-21 0.00089102 -0.00640778 -0.0638001 0.00192556
0.0212478 2.71051e-20 0.00999997 0.0400981 -0.090268 0.00492279
0.0206155 0 0.01125 0.0473492 -0.0872623 0.00601014
0.0234387 2.25875e-21 0.00151844 -0.00648028 -0.0900503 0.00300389