# UMean  POINT_DATA 66257
# x  y  z  UMean_x  UMean_y  UMean_z
6.77626e-21 0.000951594 0 0 0 0
0 0.000952378 6.05115e-05 0.000691483 -0.00343575 -6.22017e-05
1.35525e-20 0.00101666 0 0 0 0
6.77626e-21 0.00108259 0 0 0 0
1.35525e-20 0.00108205 6.12824e-05 0.000674704 -0.00342588 -7.36404e-05
1.0842e-19 -0.000230001 0.00117134 0.0133447 -0.0660582 -0.000952074
6.77626e-21 -0.00142666 0 0 0 0
6.77626e-21 -0.001427 4.90487e-05 0.000560494 -0.00278491 -5.04187e-05
6.77626e-21 -0.00147935 0 0 0 0
0 -0.00153146 0 0 0 0
0 -0.00153095 4.85233e-05 0.00057803 -0.00279157 -4.22668e-05
0 0.00226609 0.00117164 0.0128101 -0.065238 -0.00112537
2.25875e-21 0.00102252 0.00234126 0.0186001 -0.072913 -0.000945257
2.25875e-21 -0.00147475 0.00234099 0.0194562 -0.0734589 -0.000754884
0 -0.00272686 0.00117106 0.0139524 -0.0667632 -0.000799826
0 0.00343106 0 0 0 0
1.35525e-20 0.00343226 7.48638e-05 0.000824233 -0.00418513 -8.99606e-05
1.35525e-20 0.00351169 0 0 0 0
2.1684e-19 -0.000223755 0.00357153 0.02479 -0.0804945 -0.000735092
-1.35525e-20 0.00359276 7.59703e-05 0.00080959 -0.00417053 -0.000105598
-1.35525e-20 0.00359358 0 0 0 0
-6.77626e-21 -0.00393441 0 0 0 0
0 -0.00393462 3.89347e-05 0.000463807 -0.00223994 -3.39146e-05
0 -0.00397618 0 0 0 0
-6.77626e-21 -0.00401725 3.85806e-05 0.00048078 -0.00224445 -2.82044e-05
-6.77626e-21 -0.00401757 0 0 0 0
3.38813e-21 0.00351914 0.00234148 0.0177983 -0.0722613 -0.00115694
-1.0842e-19 0.00227377 0.00357189 0.0236687 -0.0801338 -0.00096494
2.1684e-19 -0.00272176 0.00357118 0.0259529 -0.0807768 -0.000527938
0 -0.00397255 0.00234072 0.0203708 -0.0739158 -0.00058595
-1.0842e-19 0.00476133 0.00117192 0.012349 -0.0642873 -0.00131854
0 0.00102955 0.00480054 0.0308945 -0.0797835 0.000138441
0 -0.00146894 0.00480032 0.0323309 -0.0800431 0.000365783
-1.0842e-19 -0.00522433 0.0011708 0.0146289 -0.0673702 -0.000668084
0 0.00590658 0 0 0 0
0 0.0059084 9.18337e-05 0.000978642 -0.00504138 -0.000127648
0 0.00352769 0.00480072 0.0295028 -0.0794675 -0.000103002
0 0.0047708 0.00357214 0.0225774 -0.0796764 -0.00121676
-1.35525e-20 0.00600567 0 0 0 0
-1.0842e-19 -0.000217791 0.00608418 0.0385231 -0.0793523 0.00126166
0 0.00610537 9.33789e-05 0.000966669 -0.00502043 -0.000148034
1.35525e-20 0.00610661 0 0 0 0
5.64689e-22 -0.00396773 0.00480011 0.0338214 -0.0802589 0.000579503
1.0842e-19 -0.00522013 0.00357084 0.027167 -0.0809974 -0.000342461
0 -0.00644084 0 0 0 0
0 -0.00644097 3.05957e-05 0.000381274 -0.00177993 -2.2367e-05
0 0.00601513 0.00234156 0.0170425 -0.0714871 -0.00138686
-6.77626e-21 -0.00647363 0 0 0 0
-2.1684e-19 0.00228097 0.00608442 0.0368199 -0.0791454 0.00102257
0 -0.00650597 3.03603e-05 0.000396979 -0.00178308 -1.84826e-05
0 -0.00650617 0 0 0 0
1.0842e-19 -0.00271679 0.00608392 0.0402853 -0.0795386 0.00149532
-1.12938e-21 -0.00647075 0.00234045 0.0213478 -0.0743005 -0.000437726
2.1684e-19 0.00725575 0.00117208 0.0119519 -0.0631949 -0.00152686
8.47033e-22 0.00103463 0.00736665 0.0458672 -0.0774114 0.0027908
5.64689e-22 -0.00146474 0.00736653 0.0478005 -0.07761 0.00303303
-2.25875e-21 0.00602547 0.00480075 0.0281452 -0.0790811 -0.000357038
-1.0842e-19 0.0047795 0.00608458 0.0351658 -0.0789092 0.000777255
0 -0.00772224 0.00117057 0.0153741 -0.067895 -0.000556618
0 -0.00521598 0.00608368 0.0421128 -0.0797109 0.00172444
-2.82344e-22 -0.00646674 0.0047999 0.0353743 -0.0804422 0.000780434
1.0842e-19 0.00726737 0.00357211 0.0215038 -0.0791008 -0.00148515
-5.64689e-22 0.00353384 0.00736675 0.0439817 -0.0772023 0.00254349
0 -0.00396424 0.00736643 0.0497855 -0.0778024 0.00326908
0 0.0083778 0 0 0 0
0 0.00838051 0.000111807 0.00115744 -0.00601119 -0.000177248
-1.35525e-20 0.00849876 0 0 0 0
-1.0842e-19 -0.00771879 0.00357053 0.0284433 -0.0811728 -0.000177434
0 0.00862057 0.000113948 0.00114904 -0.00598501 -0.000202141
1.35525e-20 0.00862241 0 0 0 0
1.0842e-19 -0.000214113 0.00865697 0.0551423 -0.0756712 0.00456933
0 0.00851059 0.00234127 0.0163202 -0.0705759 -0.0016268
-3.38813e-21 -0.0089461 0 0 0 0
-3.38813e-21 -0.00894617 2.37524e-05 0.000310577 -0.001395 -1.44599e-05
1.0842e-19 0.00228541 0.0086571 0.0530299 -0.075473 0.00431824
-3.38813e-21 -0.00897154 0 0 0 0
0 -0.00899669 2.35989e-05 0.000324529 -0.00139724 -1.19162e-05
0 -0.00899681 0 0 0 0
-2.1684e-19 -0.00271373 0.00865684 0.0572963 -0.075874 0.00481418
2.82344e-21 -0.00896926 0.00234021 0.0223923 -0.0746269 -0.000309208
-1.0842e-19 0.00727782 0.00608447 0.0335514 -0.0786361 0.000526242
2.82344e-22 0.00603292 0.00736677 0.0421386 -0.0769781 0.00229335
2.25875e-21 0.00852298 0.0048004 0.0268095 -0.0786094 -0.000617564
-1.41172e-22 -0.00646384 0.00736632 0.0518244 -0.0779912 0.00349811
2.1684e-19 0.00974959 0.00117197 0.0116068 -0.061957 -0.00174085
-1.0842e-19 -0.00771532 0.00608345 0.044012 -0.0798745 0.00194921
0 0.00478485 0.00865718 0.0509587 -0.0752785 0.00406463
4.06576e-20 0.00103449 0.00994398 0.0623407 -0.0737384 0.00629762
-7.41154e-20 -0.00146477 0.00994448 0.0644802 -0.0739674 0.00649912
-1.0842e-19 -0.00521343 0.00865671 0.059491 -0.0760816 0.00505047
-5.64689e-22 -0.00896592 0.00479971 0.0369982 -0.0806029 0.000969601
0 -0.0102205 0.00117037 0.0161859 -0.0683464 -0.000465298
0 0.00976367 0.00357144 0.0204318 -0.0783867 -0.00175705
7.24213e-20 0.0035336 0.00994335 0.0602069 -0.0735195 0.00608281
0 0.00354007 0.00994334 0.0602305 -0.0735127 0.00608881
-4.80691e-20 -0.00396103 0.00994489 0.0666427 -0.0742001 0.00668981
0 -0.0102177 0.00357025 0.029793 -0.0813172 -3.03714e-05
0 0.0108441 0 0 0 0
0 0.0108481 0.000135646 0.00136785 -0.0071247 -0.000240633
0 0.0109914 0 0 0 0
-2.71051e-20 0.01114 0.000138658 0.00136475 -0.00709646 -0.000268483
0 0.0111428 0 0 0 0
0 -0.000212546 0.0112174 0.0716259 -0.0720427 0.00822336
0 0.0110059 0.00234034 0.015614 -0.0695101 -0.001861
1.12938e-21 0.00853188 0.00736656 0.0403318 -0.0767328 0.0020451
-1.0842e-19 0.00728421 0.00865713 0.0489268 -0.0750857 0.0038139
1.0842e-19 0.00228732 0.0112174 0.0694834 -0.0717877 0.00806133
0 -0.0114503 0 0 0 0
0 -0.0114503 1.81853e-05 0.000250082 -0.00107671 -9.18263e-06
0 -0.0114698 0 0 0 0
3.38813e-21 -0.011489 1.80881e-05 0.000262033 -0.00107832 -7.58395e-06
0 -0.0114891 0 0 0 0
0 0.00977602 0.00608381 0.0319663 -0.0783155 0.000274735
1.0842e-19 -0.00271244 0.0112173 0.0737742 -0.072302 0.00837176
0 -0.00771318 0.0086566 0.0617243 -0.0762932 0.00527612
4.23516e-22 -0.00895974 0.00736235 0.0538899 -0.0781835 0.00371387
-1.60936e-19 -0.00896729 0.00736236 0.0539276 -0.0781766 0.00372077
9.31736e-21 0.00603252 0.00994255 0.0581116 -0.0733018 0.00586608
-9.31736e-21 0.00604059 0.00994254 0.0581409 -0.0732933 0.00587372
0 -0.011468 0.00234 0.0235083 -0.0749047 -0.000198357
1.73642e-20 -0.00646372 0.00994521 0.0688268 -0.0744345 0.00686803
1.0842e-19 -0.0102148 0.00608326 0.0459882 -0.0800331 0.00216982
-1.12938e-21 0.0110204 0.0047994 0.0254802 -0.0780339 -0.000870661
1.0842e-19 0.00478716 0.0112174 0.0673486 -0.0715391 0.00788725
-2.1684e-19 0.0122435 0.00117144 0.0112959 -0.0605567 -0.00194497
1.0842e-19 -0.00521236 0.0112172 0.0759269 -0.0725622 0.00850536
5.64689e-22 -0.0114652 0.00479955 0.0387004 -0.0807484 0.00114873
-2.37169e-20 0.00103742 0.0124875 0.0775371 -0.0703813 0.00969576
4.85456e-20 -0.00146246 0.0124876 0.0795696 -0.0706547 0.00978573
-1.0842e-19 0.01226 0.00356989 0.019338 -0.0775064 -0.00200753
0 -0.012719 0.0011702 0.0170609 -0.0687313 -0.000392775
9.45501e-20 0.00353726 0.0124874 0.0755029 -0.0701095 0.00959192
-1.0842e-19 0.00978349 0.0086568 0.0469305 -0.0748912 0.0035737
1.20702e-19 -0.00396235 0.0124875 0.0815995 -0.070927 0.00986107
0 0.00853624 0.00994662 0.0560678 -0.0730808 0.00565598
0 -0.0127167 0.00357001 0.031226 -0.08144 0.00010297
5.64689e-22 0.0110308 0.00736595 0.0385538 -0.0764571 0.00180765
0 0.0133043 0 0 0 0
2.71051e-20 0.0133101 0.000164761 0.00162166 -0.00843239 -0.000319025
-2.1684e-19 0.00728695 0.0112174 0.0652233 -0.0712996 0.00770354
5.2516e-20 -0.00896334 0.00994741 0.0710304 -0.0746682 0.00703231
1.0842e-19 -0.010213 0.0086565 0.063994 -0.0765066 0.0054894
0 0.0134843 0 0 0 0
-2.1684e-19 -0.00771229 0.0112172 0.0780822 -0.07282 0.0086231
4.23516e-20 -0.0114661 0.00736317 0.0560709 -0.078363 0.00393176
2.71051e-20 0.0136661 0.000169325 0.00163152 -0.00841433 -0.000349257
0 0.0136704 0 0 0 0
-1.0842e-19 0.0122743 0.00608241 0.030398 -0.0779314 3.52647e-05
0 0.0135014 0.00233865 0.0149125 -0.0682658 -0.00207106
0 -0.000212091 0.0137434 0.0854539 -0.0689994 0.0112592
8.50209e-20 0.00603705 0.0124872 0.0734681 -0.0698419 0.00947535
0 0.00228788 0.0137434 0.083529 -0.0687082 0.0112268
0 -0.0139536 0 0 0 0
-1.69407e-21 -0.0139536 1.37177e-05 0.000198721 -0.000817775 -5.75153e-06
0 -0.0139682 0 0 0 0
0 -0.0139828 1.36577e-05 0.000208673 -0.000818903 -4.78724e-06
0 -0.0139828 0 0 0 0
0 -0.00271207 0.0137433 0.0873689 -0.0692874 0.0112767
7.07273e-20 -0.00646189 0.0124876 0.0836266 -0.0711953 0.00992133
1.0842e-19 -0.0127143 0.00608309 0.0480444 -0.0801886 0.00238624
-2.82344e-22 -0.0139669 0.00233981 0.0246988 -0.0751409 -0.000102064
0 0.0135179 0.00479763 0.0241443 -0.0773345 -0.00109693
0 0.00478783 0.0137434 0.0815939 -0.0684163 0.0111795
0 -0.00521206 0.0137433 0.0892742 -0.0695691 0.0112792
0 -0.0139646 0.0047994 0.0404867 -0.0808847 0.00131993
0 0.0147376 0.00117073 0.011025 -0.0589751 -0.00212987
2.82344e-22 0.0110359 0.00994643 0.0540247 -0.0728686 0.00544581
0 0.00978668 0.0112174 0.0631094 -0.07107 0.00751348
0 0.0122827 0.00865616 0.0449665 -0.074688 0.00335416
3.61974e-20 0.00103802 0.0149988 0.0899579 -0.0675732 0.012424
1.40363e-19 -0.00146203 0.0149988 0.0917502 -0.067867 0.0123901
-1.03444e-19 0.00853678 0.012487 0.0714336 -0.0695808 0.00934786
-1.0842e-19 -0.0102122 0.0112172 0.0802384 -0.0730717 0.00872399
-5.05043e-20 -0.011463 0.00994568 0.0732515 -0.074898 0.0071815
0 0.0147565 0.00356775 0.0182148 -0.0764343 -0.00221264
-1.0842e-19 -0.0152176 0.00117005 0.017996 -0.0690488 -0.000336844
-1.24673e-20 -0.0089622 0.0124877 0.0856499 -0.0714561 0.00996598
-2.1684e-19 -0.0127128 0.00865642 0.0662973 -0.0767185 0.00568881
5.64689e-22 0.0135297 0.00736494 0.0367993 -0.0761409 0.00159331
1.26195e-19 0.00353802 0.0149988 0.0881563 -0.0672753 0.0124445
1.36591e-19 -0.00396199 0.0149988 0.0935341 -0.0681544 0.0123428
0 0.00728776 0.0137434 0.0796488 -0.0681265 0.0111178
-1.0842e-19 -0.0152158 0.00356979 0.0327519 -0.0815533 0.000227295
0 0.0157567 0 0 0 0
0 -0.00771205 0.0137433 0.0911699 -0.0698421 0.0112669
-5.42101e-20 0.0157653 0.000200597 0.00193283 -0.00996834 -0.000413759
-1.55854e-19 -0.0139652 0.00736381 0.0582785 -0.0785449 0.00413478
0 0.0147725 0.00608051 0.0288406 -0.0774725 -0.000175261
-2.71051e-20 0.0159775 0 0 0 0
9.03502e-21 0.0159972 0.00233633 0.0142337 -0.0668338 -0.00224479
8.38232e-20 0.00603803 0.0149987 0.0863446 -0.0669755 0.0124514
0 0.0162004 0.000207421 0.00198014 -0.00997156 -0.000449577
-2.71051e-20 0.0162074 0 0 0 0
-1.0842e-19 -0.000212011 0.0162494 0.0962515 -0.0664452 0.0135601
3.1466e-20 -0.00646202 0.0149988 0.0953105 -0.0684327 0.0122825
1.0842e-19 -0.0152138 0.00608293 0.0501814 -0.080342 0.00259795
0 0.00228798 0.0162494 0.0945829 -0.0661435 0.0136471
-1.69407e-21 -0.016456 0 0 0 0
-1.69407e-21 -0.016456 1.01993e-05 0.000155834 -0.000611545 -3.57504e-06
-1.69407e-21 -0.0164669 0 0 0 0
-1.0842e-19 -0.00271201 0.0162494 0.0979126 -0.0667396 0.0134614
0 -0.0164778 1.01638e-05 0.00016391 -0.000612278 -3.03047e-06
-1.69407e-21 -0.0164778 0 0 0 0
-2.82344e-22 -0.0164659 0.00233964 0.0259673 -0.0753397 -1.76895e-05
0 0.0122863 0.0112172 0.0610096 -0.0708499 0.00732214
-5.99276e-20 0.0110365 0.0124868 0.069401 -0.0693272 0.00921219
-4.51751e-21 0.0160154 0.00479528 0.0227985 -0.0764989 -0.00127569
4.23516e-22 0.0135355 0.00994611 0.0520066 -0.0726547 0.00524928
0 0.00978761 0.0137434 0.0776939 -0.0678414 0.0110428
1.0842e-19 0.00478796 0.0162494 0.0929049 -0.0658365 0.0137217
8.76547e-20 -0.0114622 0.0124879 0.0876689 -0.0717062 0.00999477
-1.0842e-19 -0.0127122 0.0112171 0.0823939 -0.0733133 0.00880764
1.0842e-19 -0.005212 0.0162494 0.0995673 -0.0670247 0.0133512
0 -0.010212 0.0137433 0.0930568 -0.070103 0.0112397
1.0842e-19 0.0147819 0.00865531 0.0430365 -0.0744691 0.00316547
-1.41772e-19 -0.0139628 0.00994585 0.0754876 -0.0751199 0.00731473
-1.41172e-22 -0.0164641 0.00479927 0.042362 -0.0810165 0.00148492
-9.69059e-20 0.00853784 0.0149987 0.0845221 -0.0666765 0.0124448
0 0.0172319 0.0011701 0.0108621 -0.0572312 -0.00229883
2.5861e-20 -0.00896199 0.0149988 0.0970804 -0.0686994 0.0122096
2.1684e-19 -0.0152126 0.00865635 0.0686302 -0.0769251 0.00587311
5.5401e-20 0.001038 0.0175 0.0997178 -0.0651887 0.0144991
1.3695e-19 -0.001462 0.0175 0.10129 -0.0654853 0.0143627
1.0842e-19 0.017253 0.0035653 0.0170715 -0.0751667 -0.00235364
0 0.0160286 0.00736361 0.0350655 -0.0757761 0.00141821
0 -0.0177165 0.00116993 0.0189895 -0.0692986 -0.000296965
0 0.0072879 0.0162494 0.091216 -0.0655264 0.0137834
-1.4177e-19 0.003538 0.0175 0.0981411 -0.064885 0.0146255
1.17414e-20 -0.003962 0.0175 0.102859 -0.065773 0.0142167
1.0842e-19 -0.007712 0.0162494 0.101217 -0.0672982 0.0132303
1.16467e-19 -0.0164645 0.00736776 0.0605403 -0.0787219 0.00432751
0 -0.0177151 0.00356961 0.034379 -0.0816629 0.000345747
-2.71051e-20 0.0182028 0 0 0 0
-2.71051e-20 0.0182155 0.000241221 0.00230281 -0.0115964 -0.000522837
1.0842e-19 0.0172707 0.00607818 0.0272857 -0.0769303 -0.000333048
-4.70103e-20 0.013536 0.0124892 0.0673733 -0.0690816 0.0090718
0 0.0122874 0.0137434 0.0757304 -0.0675626 0.010956
2.71051e-20 0.0184707 0 0 0 0
-4.64536e-20 0.006038 0.0175 0.0965579 -0.0645763 0.0147411
0 0.0147859 0.011217 0.0589293 -0.0706377 0.00713535
2.50934e-20 0.0110377 0.0149986 0.0826882 -0.06638 0.0124252
4.51751e-21 0.0184934 0.00233259 0.0135721 -0.0652107 -0.00236068
4.78875e-20 -0.006462 0.0175 0.104427 -0.0660498 0.0140616
1.0842e-19 -0.012712 0.0137433 0.0949351 -0.070349 0.011198
2.1684e-19 -0.0177135 0.0060828 0.0523987 -0.0804929 0.00280447
-1.85686e-20 -0.0139621 0.0124877 0.0896828 -0.071942 0.0100076
-2.71051e-20 0.0187394 0.000249081 0.00236752 -0.0115502 -0.000557243
2.71051e-20 0.0187499 0 0 0 0
-1.0842e-19 -0.000212006 0.01875 0.104757 -0.0642329 0.0153064
0 0.016035 0.00994571 0.0500169 -0.0724346 0.00507596
-2.45615e-20 -0.011462 0.0149988 0.0988448 -0.0689519 0.0121242
2.1684e-19 0.00228798 0.01875 0.103278 -0.0639334 0.0154826
1.0842e-19 -0.0152122 0.0112171 0.0845467 -0.0735408 0.00887372
-1.0842e-19 -0.002712 0.01875 0.106237 -0.0645238 0.0151226
0 -0.0189578 0 0 0 0
0 -0.0189578 7.48767e-06 0.000120753 -0.000451067 -2.23256e-06
0 -0.0189658 0 0 0 0
-2.1684e-19 0.00978778 0.0162494 0.0895143 -0.0652153 0.0138318
0 -0.0189738 7.46722e-06 0.000127157 -0.000451499 -1.93757e-06
-1.69407e-21 -0.0189738 0 0 0 0
-4.23516e-22 -0.0189651 0.0023395 0.0273161 -0.0755029 5.70412e-05
0 0.0185135 0.0047916 0.0214301 -0.0755176 -0.00137598
-1.0842e-19 -0.010212 0.0162494 0.102864 -0.0675578 0.013099
2.61521e-20 -0.0164626 0.00994597 0.0777356 -0.07533 0.00743137
2.1684e-19 0.0172808 0.0086543 0.0411419 -0.074228 0.00302182
0 0.00478797 0.01875 0.101797 -0.0636271 0.0156503
-1.0842e-19 -0.005212 0.01875 0.107718 -0.0648043 0.0149313
-4.86316e-20 0.00853794 0.0175 0.0949663 -0.0642643 0.0148454
1.65171e-20 -0.0189602 0.00479567 0.0443015 -0.0811455 0.0016415
-4.23516e-22 -0.0189672 0.00479567 0.0443361 -0.0811433 0.00164603
5.80779e-20 -0.008962 0.0175 0.105995 -0.0663137 0.0138979
0 -0.0177125 0.00865629 0.0709893 -0.0771219 0.00604125
-1.0842e-19 0.0197268 0.0011683 0.01074 -0.0553051 -0.00242747
3.38813e-21 0.0185276 0.00736167 0.0333455 -0.0753509 0.00130459
6.28228e-20 0.001038 0.02 0.107594 -0.0630891 0.0161245
5.35381e-20 -0.001462 0.02 0.109017 -0.06338 0.015913
-1.0842e-19 0.0197514 0.00356002 0.0158746 -0.0736947 -0.00238469
1.0842e-19 0.00728791 0.01875 0.100312 -0.0633156 0.0158088
0 0.0147871 0.0137433 0.0737616 -0.0672922 0.0108589
-8.16593e-20 0.0135376 0.014999 0.0808439 -0.0660881 0.012393
-2.1684e-19 -0.0202155 0.00116983 0.0200399 -0.0694852 -0.000271238
1.0842e-19 -0.007712 0.01875 0.109203 -0.0650726 0.0147333
-4.17705e-20 0.003538 0.02 0.106172 -0.0627902 0.0163294
-1.19643e-19 0.0160352 0.0124859 0.0653548 -0.0688436 0.00893113
7.26331e-20 -0.0189639 0.00736469 0.0628535 -0.0788907 0.00450914
-1.0842e-19 0.0122876 0.0162494 0.0877983 -0.0649047 0.0138665
1.47606e-20 -0.003962 0.02 0.110444 -0.0636613 0.0156955
-2.8115e-20 -0.013962 0.0149988 0.100604 -0.0691875 0.0120268
1.0842e-19 -0.015212 0.0137433 0.0968055 -0.0705771 0.0111418
-1.0842e-19 -0.0202144 0.00356944 0.0361121 -0.0817662 0.000461885
-2.1684e-19 0.0172851 0.0112168 0.0568732 -0.0704306 0.00696138
-1.0842e-19 -0.012712 0.0162494 0.10451 -0.0678013 0.0129578
2.71051e-20 0.0206492 0 0 0 0
-1.98325e-20 -0.0164619 0.0124877 0.0916911 -0.07216 0.0100046
0 0.0206673 0.000280665 0.00266773 -0.0130148 -0.000627903
-1.0842e-19 0.0197697 0.00607424 0.0257093 -0.0762863 -0.000403367
6.08805e-22 0.0110378 0.0174999 0.0933643 -0.0639508 0.0149377
-7.02533e-20 0.00603798 0.02 0.104752 -0.0624851 0.0165271
3.8061e-20 -0.011462 0.0175 0.107564 -0.0665623 0.0137261
-5.42101e-20 0.0209637 0 0 0 0
2.1684e-19 -0.0177121 0.0112171 0.0866949 -0.0737501 0.0089223
8.08456e-20 -0.006462 0.02 0.111876 -0.0639313 0.0154722
-8.47033e-22 0.0185343 0.00994519 0.0480583 -0.0722015 0.00493824
0 -0.0202132 0.00608269 0.0546939 -0.0806383 0.00300487
-4.51751e-21 0.0209903 0.00232545 0.0128979 -0.0633762 -0.00239232
-2.1684e-19 0.00978779 0.01875 0.0988212 -0.0630005 0.0159574
0 -0.000212006 0.02125 0.111851 -0.0622406 0.0167343
-2.71051e-20 0.0212775 0.000287875 0.00271772 -0.0128376 -0.000654631
-2.71051e-20 0.0212916 0 0 0 0
0 -0.010212 0.01875 0.110693 -0.0653266 0.014529
1.0842e-19 0.00228798 0.02125 0.110487 -0.0619495 0.0169748
2.82168e-20 -0.0189625 0.00994606 0.0799929 -0.075524 0.00753098
0 -0.002712 0.02125 0.113221 -0.0625228 0.0164889
8.47033e-22 -0.0214591 5.43834e-06 5.40211e-05 -0.000191814 -8.23157e-07
8.47033e-22 -0.0214707 0 6.82888e-05 -0.000230244 -8.8062e-07
-2.25875e-21 0.0210123 0.00478532 0.020039 -0.0743887 -0.00136343
1.0842e-19 0.0197796 0.008653 0.0392814 -0.0739525 0.00293923
-1.41172e-22 -0.0214644 0.00233938 0.0287461 -0.0756296 0.000124994
8.23872e-21 0.00853794 0.02 0.103329 -0.0621753 0.016717
1.0842e-19 0.00478797 0.02125 0.109127 -0.061651 0.01721
-1.0842e-19 -0.005212 0.02125 0.114598 -0.0627945 0.0162391
-9.67102e-20 -0.008962 0.02 0.113315 -0.064188 0.0152437
1.07838e-19 0.0160372 0.0149984 0.0789911 -0.0658023 0.0123487
1.0842e-19 0.0147873 0.0162494 0.0860689 -0.064597 0.0138867
-1.0842e-19 -0.0202124 0.00865623 0.0733698 -0.0773042 0.00619247
1.27055e-20 -0.0214659 0.00479644 0.0463872 -0.081265 0.00180131
2.1684e-19 0.0172864 0.0137433 0.0717908 -0.0670308 0.0107535
-3.34843e-20 0.0135377 0.0175001 0.0917509 -0.0636373 0.0150173
0 0.0222219 0.00116339 0.0105973 -0.0531191 -0.00250802
0 -0.015212 0.0162494 0.106154 -0.0680261 0.0128073
-3.67355e-20 -0.016462 0.0149988 0.10236 -0.0694035 0.0119177
-1.12938e-21 0.0210266 0.00735887 0.0316392 -0.0748567 0.00127426
-1.2282e-19 0.0185339 0.0124904 0.0633496 -0.0686107 0.00879593
1.13296e-19 -0.013962 0.0175 0.109136 -0.0667935 0.0135465
1.0842e-19 0.0122876 0.01875 0.0973217 -0.0626831 0.016095
0 -0.017712 0.0137433 0.0986684 -0.0707843 0.0110718
1.0842e-19 0.00728791 0.02125 0.107771 -0.0613469 0.0174395
2.40462e-20 0.001038 0.0225 0.114335 -0.0611669 0.0174985
-1.0842e-19 0.0222501 0.00355028 0.014662 -0.0720353 -0.00227846
1.14761e-19 -0.001462 0.0225 0.115667 -0.0614482 0.0172301
1.0842e-19 -0.007712 0.02125 0.115983 -0.0630539 0.0159852
-1.0842e-19 -0.012712 0.01875 0.112188 -0.0655641 0.0143185
-6.35275e-22 -0.0214634 0.00736498 0.0652142 -0.0790474 0.00467869
1.03808e-19 -0.018962 0.0124878 0.0936931 -0.0723569 0.00998601
0 0.0197839 0.0112166 0.0548468 -0.0702227 0.0068113
1.0842e-19 -0.0227147 0.00116974 0.0211423 -0.0695996 -0.000256712
5.82295e-20 0.003538 0.0225 0.113009 -0.0608775 0.017763
-2.43125e-20 0.0110378 0.0199999 0.101903 -0.0618621 0.0168983
3.28979e-21 -0.003962 0.0225 0.117006 -0.0617199 0.016958
-1.0842e-19 -0.0227139 0.00356931 0.037956 -0.0818666 0.000578779
8.08456e-20 -0.011462 0.02 0.114761 -0.0644293 0.0150101
-1.0842e-19 0.0222687 0.00606848 0.0241281 -0.0755425 -0.000356121
0 0.0230907 0 0 0 0
-1.0842e-19 -0.0202121 0.0112171 0.088837 -0.0739375 0.00895337
-5.42101e-20 0.0231152 0.000321554 0.00303568 -0.0143395 -0.000731219
-2.82344e-22 0.0210335 0.00994459 0.0461358 -0.0719479 0.00484696
-7.02516e-20 0.00603798 0.0225 0.111688 -0.0605815 0.0180231
0 0.00978779 0.02125 0.106413 -0.0610383 0.0176625
-9.67102e-20 -0.006462 0.0225 0.118355 -0.0619802 0.0166826
-5.42101e-20 0.0234563 0 0 0 0
-1.0842e-19 -0.0227129 0.00608259 0.0570627 -0.0807743 0.0031975
-1.0842e-19 -0.010212 0.02125 0.117378 -0.063299 0.0157272
4.51751e-21 0.0234867 0.00231572 0.012213 -0.0613643 -0.00235196
-1.58104e-19 -0.0214623 0.00994613 0.0822562 -0.0756976 0.00761322
0 0.0172867 0.0162494 0.0843258 -0.064294 0.0138918
2.4511e-20 0.0160379 0.0174997 0.0901257 -0.063326 0.0150831
1.0842e-19 -0.000212006 0.02375 0.118147 -0.060379 0.0179962
0 0.0238222 0.000334698 0.00309697 -0.0142718 -0.000781114
4.18223e-20 0.0185361 0.0149979 0.0771314 -0.0655228 0.0122931
2.71051e-20 0.0238446 0 0 0 0
2.1684e-19 0.00228798 0.02375 0.116853 -0.0600986 0.0182888
0 0.0147874 0.01875 0.0958129 -0.0623652 0.0162207
-2.1684e-19 0.0222784 0.00865156 0.0374631 -0.0736354 0.00292534
0 -0.002712 0.02375 0.119448 -0.0606506 0.017701
0 -0.02396 3.91345e-06 4.59663e-05 -0.000150911 -5.56611e-07
2.25875e-21 0.0235099 0.00477762 0.0186498 -0.0731534 -0.00122209
-6.42586e-20 -0.016462 0.0175 0.110712 -0.067005 0.0133595
1.0842e-19 -0.017712 0.0162494 0.107799 -0.0682299 0.0126477
8.23872e-21 0.00853794 0.0225 0.11037 -0.0602804 0.0182785
0 -0.0239602 0.00233583 0.0302319 -0.0756993 0.00018721
3.38813e-20 -0.0239674 0.00234276 0.0302643 -0.0757221 0.000188669
-1.0842e-19 0.0197854 0.0137433 0.0698219 -0.0667768 0.010642
0 -0.015212 0.01875 0.113691 -0.0657831 0.0141023
-3.34843e-20 0.0135377 0.0199999 0.100471 -0.061547 0.0170699
-1.74279e-20 -0.018962 0.0149988 0.104112 -0.0695973 0.0117973
-9.67102e-20 -0.008962 0.0225 0.119712 -0.0622273 0.0164039
-1.0842e-19 0.00478797 0.02375 0.115566 -0.0598108 0.0185784
0 -0.0227123 0.00865619 0.0757673 -0.0774671 0.00632616
0 -0.005212 0.02375 0.120758 -0.0609118 0.0174031
3.28979e-21 -0.013962 0.02 0.116215 -0.0646532 0.0147717
1.39337e-19 -0.0239649 0.00479702 0.0485366 -0.0813766 0.00195398
2.1684e-19 -0.020212 0.0137433 0.100524 -0.0709679 0.0109882
4.82809e-20 0.0210324 0.0124842 0.0613459 -0.068385 0.00866734
4.06576e-20 0.0210325 0.0124911 0.061369 -0.0683783 0.00867402
1.0842e-19 0.0122876 0.02125 0.105055 -0.0607265 0.0178783
-1.12938e-21 0.0235251 0.00735571 0.0299586 -0.0743026 0.00134925
1.0842e-19 0.0247144 0.00115991 0.010434 -0.0507988 -0.00259913
0 -0.012712 0.02125 0.118782 -0.0635277 0.0154656
0 -0.021462 0.0124878 0.0956883 -0.0725294 0.00995201
1.0842e-19 0.00728791 0.02375 0.114286 -0.0595173 0.0188647
1.0842e-19 0.0222828 0.0112165 0.0528582 -0.0700092 0.00669401
0 -0.007712 0.02375 0.122078 -0.0611608 0.0171029
-1.0842e-19 0.024745 0.00354107 0.013469 -0.0703012 -0.00206178
6.28228e-20 0.001038 0.025 0.120431 -0.0593483 0.0187385
-4.64619e-20 -0.001462 0.025 0.121702 -0.0596193 0.018421
-2.4339e-20 0.0110378 0.0224999 0.109052 -0.0599755 0.0185285
-5.48454e-20 -0.0239617 0.00736519 0.0676176 -0.079187 0.00483501
0 -0.025214 0.00116967 0.0222974 -0.0696452 -0.000251714
-1.4177e-19 0.003538 0.025 0.119167 -0.0590694 0.019054
-9.67102e-20 -0.011462 0.0225 0.12108 -0.0624592 0.0161221
-1.91544e-20 -0.003962 0.025 0.122981 -0.0598808 0.0181017
-1.0842e-19 -0.0227121 0.0112171 0.0909714 -0.0740993 0.00896693
1.0842e-19 -0.0252134 0.00356919 0.0399103 -0.0819555 0.000697456
6.53274e-20 0.0185364 0.0174993 0.0884877 -0.0630172 0.0151341
0 0.0247657 0.00606274 0.0225613 -0.0747407 -0.000157693
-1.0842e-19 0.0172867 0.01875 0.0942934 -0.0620487 0.0163329
0 0.0255124 0 0 0 0
0 0.0235324 0.00994397 0.0442577 -0.0716702 0.00481353
0 0.0255491 0.000373423 0.0034553 -0.0159231 -0.00087149
-1.0842e-19 0.0197856 0.0162494 0.0825691 -0.0639947 0.013881
1.11544e-19 0.0160373 0.0199997 0.0990314 -0.0612317 0.0172309
-2.1684e-19 0.00978779 0.02375 0.113008 -0.0592193 0.0191473
-7.02533e-20 0.00603798 0.025 0.11791 -0.0587839 0.0193674
1.0842e-19 -0.017712 0.01875 0.1152 -0.0659812 0.0138807
-6.15279e-20 -0.018962 0.0175 0.112291 -0.0671943 0.0131655
-1.91544e-20 -0.006462 0.025 0.12427 -0.0601311 0.0177806
-7.41154e-20 0.0210351 0.0149975 0.0752678 -0.0652489 0.0122271
-1.0842e-19 -0.010212 0.02375 0.123409 -0.0613957 0.0168002
0 0.0147874 0.02125 0.103693 -0.0604133 0.0180858
6.45119e-20 -0.016462 0.02 0.117678 -0.0648575 0.0145289
-1.0842e-19 -0.020212 0.0162494 0.109445 -0.0684103 0.0124795
1.0842e-19 -0.0252127 0.0060825 0.0594996 -0.0808955 0.00338082
7.12037e-20 -0.0239623 0.00994618 0.0845226 -0.0758466 0.00767775
0 0.0259495 0 0 0 0
-1.35525e-20 0.0259804 0.00230532 0.0114697 -0.0592399 -0.00223968
0 -0.015212 0.02125 0.120197 -0.0637381 0.0152005
1.0842e-19 0.0222843 0.0137433 0.0678605 -0.0665295 0.0105273
0 -0.021462 0.0149988 0.105862 -0.0697662 0.0116661
2.1684e-19 0.0247764 0.00865012 0.0356965 -0.0732783 0.00299841
1.0842e-19 -0.000212006 0.02625 0.123982 -0.0585931 0.0191643
-3.35637e-20 0.0135377 0.0224999 0.107734 -0.0596681 0.0187723
0 0.00228798 0.02625 0.122741 -0.0583228 0.0195048
5.42101e-20 0.0263739 0.000391789 0.00346578 -0.0158597 -0.00092473
-1.0842e-19 -0.002712 0.02625 0.12523 -0.0588548 0.0188226
5.42101e-20 0.0264109 0 0 0 0
8.23872e-21 0.00853794 0.025 0.116657 -0.0584934 0.0196785
9.03502e-21 0.0260059 0.00476911 0.0172402 -0.0718693 -0.000925653
0 -0.0264606 2.79231e-06 3.46069e-05 -0.000107769 -3.77548e-07
3.28979e-21 -0.013962 0.0225 0.122458 -0.0626739 0.0158374
2.1684e-19 -0.022712 0.0137433 0.102373 -0.0711252 0.0108916
8.08456e-20 -0.008962 0.025 0.125569 -0.0603684 0.0174578
1.18585e-19 -0.0264661 0.00234175 0.0318492 -0.0757617 0.000248747
2.28699e-20 0.0235308 0.0124833 0.0593817 -0.068155 0.00856104
2.5411e-21 0.0235308 0.0124918 0.0594101 -0.0681467 0.00856919
-1.0842e-19 -0.0252122 0.00865616 0.0781769 -0.0776055 0.00644157
-1.0842e-19 0.00478797 0.02625 0.121508 -0.0580454 0.0198443
-1.0842e-19 0.0122876 0.02375 0.111731 -0.0589179 0.0194258
0 -0.005212 0.02625 0.126487 -0.0591062 0.01848
-1.01644e-19 -0.0264641 0.00479744 0.0507733 -0.081471 0.00210268
0 -0.012712 0.02375 0.12475 -0.0616146 0.0164953
6.92449e-20 -0.023962 0.0124878 0.0976758 -0.0726745 0.00990284
0 0.0260223 0.00735219 0.0283059 -0.073702 0.00156274
1.0842e-19 0.0247812 0.0112164 0.0509163 -0.0697861 0.00662064
0 0.0272032 0.00115759 0.0101268 -0.0483171 -0.00265386
0 0.00728791 0.02625 0.12028 -0.0577623 0.0201825
0 0.0197857 0.01875 0.0927605 -0.0617326 0.0164303
2.74227e-20 0.0185364 0.0199993 0.0975831 -0.0609167 0.0173798
-4.37413e-20 0.011038 0.0249999 0.115407 -0.058199 0.0199869
1.0842e-19 -0.007712 0.02625 0.127755 -0.0593456 0.0181364
-6.35275e-21 0.0210376 0.0174989 0.0868368 -0.0627111 0.0151691
0 0.0172867 0.02125 0.102326 -0.0601001 0.0182841
0 0.0272397 0.00352904 0.0121759 -0.0685509 -0.00169069
8.29033e-20 -0.0264618 0.00736533 0.070058 -0.0793043 0.00497692
3.28979e-21 -0.011462 0.025 0.126878 -0.0605908 0.0171332
2.40462e-20 0.001038 0.0275 0.126145 -0.0575909 0.0198927
1.31093e-19 -0.001462 0.0275 0.127364 -0.057853 0.0195284
-1.13044e-19 -0.018962 0.02 0.11915 -0.06504 0.0142817
1.0842e-19 -0.020212 0.01875 0.116718 -0.0661562 0.0136539
-1.0842e-19 0.0222846 0.0162494 0.0808005 -0.0637005 0.0138537
-1.0842e-19 -0.025212 0.0112171 0.0930967 -0.0742322 0.00896298
1.11544e-19 0.0160373 0.0224997 0.106414 -0.0593599 0.0190094
0 -0.017712 0.02125 0.121622 -0.0639278 0.0149321
0 -0.021462 0.0175 0.113875 -0.0673591 0.0129647
-4.17705e-20 0.003538 0.0275 0.124932 -0.057321 0.0202567
1.0842e-19 -0.0277135 0.00116961 0.0235047 -0.0696216 -0.000253196
8.08456e-20 -0.003962 0.0275 0.128592 -0.0581058 0.0191639
-1.69407e-21 0.0260298 0.00994338 0.0424334 -0.0713644 0.00485533
-3.54881e-20 -0.016462 0.0225 0.123847 -0.0628693 0.01555
1.49925e-19 0.0235338 0.014997 0.0734027 -0.0649818 0.0121517
1.0842e-19 0.0272619 0.0060552 0.0209792 -0.0738988 0.000243595
-1.0842e-19 -0.022712 0.0162494 0.111093 -0.0685648 0.0123032
0 0.0279286 0 0 0 0
1.0842e-19 -0.0277131 0.00356909 0.0419737 -0.0820231 0.000818681
0 0.0147874 0.02375 0.110456 -0.0586148 0.0196996
5.42101e-20 0.0279823 0.000421403 0.00372774 -0.0170584 -0.000994626
1.0842e-19 0.00978779 0.02625 0.119056 -0.0574749 0.0205195
8.1651e-21 0.006038 0.0275 0.123726 -0.0570448 0.0206207
0 -0.010212 0.02625 0.129032 -0.0595714 0.0177916
0 -0.015212 0.02375 0.126103 -0.0618154 0.0161883
-9.67102e-20 -0.006462 0.0275 0.129829 -0.0583475 0.0187992
1.47595e-20 -0.023962 0.0149988 0.107609 -0.0699077 0.0115244
1.08354e-19 -0.0264622 0.00994621 0.0867889 -0.0759668 0.0077242
-2.1684e-19 0.0247828 0.0137434 0.0659109 -0.0662894 0.0104126
0 -0.0277125 0.00608242 0.0619973 -0.0809958 0.00355309
5.42101e-20 0.0284251 0 0 0 0
-2.65492e-20 0.0135379 0.0249999 0.114159 -0.0579021 0.0202922
1.35525e-20 0.0284741 0.00227875 0.0106038 -0.0569484 -0.00199758
-1.0842e-19 0.0272718 0.00864862 0.0339887 -0.0728748 0.00318634
-3.54881e-20 -0.013962 0.025 0.128198 -0.0607963 0.0168071
-1.0842e-19 -0.025212 0.0137433 0.104216 -0.0712534 0.0107823
-1.0842e-19 -0.000212006 0.02875 0.129523 -0.0568552 0.020257
8.2321e-21 0.00853794 0.0275 0.122524 -0.0567636 0.0209845
-2.1684e-19 0.00228798 0.02875 0.128332 -0.0565927 0.0206447
4.23516e-22 0.0260327 0.0124876 0.0574773 -0.0679137 0.00848801
-1.0842e-19 -0.002712 0.02875 0.130722 -0.0571091 0.0198699
4.51751e-21 0.0285046 0.00475129 0.0158386 -0.0705727 -0.000450775
-5.42101e-20 0.0288977 0.000401716 0.00338936 -0.0158024 -0.000924737
8.08456e-20 -0.008962 0.0275 0.131076 -0.0585765 0.0184341
0 0.0289345 0 0 0 0
0 -0.0289611 1.97592e-06 2.58247e-05 -7.62378e-05 -2.64375e-07