# U  POINT_DATA 49466
# x  y  z  U_x  U_y  U_z
0 4.18564e-09 1.88991e-09 3.52846e-07 -3.22735e-10 3.39295e-08
-2.06795e-25 0.000325396 0 0 0 0
0 -0.000312499 0.000268959 0.0889581 -9.70027e-05 0.00743676
0 0.0003125 0.000268959 0.0889638 -5.38941e-05 0.00743426
-5.16988e-26 8.2094e-10 0.000441267 0.106092 -7.311e-05 0.00704531
-1.03398e-25 8.7794e-11 0.000537325 0.129186 -8.90251e-05 0.00857897
-4.1359e-25 -0.000624994 2.25501e-09 4.46474e-07 -7.6983e-10 4.29506e-08
0 0.000625 1.74012e-09 3.77415e-07 5.50391e-11 2.7319e-08
7.27014e-26 -0.000624999 0.000538028 0.129196 -0.000226714 0.00858234
0 0.000625001 0.000537326 0.129183 4.87466e-05 0.00857584
2.71051e-20 -0.000312499 0.000800934 0.169204 -0.00016181 0.00971856
2.71051e-20 0.0003125 0.000800934 0.169195 -4.32499e-05 0.00971426
2.71051e-20 -0.000937499 0.000268959 0.0889495 -0.000205378 0.00743971
0 0.0009375 0.000268959 0.0889658 5.36874e-05 0.00743237
3.57301e-20 -9.96447e-10 0.00106275 0.172782 -0.000105203 0.00749454
2.06795e-25 -0.000625001 0.00106275 0.172794 -0.000307142 0.00749819
-4.1359e-25 0.000624999 0.00106275 0.17277 9.70696e-05 0.00749078
0 -0.0009375 0.000800933 0.169213 -0.000442172 0.00972311
0 0.0009375 0.000800933 0.169184 0.000237928 0.00971043
0 -0.00125 2.58917e-09 5.12587e-07 -1.30326e-09 4.93283e-08
-4.1359e-25 0.00125 2.46546e-09 5.49707e-07 5.42037e-10 3.97761e-08
0 -0.000312499 0.00130939 0.176312 -0.000184155 0.0053112
0 0.000312501 0.00130939 0.176299 -3.15064e-05 0.00530781
2.06795e-25 0.00125 0.000537325 0.12918 0.000187413 0.00857291
-3.01405e-20 -0.00125 0.000537324 0.12919 -0.000365884 0.00858618
0 -0.00125 0.000612745 0.13545 -0.000386625 0.00843063
5.40976e-22 -2.4317e-09 0.00155263 0.153425 -0.000109633 0.00216528
-5.42101e-20 0.0015625 0.000268959 0.0889725 9.75043e-05 0.00742981
2.71051e-20 -0.0015625 0.000268959 0.0889464 -0.000250398 0.0074414
0 -0.000937499 0.00130939 0.176325 -0.000440261 0.0053136
0 0.0009375 0.00130939 0.176283 0.000225115 0.00530428
4.1359e-25 0.00125 0.00106275 0.172758 0.00030044 0.00748792
-2.06795e-25 -0.00125 0.00106275 0.172806 -0.000510375 0.00750251
1.77058e-20 -0.000625002 0.00155263 0.15344 -0.000264917 0.00216733
1.68149e-20 0.000624997 0.00155263 0.15341 4.57949e-05 0.00216308
2.71051e-20 0.0015625 0.000800933 0.169175 0.000359354 0.00970702
0 -0.0015625 0.000800933 0.169224 -0.000564134 0.00972841
0 -0.000312498 0.00177922 0.130982 -0.000155211 -0.000919317
-2.71051e-20 0.000312501 0.00177922 0.130966 -6.75904e-05 -0.000920671
-4.1359e-25 0.001875 3.03506e-09 6.76721e-07 1.26177e-09 4.89528e-08
-4.1359e-25 -0.001875 2.8701e-09 5.68168e-07 -1.89678e-09 5.46977e-08
0 0.001875 0.000537326 0.129177 0.0003241 0.00857031
-3.63706e-21 -0.001875 0.000537324 0.129193 -0.000502063 0.00858995
-2.06795e-25 -0.001875 0.000643455 0.138005 -0.000544249 0.00837108
-9.70531e-21 0.00125 0.00155263 0.153397 0.000201694 0.00216208
0 -0.00125 0.00155263 0.153456 -0.000420744 0.00217
0 6.16903e-09 0.002 1.37317e-06 -1.11951e-09 -2.57302e-08
2.71051e-20 -0.000937497 0.00177922 0.130997 -0.000281812 -0.000918199
2.71051e-20 0.000937501 0.00177922 0.13095 5.9074e-05 -0.000921241
-2.71051e-20 0.0015625 0.00130939 0.176271 0.000379303 0.00530358
0 -0.0015625 0.00130939 0.176342 -0.000594694 0.00531862
-8.27181e-25 -0.00062499 0.002 1.40145e-06 -2.29714e-09 -2.6246e-08
0 0.000625006 0.002 1.34532e-06 1.18616e-11 -2.52191e-08
0 0.001875 0.00106275 0.172747 0.000501643 0.00748485
-2.06795e-25 -0.001875 0.00106275 0.17282 -0.000710915 0.00750642
0 -0.0021875 0.000268959 0.0889421 -0.000354627 0.00744503
2.71051e-20 0.0021875 0.000268959 0.0889734 0.000203325 0.00742899
2.71051e-20 0.0021875 0.000800933 0.169164 0.000634387 0.00970339
2.71051e-20 -0.0021875 0.000800933 0.169236 -0.000836991 0.00973285
0 -0.00124998 0.002 1.41624e-06 -3.49026e-09 -2.65037e-08
0 0.00125001 0.002 1.34165e-06 1.11955e-09 -2.51499e-08
5.42101e-20 -0.0015625 0.00177922 0.131018 -0.000369833 -0.000916051
0 0.0015625 0.00177922 0.13094 0.000147055 -0.000920479
2.07548e-20 0.001875 0.00155263 0.153383 0.000357091 0.00216093
0 -0.001875 0.00155263 0.153473 -0.000575659 0.00217223
4.1359e-25 0.0025 3.12649e-09 6.97117e-07 1.92796e-09 5.04143e-08
-4.1359e-25 -0.0025 3.03698e-09 6.01158e-07 -2.4887e-09 5.78967e-08
-2.71051e-20 0.0021875 0.00130939 0.176257 0.000633372 0.00529901
0 -0.0021875 0.00130939 0.176357 -0.000847496 0.00531954
-3.6228e-20 0.0025 0.000537326 0.129174 0.000463601 0.00856772
-1.28067e-20 -0.0025 0.000537324 0.129197 -0.000640304 0.00859362
-1.55096e-25 -0.0025 0.00064455 0.138102 -0.000696185 0.00837252
-2.45784e-20 0.0025 0.00106275 0.172735 0.000705738 0.00748187
0 -0.0025 0.00106275 0.172834 -0.000914131 0.00751019
8.27181e-25 -0.00187498 0.002 1.42284e-06 -4.67862e-09 -2.66099e-08
0 0.00187501 0.002 1.36854e-06 2.275e-09 -2.56519e-08
0 -0.0021875 0.00177922 0.13103 -0.000496064 -0.0009152
0 0.0021875 0.00177922 0.130923 0.000274232 -0.000920646
0 0.0028125 0.000268959 0.0889782 0.000250875 0.00742645
2.71051e-20 -0.0028125 0.000268959 0.0889384 -0.000400936 0.00744685
0 -0.0028125 0.000800933 0.169248 -0.000965897 0.00973766
0 0.0028125 0.000800933 0.169156 0.000763325 0.00970003
-8.54643e-21 0.0025 0.00155263 0.15337 0.000513647 0.00215995
0 -0.0025 0.00155263 0.153489 -0.000731443 0.00217448
0 0.0028125 0.00130939 0.176245 0.000791641 0.00529866
5.42101e-20 -0.0028125 0.00130939 0.176374 -0.00100572 0.00532447
-4.1359e-25 -0.003125 3.07354e-09 6.37305e-07 -3.14377e-09 6.14044e-08
0 0.003125 2.74434e-09 6.41062e-07 2.34237e-09 4.63481e-08
0 0.003125 0.000537325 0.129172 0.000600661 0.00856543
0 -0.003125 0.000537325 0.1292 -0.000775982 0.00859759
5.16988e-26 -0.003125 0.000585069 0.133166 -0.000806669 0.00849917
8.27181e-25 -0.00249999 0.002 1.42596e-06 -5.86165e-09 -2.66496e-08
0 0.00250001 0.002 1.40725e-06 3.50799e-09 -2.63735e-08
4.1359e-25 0.003125 0.00106275 0.172725 0.000906519 0.00747929
-2.06795e-25 -0.003125 0.00106275 0.172848 -0.0011137 0.00751446
2.71051e-20 -0.0028125 0.00177922 0.131052 -0.000583809 -0.000912843
2.71051e-20 0.0028125 0.00177922 0.130914 0.000362798 -0.000919523
-2.71051e-20 0.0034375 0.000268959 0.0889813 0.000354813 0.00742592
0 -0.0034375 0.000268959 0.0889311 -0.000503189 0.00745076
0 -0.00344352 0.000537325 0.129202 -0.00084635 0.00859972
0 0.003125 0.00155263 0.153358 0.000668453 0.00215912
0 -0.003125 0.00155263 0.153506 -0.0008851 0.00217704
5.42101e-20 0.0034375 0.000800933 0.169147 0.0010305 0.00969732
2.71051e-20 -0.0034375 0.000800934 0.169259 -0.00123049 0.00974299
-2.06795e-25 0.00359328 0 0 0 0
2.71051e-20 0.0034375 0.00130939 0.176233 0.0010403 0.00529473
2.71051e-20 -0.0034375 0.00130939 0.176389 -0.00125219 0.00532652
5.16988e-26 -0.00370589 0 0 0 0
0 -0.00312499 0.002 1.40181e-06 -6.90279e-09 -2.61798e-08
0 0.00312502 0.002 1.42591e-06 4.72961e-09 -2.67195e-08
0 0.00375 9.18467e-10 1.85843e-07 7.35747e-10 1.78408e-08
-5.16988e-26 -0.00375 2.33397e-10 5.31414e-08 -3.2335e-10 3.85848e-09
1.03398e-25 0.00375 0.000283573 0.0681692 0.000390549 0.00451928
0 0.00375 0.000537325 0.129169 0.000740025 0.00856329
0 -0.00375 0.000537325 0.129204 -0.000914058 0.00860176
-2.06795e-25 -0.00380584 0 0 0 0
0 -0.0034375 0.00177922 0.131067 -0.000707826 -0.00091193
2.71051e-20 0.0034375 0.00177922 0.130898 0.00048836 -0.000919752
0 0.00375 0.00106275 0.172715 0.00111062 0.00747686
-2.06795e-25 -0.00375 0.00106275 0.172862 -0.00131623 0.007519
8.27181e-25 0.00375 0.00155263 0.153347 0.00082516 0.00215839
0 -0.00375 0.00155263 0.153525 -0.00104034 0.00217969
-2.71051e-20 -0.0040625 0.000268959 0.0889279 -0.000551986 0.00745278
2.71051e-20 0.0040625 0.000268959 0.0889871 0.000403992 0.00742367
0 0.0040625 0.000800933 0.169138 0.001167 0.00969425
2.71051e-20 -0.0040625 0.000800933 0.169271 -0.0013665 0.00974839
0 -0.00375 0.002 1.30878e-06 -7.51762e-09 -2.44253e-08
8.27181e-25 0.00375002 0.002 1.41945e-06 5.88898e-09 -2.6594e-08
0 0.0040625 0.00130939 0.176221 0.00120428 0.0052947
2.71051e-20 -0.0040625 0.00130939 0.176408 -0.00141515 0.00533191
0 -0.004375 2.37901e-09 4.6725e-07 -3.04715e-09 4.50593e-08
2.06795e-25 0.004375 1.4914e-09 2.87421e-07 1.37392e-09 2.75867e-08
-5.16988e-26 0.004375 0.000427651 0.102803 0.000697619 0.00681373
0 -0.004375 0.000475997 0.11446 -0.000929156 0.00762375
5.16988e-26 0.004375 0.000537324 0.129167 0.000876527 0.00856113
0 -0.004375 0.000537324 0.129207 -0.00104887 0.00860598
-2.71051e-20 -0.0040625 0.00177922 0.131091 -0.000797188 -0.000909621
-2.71051e-20 0.0040625 0.00177922 0.130892 0.000578847 -0.000918524
0 0.004375 0.00106275 0.172705 0.0013111 0.00747439
-2.06795e-25 -0.004375 0.00106275 0.172877 -0.001515 0.00752362
0 0.004375 0.00155263 0.153336 0.000979959 0.00215771
0 -0.004375 0.00155263 0.153543 -0.00119345 0.00218244
-5.42101e-20 -0.0046875 0.000268959 0.0889215 -0.000650142 0.00745678
0 0.0046875 0.000268959 0.0889903 0.000505032 0.00742333
2.71051e-20 0.0046875 0.000800933 0.16913 0.00142564 0.00969128
0 -0.0046875 0.000800933 0.169283 -0.00162213 0.00975385
2.06795e-25 -0.00480155 0 0 0 0
0 -0.004375 0.002 1.1932e-06 -7.81998e-09 -2.22518e-08
0 0.00437502 0.002 1.40955e-06 7.01088e-09 -2.64035e-08
0 -0.0046875 0.00130939 0.176424 -0.00165555 0.00533418
2.71051e-20 0.0046875 0.00130939 0.17621 0.001447 0.0052909
0 0.005 1.88412e-09 3.63134e-07 2.02661e-09 3.48466e-08
0 -0.005 1.10679e-09 2.51988e-07 -1.97232e-09 1.83146e-08
-2.71051e-20 -0.0046875 0.00177922 0.131108 -0.000918716 -0.000908563
0 0.0046875 0.00177922 0.130878 0.000702671 -0.000918662
0 0.005 0.000475235 0.114241 0.000898291 0.0075701
0 -0.005 0.000537324 0.12921 -0.00118581 0.00861031
0 0.005 0.000537324 0.129166 0.00101565 0.00855912
0 0.005 0.00106275 0.172696 0.00151453 0.00747191
0 -0.005 0.00106275 0.172891 -0.00171639 0.00752827
0 0.005 0.00155263 0.153326 0.00113628 0.00215692
-4.1359e-25 -0.005 0.00155263 0.153562 -0.00134791 0.00218521
3.10193e-25 -0.0052374 0 0 0 0
0 -0.0053125 0.000268959 0.088917 -0.000701112 0.00745918
0 0.0053125 0.000268959 0.0889961 0.000557395 0.00742133
0 -0.0053125 0.000800933 0.169295 -0.0017645 0.00975928
0 0.0053125 0.000800933 0.169124 0.00156944 0.00968856
0 -0.005 0.002 2.34227e-07 -1.72597e-09 -4.36482e-09
0 0.00500002 0.002 1.37601e-06 7.98827e-09 -2.57707e-08
0 0.0053125 0.00130939 0.176201 0.00161549 0.00529043
-2.71051e-20 -0.0053125 0.00130939 0.176442 -0.0018226 0.00533964
5.42101e-20 -0.0053125 0.00177922 0.131132 -0.00100944 -0.000906237
0 0.0053125 0.00177922 0.130872 0.000794775 -0.000917442
0 0.005625 1.97865e-09 3.69645e-07 2.35214e-09 3.54651e-08
-4.1359e-25 -0.005625 1.80704e-09 3.37098e-07 -2.73101e-09 3.25392e-08
5.16988e-26 0.005625 0.000452329 0.108733 0.000969928 0.00720365
0 -0.005625 0.000459045 0.110389 -0.00112799 0.00735968
-5.16988e-26 0.005625 0.000537324 0.129165 0.00115218 0.00855726
0 -0.005625 0.000537324 0.129214 -0.00132035 0.00861469
0 0.005625 0.00106275 0.172688 0.00171465 0.00746973
0 -0.005625 0.00106275 0.172906 -0.00191426 0.0075331
0 0.005625 0.00155263 0.153317 0.00129049 0.00215635
4.1359e-25 -0.005625 0.00155263 0.153582 -0.00150017 0.0021881
-2.71051e-20 -0.0059375 0.000268959 0.0889098 -0.000797407 0.0074632
-2.71051e-20 0.0059375 0.000268959 0.0889993 0.000655654 0.00742104
0 0.005625 0.002 1.28641e-06 8.52378e-09 -2.40877e-08
0 -0.005625 0.002 1.24189e-06 -1.01505e-08 -2.31253e-08
0 -0.0059375 0.000800933 0.169308 -0.00201236 0.00976495
5.42101e-20 0.0059375 0.000800933 0.169117 0.00182049 0.00968611
-2.06795e-25 0.00603562 0 0 0 0
2.71051e-20 -0.0059375 0.00130939 0.176459 -0.00205672 0.00534242
0 0.0059375 0.00130939 0.17619 0.00185252 0.00528735
2.71051e-20 -0.0059375 0.00177922 0.131151 -0.00112839 -0.000905176
-2.71051e-20 0.0059375 0.00177922 0.13086 0.000915825 -0.000917487
0 -0.00625 1.73527e-09 3.33959e-07 -2.96387e-09 3.2251e-08
0 0.00625 1.03302e-09 2.35311e-07 1.91406e-09 1.69926e-08
-2.58494e-26 -0.00625 0.00048138 0.115764 -0.00130511 0.00772179
0 0.00625 0.000537324 0.129164 0.00129061 0.00855559
-5.16988e-26 -0.00625 0.000537324 0.129218 -0.00145679 0.00861918
0 0.00625 0.00106275 0.17268 0.00191716 0.00746779
0 -0.00625 0.00106275 0.172922 -0.00211425 0.00753796
0 0.00643483 0 0 0 0
0 0.00625 0.00155263 0.153308 0.00144608 0.00215586
0 -0.00625 0.00155263 0.153601 -0.00165346 0.00219093
0 -0.00624999 0.002 1.31872e-06 -1.18451e-08 -2.45383e-08
0 0.00625001 0.002 1.2165e-06 9.06666e-09 -2.27743e-08
2.71051e-20 -0.0065625 0.000268959 0.0889073 -0.000850585 0.0074657
2.71051e-20 0.0065625 0.000268959 0.0890053 0.00070985 0.00741939
-2.71051e-20 0.0065625 0.000800933 0.169111 0.00197005 0.00968384
2.71051e-20 -0.0065625 0.000800933 0.169322 -0.00216014 0.0097707
2.71051e-20 0.0065625 0.00130939 0.176183 0.00202488 0.00528735
0 -0.0065625 0.00130939 0.176479 -0.00222685 0.00534769
0 -0.0065625 0.00177922 0.131174 -0.00122019 -0.000902941
2.71051e-20 0.0065625 0.00177922 0.130856 0.00100956 -0.00091634
0 0.006875 2.46002e-09 4.97935e-07 3.99039e-09 4.77584e-08
2.06795e-25 -0.006875 1.5666e-09 3.16548e-07 -3.05019e-09 3.05835e-08
0 -0.006875 0.000444085 0.106799 -0.00131428 0.00712726
-2.58494e-26 0.006875 0.000496296 0.119301 0.00131754 0.00790091
5.16988e-26 -0.006875 0.000537324 0.129223 -0.00159022 0.00862368
0 0.006875 0.000537324 0.129163 0.00142646 0.00855406
0 0.006875 0.00106275 0.172673 0.00211655 0.00746606
2.06795e-25 -0.006875 0.00106275 0.172938 -0.00231089 0.00754287
8.27181e-25 -0.006875 0.00155263 0.153622 -0.00180468 0.00219379
4.1359e-25 0.006875 0.00155263 0.1533 0.00159987 0.00215554
0 -0.00687498 0.002 1.36627e-06 -1.33619e-08 -2.5404e-08
0 0.00687501 0.002 1.25053e-06 1.03445e-08 -2.34061e-08
-1.03398e-25 -0.00718784 0 0 0 0
0 0.0071875 0.000268959 0.0890072 0.000805174 0.00741925
2.71051e-20 -0.0071875 0.000268959 0.0889015 -0.000942765 0.00746962
0 0.00719922 0.000537324 0.129162 0.00149788 0.00855335
0 -0.0071875 0.000800933 0.169335 -0.00240009 0.00977654
2.71051e-20 0.0071875 0.000800933 0.169104 0.00221372 0.00968179
0 -0.0071875 0.00130939 0.176497 -0.00245548 0.00535051
0 0.0071875 0.00130939 0.176173 0.00225676 0.00528475
-2.71051e-20 -0.0071875 0.00177922 0.131194 -0.00133632 -0.000901773
0 0.0071875 0.00177922 0.130846 0.00112855 -0.000916194
-4.1359e-25 0.0075 3.01477e-09 5.97456e-07 5.24944e-09 5.72966e-08
0 -0.0075 1.56323e-09 3.64993e-07 -4.12951e-09 2.65834e-08
1.03398e-25 -0.0075 0.000537325 0.129227 -0.00172479 0.0086283
0 0.0075 0.000537324 0.129162 0.00156414 0.00855269
-2.58494e-26 0.0075 0.000601631 0.134486 0.0016564 0.00841949
0 -0.0075 0.00106275 0.172955 -0.00250913 0.00754786
0 0.0075 0.00106275 0.172666 0.00231794 0.00746439
0 -0.0075 0.00155263 0.153643 -0.00195664 0.00219669
0 0.0075 0.00155263 0.153293 0.00175471 0.00215521
0 -0.00749998 0.002 1.40393e-06 -1.48525e-08 -2.60846e-08
0 0.00750002 0.002 1.33321e-06 1.21268e-08 -2.49477e-08
-2.71051e-20 -0.0078125 0.000268959 0.0888978 -0.000996556 0.00747238
0 0.0078125 0.000268959 0.0890126 0.00086168 0.00741792
0 0.0078125 0.000800933 0.1691 0.00236829 0.00967984
-2.71051e-20 -0.0078125 0.000800933 0.169349 -0.00255178 0.00978246
2.71051e-20 -0.0078125 0.00130939 0.176517 -0.00262808 0.00535593
2.71051e-20 0.0078125 0.00130939 0.176166 0.0024321 0.00528469
0 -0.0078125 0.00177922 0.131219 -0.00142862 -0.000899527
-2.71051e-20 0.0078125 0.00177922 0.130843 0.00122352 -0.000915043
0 0.008125 3.31891e-09 6.57767e-07 6.30418e-09 6.3073e-08
0 -0.008125 1.18008e-09 2.55845e-07 -3.10012e-09 1.86435e-08
2.50714e-20 0.008125 0.000537324 0.129161 0.00169955 0.00855148
0 -0.008125 0.000537324 0.129231 -0.00185691 0.00863302
5.16988e-26 0.008125 0.000675356 0.140589 0.00191416 0.00826552
2.06795e-25 -0.008125 0.00106275 0.172971 -0.00270428 0.00755305
0 0.008125 0.00106275 0.17266 0.00251646 0.00746295
0 -0.008125 0.00155263 0.153664 -0.00210662 0.00219974
8.27181e-25 0.008125 0.00155263 0.153286 0.00190771 0.00215499
-4.1359e-25 -0.00831693 0 0 0 0
8.27181e-25 -0.00812498 0.002 1.43938e-06 -1.6363e-08 -2.67224e-08
0 0.00812501 0.002 1.38454e-06 1.37215e-08 -2.59018e-08
-2.71051e-20 -0.0084375 0.000268959 0.0888911 -0.00108597 0.00747647
-5.42101e-20 0.0084375 0.000268959 0.0890144 0.000954434 0.00741791
2.71051e-20 -0.0084375 0.000800933 0.169362 -0.00278473 0.00978858
2.71051e-20 0.0084375 0.000800933 0.169094 0.00260546 0.00967829
2.71051e-20 -0.0084375 0.00130939 0.176536 -0.00285132 0.00535925
2.71051e-20 0.0084375 0.00130939 0.176159 0.00265901 0.00528247
-2.71051e-20 -0.0084375 0.00177922 0.131241 -0.00154217 -0.000898281
0 0.0084375 0.00177922 0.130835 0.00134013 -0.000914833
-1.9387e-26 -0.00872439 0.000537324 0.129235 -0.00198476 0.00863771
8.27181e-25 0.00875 3.4154e-09 6.7692e-07 7.03185e-09 6.49039e-08
0 -0.00875 2.66276e-09 5.12271e-07 -6.14968e-09 4.95704e-08
-8.82933e-21 0.00875 0.000537325 0.12916 0.00183628 0.00855051
-1.65089e-20 -0.00875 0.000537324 0.129236 -0.00199023 0.00863791
5.16988e-26 -0.00875 0.000544053 0.129796 -0.00200189 0.00862409
0 0.00875 0.000721296 0.144389 0.00214449 0.00816932
2.06795e-25 -0.00875 0.00106275 0.172988 -0.00290067 0.00755839
0 0.00875 0.00106275 0.172654 0.00271654 0.00746182
0 -0.00875 0.00155263 0.153686 -0.00225712 0.00220284
8.27181e-25 0.00875 0.00155263 0.153281 0.0020615 0.00215492
0 -0.00874999 0.002 1.45463e-06 -1.76864e-08 -2.69851e-08
0 0.00875001 0.002 1.40228e-06 1.50439e-08 -2.62268e-08
-8.13152e-20 0.0090625 0.000268959 0.0890184 0.00101229 0.00741693
2.71051e-20 -0.0090625 0.000268959 0.0888869 -0.00114117 0.00747953
2.71051e-20 -0.0090625 0.000800933 0.169377 -0.00293979 0.00979485
0 0.0090625 0.000800933 0.16909 0.00276393 0.00967698
5.42101e-20 -0.0090625 0.00130939 0.176557 -0.00302558 0.00536493
2.71051e-20 0.0090625 0.00130939 0.176154 0.00283669 0.00528301
0 -0.0090625 0.00177922 0.131268 -0.00163494 -0.000896089
5.42101e-20 0.0090625 0.00177922 0.130834 0.00143591 -0.000913661
-8.27181e-25 -0.009375 3.41999e-09 6.76289e-07 -8.61517e-09 6.54753e-08
0 0.009375 3.38892e-09 6.71701e-07 7.51097e-09 6.43992e-08
4.53481e-21 0.009375 0.000537325 0.129159 0.00197095 0.00854968
3.71354e-20 -0.009375 0.000537325 0.12924 -0.00212132 0.00864285
1.03398e-25 -0.009375 0.000657842 0.139278 -0.00234447 0.00839535
-1.03398e-25 0.009375 0.000733189 0.145371 0.00232246 0.0081438
-2.06795e-25 -0.009375 0.00106275 0.173005 -0.0030942 0.00756381
-2.06795e-25 0.009375 0.00106275 0.172649 0.00291392 0.00746087
8.27181e-25 -0.009375 0.00155263 0.153708 -0.0024058 0.00220601
-4.1359e-25 0.009375 0.00155263 0.153277 0.00221374 0.00215503
-8.27181e-25 -0.00937499 0.002 1.4423e-06 -1.86637e-08 -2.67354e-08
8.27181e-25 0.00937502 0.002 1.4031e-06 1.61909e-08 -2.62344e-08
2.71051e-20 -0.0096875 0.000268959 0.0888804 -0.00122818 0.00748369
-2.71051e-20 0.0096875 0.000268959 0.0890201 0.00110301 0.00741718
-2.71051e-20 0.0096875 0.000800933 0.169085 0.00299493 0.00967567
0 -0.0096875 0.000800933 0.16939 -0.00316628 0.00980107
-2.71051e-20 -0.0096875 0.00130939 0.176576 -0.00324377 0.00536845
2.71051e-20 0.0096875 0.00130939 0.176147 0.00305899 0.00528129
0 -0.0096875 0.00177922 0.13129 -0.00174624 -0.00089472
2.71051e-20 0.0096875 0.00177922 0.130828 0.00155088 -0.000913267
0 -0.01 3.84591e-09 7.60434e-07 -1.02671e-08 7.36617e-08
4.1359e-25 0.01 3.10988e-09 6.1642e-07 7.38729e-09 5.90964e-08
-2.69368e-20 0.01 0.000537325 0.129158 0.00210683 0.00854905
-1.66121e-20 -0.01 0.000537325 0.129244 -0.00225334 0.00864788
-1.03398e-25 -0.01 0.000705515 0.143258 -0.00258472 0.00830262
-1.03398e-25 0.01 0.000715197 0.14388 0.00244726 0.00818039
0 -0.01 0.00106275 0.173022 -0.00328857 0.00756929
-2.06795e-25 0.01 0.00106275 0.172644 0.00311246 0.00746006
0 -0.01 0.00155263 0.153731 -0.00255471 0.00220917
8.27181e-25 0.01 0.00155263 0.153272 0.00236648 0.00215513
-8.27181e-25 -0.00999999 0.002 1.40852e-06 -1.93276e-08 -2.60889e-08
0 0.01 0.002 1.3947e-06 1.72288e-08 -2.60695e-08
5.42101e-20 -0.0103125 0.000268959 0.0888755 -0.0012845 0.00748686
5.42101e-20 0.0103125 0.000268959 0.0890238 0.00116251 0.0074165
-2.71051e-20 -0.0103125 0.000800933 0.169405 -0.00332389 0.00980766
2.71051e-20 0.0103125 0.000800933 0.169082 0.00315659 0.0096749
2.71051e-20 0.0103125 0.00130939 0.176143 0.00323811 0.00528185
5.42101e-20 -0.0103125 0.00130939 0.176597 -0.00341891 0.00537409
2.71051e-20 0.0103125 0.00177922 0.130828 0.00164726 -0.000912081
5.42101e-20 -0.0103125 0.00177922 0.131317 -0.00183904 -0.000892554
0 -0.010625 3.859e-09 7.62941e-07 -1.08743e-08 7.39443e-08
0 0.010625 2.71477e-09 5.23482e-07 6.66919e-09 5.01844e-08
1.97464e-20 -0.010625 0.000537325 0.129248 -0.00238329 0.00865297
3.2301e-20 0.010625 0.000537324 0.129158 0.00224076 0.00854857
5.16988e-26 0.010625 0.00064136 0.137768 0.00245219 0.00833293
1.03398e-25 -0.010625 0.000713693 0.143948 -0.00275151 0.0082911
-2.06795e-25 0.010625 0.00106275 0.17264 0.00330855 0.0074595
2.06795e-25 -0.010625 0.00106275 0.17304 -0.00348028 0.00757491
4.1359e-25 0.010625 0.00155263 0.153269 0.00251767 0.00215538
-4.1359e-25 -0.010625 0.00155263 0.153754 -0.00270187 0.00221243
0 0.010625 0.002 1.38624e-06 1.8241e-08 -2.59032e-08
0 -0.010625 0.002 1.37555e-06 -1.99373e-08 -2.5458e-08
2.71051e-20 0.0109375 0.000268959 0.0890255 0.00125104 0.00741684
0 -0.0109375 0.000268959 0.0888687 -0.00136922 0.00749096
2.71051e-20 -0.0109375 0.000800933 0.169418 -0.0035444 0.00981411
2.71051e-20 0.0109375 0.000800933 0.169078 0.003382 0.0096741
-2.71051e-20 -0.0109375 0.00130939 0.176617 -0.00363239 0.00537793
0 0.0109375 0.00130939 0.176138 0.0034562 0.00528059
0 0.0109375 0.00177922 0.130825 0.0017602 -0.000911632
2.71051e-20 -0.0109375 0.00177922 0.13134 -0.00194802 -0.000891131
-2.58494e-25 0.0111652 0 0 0 0
0 -0.01125 5.75756e-10 1.13819e-07 -1.70784e-09 1.10372e-08
0 0.01125 4.26441e-10 9.44041e-08 1.42731e-09 6.81101e-09
0 0.01125 0.000518313 0.124589 0.00229135 0.00824578
-1.25575e-20 -0.01125 0.000537325 0.129253 -0.00251371 0.00865808
-3.23117e-27 0.01125 0.000537324 0.129158 0.00237539 0.00854823
-9.37041e-26 0.01125 0.000543682 0.129685 0.00238907 0.00853505
1.03398e-25 -0.01125 0.000709323 0.143593 -0.00289305 0.00830534
0 0.01125 0.00106275 0.172637 0.00350544 0.00745901
0 -0.01125 0.00106275 0.173058 -0.00367251 0.00758051
-2.06795e-25 0.0113285 0 0 0 0
0 0.01125 0.00155263 0.153267 0.00266918 0.00215563
4.1359e-25 -0.01125 0.00155263 0.153777 -0.0028491 0.00221564
0 0.01125 0.002 1.38367e-06 1.93232e-08 -2.5847e-08
8.27181e-25 -0.01125 0.002 1.36331e-06 -2.08115e-08 -2.52116e-08
0 0.0115625 0.000268959 0.0890299 0.00131116 0.00741645
0 -0.0115625 0.000268959 0.0888655 -0.00142587 0.0074942
0 0.0115625 0.000800933 0.169077 0.00354583 0.00967361
2.71051e-20 -0.0115625 0.000800933 0.169435 -0.00370361 0.00982075
-2.71051e-20 0.0115625 0.00130939 0.176136 0.00363633 0.00528117
0 -0.0115625 0.00130939 0.176639 -0.00380802 0.00538343
2.71051e-20 0.0115625 0.00177922 0.130827 0.00185685 -0.000910416
2.71051e-20 -0.0115625 0.00177922 0.131368 -0.00204062 -0.000888988
0 0.0118072 0.000537324 0.129158 0.00249365 0.00854809
0 -0.011875 3.61699e-09 7.14965e-07 -1.12531e-08 6.93682e-08
0 0.011875 2.96792e-09 6.0096e-07 8.64551e-09 5.76105e-08
0 0.011875 0.000537324 0.129144 0.00250778 0.00854714
-2.65005e-20 -0.011875 0.000537325 0.129258 -0.00264182 0.00866322
-5.16988e-26 -0.011875 0.000741806 0.146311 -0.00311673 0.00824407
4.03897e-27 0.0118891 0.000537324 0.129158 0.00251105 0.00854808
0 0.011875 0.00106275 0.172634 0.0036999 0.00745877
-2.06795e-25 -0.011875 0.00106275 0.173076 -0.00386213 0.00758618
0 0.011875 0.00155263 0.153266 0.00281917 0.00215604
0 -0.011875 0.00155263 0.153801 -0.00299462 0.00221889
0 0.011875 0.002 1.38893e-06 2.05064e-08 -2.59364e-08
8.27181e-25 -0.011875 0.002 1.36976e-06 -2.19531e-08 -2.53104e-08
0 -0.0121875 0.000268959 0.0888589 -0.00150734 0.00749829
0 0.0121875 0.000268959 0.0890306 0.00139734 0.00741699
0 0.0121875 0.000800933 0.169073 0.00376572 0.00967333
0 -0.0121875 0.000800933 0.169448 -0.0039181 0.00982734
-2.71051e-20 0.0121875 0.00130939 0.176132 0.00385026 0.00528041
0 -0.0121875 0.00130939 0.17666 -0.00401708 0.0053874
-2.71051e-20 -0.0121875 0.00177922 0.131392 -0.00214716 -0.000887522
-2.71051e-20 0.0121875 0.00177922 0.130826 0.0019679 -0.000909825
0 -0.0125 3.636e-09 7.18653e-07 -1.18385e-08 6.97643e-08
2.58494e-26 0.0125 1.91769e-10 3.8017e-08 5.7548e-10 3.64452e-09
1.21809e-20 -0.0125 0.000537325 0.129263 -0.00277017 0.00866843
0 0.0125 0.000537325 0.129159 0.00264133 0.00854812
5.16988e-26 0.0125 0.000568104 0.131705 0.00271476 0.0084843
-1.03398e-25 -0.0125 0.000751933 0.147166 -0.0032937 0.00822872
2.06795e-25 0.0125 0.00106275 0.172632 0.00389486 0.00745873
0 -0.0125 0.00106275 0.173094 -0.00405192 0.00759189
0 0.0125 0.00155263 0.153265 0.00296925 0.00215653
0 -0.0125 0.00155263 0.153825 -0.00313994 0.00222218
0 0.0125 0.002 1.39841e-06 2.17634e-08 -2.61044e-08
0 -0.0125 0.002 1.38475e-06 -2.32447e-08 -2.55671e-08
-5.42101e-20 0.0128125 0.000268959 0.0890348 0.00145832 0.00741692
0 -0.0128125 0.000268959 0.0888551 -0.00156403 0.00750177
2.71051e-20 -0.0128125 0.000800933 0.169464 -0.00407821 0.00983398
0 0.0128125 0.000800934 0.169073 0.00393116 0.0096733
0 0.0128125 0.00130939 0.176132 0.00403077 0.00528133
-2.71051e-20 -0.0128125 0.00130939 0.176683 -0.0041925 0.00539306
2.71051e-20 -0.0128125 0.00177922 0.13142 -0.0022392 -0.000885413
0 0.0128125 0.00177922 0.130828 0.00206448 -0.000908629
-8.27181e-25 0.013125 3.40077e-09 6.74203e-07 1.07274e-08 6.4635e-08
-4.1359e-25 -0.013125 3.11795e-09 6.16199e-07 -1.05964e-08 5.98519e-08
-5.36023e-21 -0.013125 0.000537324 0.129268 -0.00289659 0.00867367
1.07052e-20 0.013125 0.000537325 0.129159 0.00277271 0.00854832
0 0.013125 0.00064427 0.138008 0.00304033 0.00832658
1.55096e-25 -0.013125 0.000688444 0.141879 -0.00328273 0.00836421
0 0.013125 0.00106275 0.172631 0.00408751 0.0074589
2.06795e-25 -0.013125 0.00106275 0.173113 -0.00423916 0.00759769
0 0.013125 0.00155263 0.153266 0.0031178 0.00215713
8.27181e-25 -0.013125 0.00155263 0.153849 -0.00328355 0.00222555
0 0.013125 0.002 1.40554e-06 2.29855e-08 -2.62277e-08
8.27181e-25 -0.013125 0.002 1.40752e-06 -2.4683e-08 -2.59666e-08
0 0.0134375 0.000268959 0.0890354 0.0015421 0.00741768
-5.42101e-20 -0.0134375 0.000268959 0.0888484 -0.00164335 0.00750596
0 -0.0134375 0.000800933 0.169479 -0.00428713 0.00984066
-2.71051e-20 0.0134375 0.000800933 0.169071 0.00414587 0.00967345
0 -0.0134375 0.00130939 0.176703 -0.00439693 0.00539731
5.42101e-20 0.0134375 0.00130939 0.17613 0.00424062 0.00528095
5.42101e-20 -0.0134375 0.00177922 0.131446 -0.0023435 -0.000883897
0 0.0134375 0.00177922 0.13083 0.00217347 -0.000907959
8.27181e-25 0.01375 3.54584e-09 7.02979e-07 1.17291e-08 6.7398e-08
4.1359e-25 -0.01375 2.12214e-09 4.19354e-07 -7.51489e-09 4.07553e-08
3.62485e-20 0.01375 0.000537325 0.12916 0.00290434 0.00854875
-8.28012e-21 -0.01375 0.000537324 0.129273 -0.00302316 0.00867903
2.90806e-26 -0.01375 0.000545943 0.129993 -0.00304618 0.00866139
5.16988e-26 0.01375 0.000717791 0.14409 0.00337695 0.00817458
-2.06795e-25 -0.01375 0.00106275 0.173131 -0.00442632 0.00760357
0 0.01375 0.00106275 0.17263 0.00428033 0.00745934
-3.23117e-27 -0.0137867 0.000537324 0.129273 -0.00303047 0.00867935
8.27181e-25 -0.01375 0.00155263 0.153873 -0.00342684 0.00222892
0 0.01375 0.00155263 0.153267 0.00326622 0.00215789
0 -0.01375 0.002 1.43834e-06 -2.62987e-08 -2.65139e-08
0 0.01375 0.002 1.40768e-06 2.41313e-08 -2.62575e-08
2.71051e-20 -0.0140625 0.000268959 0.088844 -0.00170029 0.00750955
0 0.0140625 0.000268959 0.0890379 0.00160321 0.00741797
-2.71051e-20 -0.0140625 0.000800933 0.169495 -0.00444763 0.00984761
-2.71051e-20 0.0140625 0.000800933 0.169071 0.00431215 0.00967398
0 -0.0140625 0.00130939 0.176726 -0.00457166 0.005403
0 0.0140625 0.00130939 0.17613 0.00442098 0.00528241
-5.42101e-20 -0.0140625 0.00177922 0.131474 -0.00243491 -0.000881819
0 0.0140625 0.00177922 0.130835 0.00226972 -0.00090671
0 0.014375 3.7675e-09 7.46934e-07 1.30342e-08 7.16187e-08
2.06795e-25 -0.014375 1.49636e-09 2.87621e-07 -5.34978e-09 2.7968e-08
0 -0.014375 0.000427154 0.102772 -0.00250238 0.00690384
2.24612e-20 0.014375 0.000537325 0.12916 0.0030343 0.00854937
0 -0.014375 0.000537324 0.129278 -0.00314779 0.00868445
1.03398e-25 0.014375 0.000755837 0.147238 0.00363175 0.00809634
0 -0.014375 0.00106275 0.17315 -0.0046111 0.00760953
0 0.014375 0.00106275 0.17263 0.0044709 0.00746004
-8.27181e-25 -0.014375 0.00155263 0.153898 -0.00356846 0.00223232
0 0.014375 0.00155263 0.153269 0.00341322 0.00215881
0 -0.014375 0.002 1.4594e-06 -2.77612e-08 -2.68804e-08
0 0.014375 0.002 1.40859e-06 2.52491e-08 -2.62639e-08
0 0.0146875 0.000268959 0.089038 0.0016853 0.00741905
0 -0.0146875 0.000268959 0.0888376 -0.00177712 0.00751378
-2.71051e-20 0.0146875 0.000800933 0.16907 0.00452189 0.00967455
0 -0.0146875 0.000800933 0.16951 -0.00465128 0.0098545
0 -0.0146875 0.00130939 0.176748 -0.00477179 0.00540735
-2.71051e-20 0.0146875 0.00130939 0.17613 0.00462678 0.00528262
-2.71051e-20 0.0146875 0.00177922 0.130839 0.00237705 -0.00090595
2.71051e-20 -0.0146875 0.00177922 0.1315 -0.00253683 -0.000880246
0 0.015 3.93871e-09 7.80883e-07 1.4227e-08 7.48827e-08
0 -0.015 1.62451e-09 3.12219e-07 -6.03079e-09 3.03776e-08
5.16988e-26 -0.015 0.000410974 0.0988826 -0.00250286 0.00664654
1.90446e-20 0.015 0.000537325 0.12916 0.00316454 0.00855024
0 -0.015 0.000537324 0.129283 -0.00327234 0.00868994
-1.03398e-25 0.015 0.000777991 0.149072 0.00385016 0.00805131
0 -0.015 0.00106275 0.173169 -0.00479562 0.0076156
0 0.015 0.00106275 0.172631 0.00466139 0.00746096
0 -0.015 0.00155263 0.153923 -0.0037096 0.0022358
-8.27181e-25 0.015 0.00155263 0.153273 0.00355995 0.0021598
0 -0.015 0.002 1.45193e-06 -2.86852e-08 -2.67211e-08
8.27181e-25 0.015 0.002 1.41241e-06 2.64206e-08 -2.6324e-08
0 0.0153125 0.000268959 0.0890396 0.00174709 0.00741966
-2.71051e-20 -0.0153125 0.000268959 0.0888324 -0.00183378 0.00751752
2.71051e-20 0.0153125 0.000800933 0.169071 0.00468861 0.00967577
2.71051e-20 -0.0153125 0.000800933 0.169525 -0.00481172 0.00986158