# k  POINT_DATA 14060
# x  y  z  k
4.06576e-20 0.0106418 6.54156e-08 5.89787e-10
-4.06576e-20 -0.0106418 6.54156e-08 1.05855e-06
0 -0.0106418 0.000314253 1.14496e-06
1.69407e-21 0.0106418 0.000314436 7.14586e-10
-1.01644e-20 -0.0106418 0.000346253 1.16262e-06
-3.38813e-21 0.0106418 0.000346447 7.20088e-10
0 -0.0106418 0.000664285 1.44886e-06
2.71051e-20 0.0106418 0.000664666 6.93488e-10
-1.69407e-21 0.0106696 0.000329843 7.22405e-10
0 -0.0106696 0.000329653 1.14843e-06
-5.0822e-21 -0.0106418 0.000994701 2.00705e-06
-1.69407e-21 0.0106418 0.000995075 8.85711e-10
-1.69407e-21 -0.0106418 0.00102868 2.01886e-06
1.69407e-21 0.0106418 0.00102909 8.92931e-10
-1.35525e-20 -0.0106651 0.00100858 2.03636e-06
1.86347e-20 0.0106651 0.00100897 8.96542e-10
0 -0.0106418 0.00135925 1.71044e-06
-1.35525e-20 0.0106418 0.00135964 8.20695e-10
-3.38813e-21 -0.0106418 0.00170831 1.76176e-06
0 0.0106418 0.00170849 9.66615e-10
-6.77626e-21 -0.0106418 0.00174299 1.76208e-06
2.20229e-20 0.0106418 0.0017432 9.7389e-10
0 -0.0106634 0.00171659 1.766e-06
6.77626e-21 0.0106634 0.00171678 9.74003e-10
0 0.0106417 0.002087 1.00011e-09
0 -0.0106417 0.002087 1.81951e-06
1.35525e-20 0.0108523 6.905e-08 6.97264e-10
2.71051e-20 -0.0108523 6.90492e-08 1.12022e-06
4.51751e-21 -0.0108537 0.000983441 1.90699e-06
0 0.0108538 0.000983846 8.51791e-10
-7.90564e-21 0.0109302 0.000328664 9.53138e-10
-5.64689e-21 -0.0109302 0.000328466 1.36967e-06
-9.03502e-21 -0.010876 0.00165246 1.72693e-06
-2.25875e-21 0.010876 0.0016527 9.23192e-10
-1.35525e-20 0.0110233 5.24961e-08 1.37642e-09
-2.03288e-20 -0.0110233 5.24971e-08 1.69742e-06
0 -0.0108444 0.00218791 2.29374e-06
-3.38813e-21 0.0108444 0.00218791 1.2671e-09
-6.77626e-21 0.010932 0.00223158 1.35841e-09
3.38813e-21 -0.010932 0.00223159 2.38004e-06
3.38813e-21 -0.0109511 0.00214941 2.38537e-06
-6.77626e-21 0.0109511 0.00214943 1.31133e-09
0 0.0111742 4.69561e-08 2.24953e-09
0 -0.0111743 4.69564e-08 2.54138e-06
-2.25875e-21 -0.0111377 0.00125157 1.24018e-06
-9.03502e-21 0.0111378 0.00125193 6.2503e-10
-6.77626e-21 -0.0111894 0.000675227 2.05737e-06
-1.01644e-20 0.0111894 0.00067554 1.58687e-09
1.35525e-20 0.0112788 0.000114381 3.05715e-09
-1.35525e-20 -0.0112788 0.000114338 3.19025e-06
0 0.0112886 3.37067e-08 3.09885e-09
1.35525e-20 -0.0112886 3.37059e-08 3.22969e-06
-6.77626e-21 -0.0111945 0.00167214 1.18e-06
0 0.0111945 0.00167239 6.19042e-10
2.25875e-21 -0.011163 0.00198697 2.16063e-06
-5.64689e-21 0.011163 0.00198709 1.18436e-09
-2.71051e-20 0.011131 0.00233069 1.48581e-09
0 -0.011131 0.00233069 2.36639e-06
0 0.0114369 0.00031708 4.20335e-09
0 -0.0114369 0.00031693 4.15569e-06
-2.71051e-20 -0.011421 0.000929732 7.24888e-07
-2.71051e-20 0.011421 0.000930046 4.77085e-10
-2.71051e-20 -0.0114038 0.0015068 4.59543e-07
-2.71051e-20 0.0114039 0.00150708 2.33839e-10
-1.35525e-20 -0.0113457 0.00243752 2.80593e-06
1.35525e-20 0.0113457 0.00243753 1.85393e-09
-1.35525e-20 -0.0116364 1.34784e-08 5.11272e-06
-1.35525e-20 0.0116364 1.34759e-08 4.69704e-09
0 -0.0116375 9.54413e-05 5.13012e-06
0 0.0116376 9.54576e-05 4.70501e-09
0 -0.0114303 0.0024797 2.85397e-06
-6.77626e-21 0.0114304 0.00247971 1.87304e-09
5.64689e-21 -0.0115074 0.00225281 2.58068e-06
4.51751e-21 0.0115075 0.00225288 1.66883e-09
-1.35525e-20 -0.0117301 3.25942e-09 5.55098e-06
0 0.0117301 3.26008e-09 4.85431e-09
0 -0.0117195 0.000610229 3.26925e-06
-6.77626e-21 0.0117195 0.000610449 2.79427e-09
4.51751e-21 -0.0117028 0.00122422 6.62094e-07
-9.03502e-21 0.0117028 0.00122449 4.21377e-10
0 0.0118194 8.97007e-05 5.05577e-09
-1.35525e-20 -0.0118195 8.9705e-05 5.97979e-06
0 0.01182 3.03178e-09 5.05881e-09
0 -0.01182 3.03111e-09 5.98755e-06
-4.51751e-21 -0.0116772 0.0018372 1.11719e-06
2.25875e-21 0.0116772 0.00183735 6.28345e-10
0 -0.0116033 0.00256579 2.83019e-06
2.71051e-20 0.0116033 0.00256582 1.6883e-09
-2.71051e-20 0.0120204 0.00030712 5.60315e-09
-2.71051e-20 -0.0120205 0.000307029 7.03453e-06
0 -0.0117485 0.00263815 3.18677e-06
-1.35525e-20 0.0117486 0.00263817 1.82159e-09
0 -0.0120156 0.000917001 1.06615e-06
0 0.0120156 0.000917181 7.7939e-10
1.50584e-21 -0.0118318 0.00229966 2.23163e-06
0 0.0118319 0.00229972 1.3188e-09
0 -0.0117786 0.00256188 3.13334e-06
0 0.0117787 0.00256192 1.80198e-09
0 -0.0119886 0.00155401 4.07625e-07
2.71051e-20 0.0119887 0.00155417 2.06179e-10
0 -0.012032 0.00210267 7.31549e-07
0 0.012032 0.00210275 3.55375e-10
0 0.0122392 1.95024e-09 5.9818e-09
-1.35525e-20 -0.0122393 1.95023e-09 7.87831e-06
1.35525e-20 0.0122409 8.16763e-05 5.98391e-09
-1.35525e-20 -0.012241 8.16705e-05 7.88122e-06
0 -0.011987 0.00253932 3.19993e-06
-2.71051e-20 0.0119871 0.00253936 1.7601e-09
0 0.012321 1.74247e-09 6.1604e-09
0 -0.0123211 1.74247e-09 8.18736e-06
0 -0.0120123 0.00276923 4.09599e-06
0 0.0120124 0.00276924 2.35869e-09
4.51751e-21 -0.0123328 0.00060351 4.78811e-06
0 0.0123328 0.000603616 3.56468e-09
0 -0.0120725 0.00270714 4.14469e-06
-1.35525e-20 0.0120726 0.00270715 2.39949e-09
4.51751e-21 -0.0123288 0.00123239 8.88536e-07
2.25875e-21 0.0123288 0.00123252 5.81965e-10
1.35525e-20 0.0124027 1.58608e-09 6.33499e-09
-1.35525e-20 -0.0124029 1.58605e-09 8.50345e-06
0 0.012405 7.77949e-05 6.33283e-09
1.35525e-20 -0.0124051 7.77972e-05 8.49902e-06
9.03502e-21 -0.0123346 0.00185417 6.70025e-07
-1.12938e-21 0.0123346 0.00185426 3.45293e-10
0 -0.0121505 0.00283802 4.5226e-06
-1.35525e-20 0.0121505 0.00283803 2.76938e-09
-1.12938e-21 -0.0123063 0.00240165 2.80153e-06
3.38813e-21 0.0123064 0.00240169 1.65864e-09
-1.35525e-20 -0.0122683 0.00289782 5.48996e-06
-1.35525e-20 0.0122684 0.00289784 3.60876e-09
1.35525e-20 -0.0123167 0.00277203 5.27874e-06
-1.35525e-20 0.0123167 0.00277205 3.41471e-09
0 0.0126427 0.000300471 6.72605e-09
0 -0.0126428 0.000300435 9.38263e-06
2.71051e-20 -0.0126591 0.000913392 1.49741e-06
-2.71051e-20 0.012659 0.000913471 1.01105e-09
2.71051e-20 -0.0126618 0.00155274 5.72956e-07
0 0.0126618 0.00155281 3.23411e-10
2.71051e-20 -0.0125263 0.00271731 6.04166e-06
0 0.0125263 0.00271734 3.89925e-09
2.71051e-20 0.0124665 0.00299812 4.06514e-09
-1.35525e-20 -0.0124665 0.00299814 6.0055e-06
0 -0.0126643 0.00218644 9.72827e-07
2.71051e-20 0.0126643 0.00218649 5.0202e-10
6.77626e-21 0.0128706 4.59712e-10 7.0561e-09
-6.77626e-21 -0.0128707 4.59687e-10 9.9885e-06
0 0.0128741 6.76249e-05 7.05659e-09
-6.77626e-21 -0.0128742 6.76189e-05 9.98949e-06
-2.71051e-20 0.0125733 0.00289917 4.0002e-09
1.35525e-20 -0.0125733 0.00289922 5.94023e-06
1.35525e-20 0.0129417 3.22177e-10 7.14082e-09
0 -0.0129418 3.22144e-10 1.01479e-05
-1.35525e-20 0.0125996 0.00306574 3.88792e-09
0 -0.0125996 0.00306572 5.63549e-06
-1.12938e-21 0.0129729 0.000593308 4.21725e-09
-2.25875e-21 -0.0129729 0.000593273 6.00324e-06
0 0.0130097 3.00406e-10 7.23493e-09
-6.77626e-21 -0.0130097 3.00375e-10 1.03256e-05
0 0.0130126 6.19331e-05 7.23308e-09
0 -0.0130126 6.19352e-05 1.03222e-05
1.12938e-21 -0.0129928 0.00122118 1.28947e-06
1.12938e-21 0.0129928 0.00122123 8.40098e-10
0 -0.0127131 0.00312274 5.90242e-06
0 0.0127131 0.00312278 4.11006e-09
-1.35525e-20 -0.0127497 0.00301636 5.86872e-06
-1.35525e-20 0.0127497 0.00301635 4.05354e-09
-2.25875e-21 -0.0129973 0.00187881 9.39803e-07
-2.25875e-21 0.0129973 0.00187885 4.4261e-10
-4.96926e-21 -0.0129622 0.00258487 3.25685e-06
-9.03502e-22 0.0129622 0.0025849 2.00824e-09
2.71051e-20 -0.0129338 0.00296499 5.65125e-06
2.71051e-20 0.0129338 0.00296502 3.9998e-09
0 0.0132745 0.000290697 7.56808e-09
2.71051e-20 -0.0132746 0.000290697 1.09372e-05
0 0.0133097 0.000892132 1.42161e-09
0 -0.0133098 0.000892103 1.99348e-06
-6.77626e-21 -0.0129628 0.00324855 5.7434e-06
6.77626e-21 0.0129628 0.00324857 3.91127e-09
0 -0.0130138 0.00319442 5.70428e-06
6.77626e-21 0.0130138 0.00319445 3.85317e-09
0 -0.0133311 0.00153426 1.07317e-06
5.42101e-20 0.0133311 0.0015343 5.90025e-10
-1.35525e-20 -0.0130334 0.00328409 5.5869e-06
0 0.0130335 0.00328412 3.64416e-09
0 -0.0133253 0.00221294 1.13658e-06
-2.71051e-20 0.0133254 0.00221295 3.58358e-10
6.77626e-21 -0.0130971 0.00331595 5.81113e-06
-6.77626e-21 0.0130971 0.00331598 3.69321e-09
1.35525e-20 -0.0131128 0.00327452 5.7806e-06
0 0.0131128 0.00327455 3.68492e-09
0 0.0135215 4.37567e-11 7.4619e-09
-6.77626e-21 -0.0135215 4.37417e-11 1.09255e-05
6.77626e-21 0.013525 4.46982e-05 7.46119e-09
0 -0.013525 4.46896e-05 1.09247e-05
7.52918e-22 -0.01322 0.00300113 4.34657e-06
2.25875e-21 0.01322 0.00300115 2.72569e-09
0 -0.0135708 2.7414e-11 1.09063e-05
0 0.0135708 2.74242e-11 7.45097e-09
0 -0.0136156 2.60779e-11 1.09099e-05
6.77626e-21 0.0136156 2.60872e-11 7.42917e-09
6.77626e-21 -0.0136174 3.86816e-05 1.09094e-05
0 0.0136174 3.86925e-05 7.42895e-09
-2.25875e-21 0.013613 0.000567026 5.13422e-09
0 -0.0136131 0.000567017 6.73645e-06
-2.71051e-20 -0.0133842 0.00278357 1.68474e-06
2.71051e-20 0.0133842 0.00278359 7.57951e-10
-2.25875e-21 0.0136535 0.00118312 1.98176e-09
-5.64689e-22 -0.0136536 0.00118311 2.21573e-06
2.71051e-20 -0.0133578 0.00322878 5.66061e-06
-5.42101e-20 0.0133579 0.00322881 3.40138e-09
-2.25875e-21 -0.0136671 0.00185452 1.88108e-06
-4.51751e-21 0.0136672 0.00185453 8.67096e-10
1.35525e-20 -0.0134202 0.00347787 7.25809e-06
0 0.0134203 0.00347791 4.73517e-09
0 -0.0134522 0.00343713 7.28486e-06
0 0.0134523 0.00343717 4.77018e-09
0 0.0139 0.000270267 7.31428e-09
-2.71051e-20 -0.0139 0.000270258 1.08897e-05
5.64689e-22 -0.0136756 0.0025133 1.88349e-06
0 0.0136756 0.00251332 7.01129e-10
0 -0.0134921 0.00351385 7.51135e-06
-1.35525e-20 0.0134922 0.00351387 5.12e-09
-2.71051e-20 0.0139532 0.000842554 4.09148e-09
-5.42101e-20 -0.0139532 0.000842545 2.8969e-06
5.64689e-22 -0.0136462 0.00307161 4.88172e-06
-5.64689e-22 0.0136463 0.00307162 3.04988e-09
0 -0.0135602 0.00354792 8.31733e-06
-6.77626e-21 0.0135603 0.00354795 6.04375e-09
0 -0.0135939 0.00346713 8.15505e-06
-1.35525e-20 0.013594 0.00346717 5.84674e-09
-2.71051e-20 0.0139954 0.00147861 1.77496e-09
0 -0.0139954 0.00147861 2.85141e-06
5.42101e-20 -0.0139994 0.00216676 2.46549e-06
0 0.0139994 0.00216678 7.63555e-10
0 0.0141777 1.4792e-12 1.00026e-08
-1.69407e-21 -0.0141778 1.47682e-12 9.68725e-06
0 0.0141787 1.2541e-05 1.00045e-08
0 -0.0141789 1.25123e-05 9.68612e-06
-1.69407e-21 0.0141923 1.02466e-12 1.01617e-08
1.69407e-21 -0.0141924 1.02347e-12 9.62695e-06
0 0.0142041 9.50757e-06 1.02709e-08
0 -0.0142042 9.48552e-06 9.57872e-06
0 0.0142051 1.0097e-12 1.02713e-08
-1.69407e-21 -0.0142052 1.00857e-12 9.57861e-06
-1.69407e-22 0.0142399 0.000510993 1.75555e-08
5.64689e-23 -0.01424 0.000510997 7.44835e-06
0 -0.0138494 0.00338134 9.50597e-06
0 0.0138495 0.00338137 6.91586e-09
-2.71051e-20 -0.0139915 0.00283632 2.28835e-06
5.42101e-20 0.0139915 0.00283633 9.2301e-10
0 -0.0138215 0.00367867 9.33688e-06
-1.35525e-20 0.0138216 0.0036787 7.14579e-09
0 0.0143091 0.00109617 1.23283e-08
2.82344e-22 -0.0143102 0.00109467 5.83113e-06
-1.35525e-20 -0.013893 0.00360484 9.2863e-06
0 0.0138931 0.00360489 7.06684e-09
0 -0.0143537 7.6488e-13 1.09283e-05
-1.69407e-21 0.0143541 7.64998e-13 5.3294e-08
-1.35525e-20 -0.0139056 0.00372066 8.95495e-06
0 0.0139057 0.00372068 6.87934e-09
1.41172e-21 -0.0143405 0.00177729 5.04563e-06
-8.47033e-22 0.0143405 0.0017773 2.9905e-09
-2.71051e-20 0.014476 0.000224599 1.292e-08
-5.42101e-20 -0.0144761 0.000224598 8.37619e-06
0 -0.0139819 0.00376071 9.2645e-06
0 0.013982 0.00376072 7.14744e-09
0 -0.0140112 0.00368366 9.23532e-06
1.35525e-20 0.0140113 0.0036837 7.0849e-09
1.12938e-21 -0.0143223 0.00249857 3.23983e-06
1.69407e-21 0.0143224 0.00249858 1.17358e-09
-2.71051e-20 0.014582 0.000746675 3.18098e-08
2.71051e-20 -0.0145821 0.000746673 6.79411e-06
1.807e-21 -0.0142718 0.00323775 5.72094e-06
-4.51751e-22 0.0142719 0.00323777 3.55503e-09
0 -0.0142272 0.00361841 8.85686e-06
2.71051e-20 0.0142272 0.00361844 6.93814e-09
0 0.0146963 0.000425145 1.22593e-07
3.01167e-21 -0.0146964 0.000425144 1.18563e-05
0 0.0146847 0.00134648 7.46788e-09
0 -0.0146847 0.00134648 1.00577e-05
0 0.014768 2.53725e-05 1.55344e-07
0 -0.0147681 2.54118e-05 1.38559e-05
0 0.0147706 9.09601e-14 1.55092e-07
0 -0.0147706 9.09569e-14 1.38456e-05
-6.77626e-21 0.0148059 6.69883e-15 1.72216e-07
0 -0.014806 6.66559e-15 1.45311e-05
0 -0.014659 0.00210816 5.04347e-06
0 0.014659 0.00210816 2.26638e-09
-6.77626e-21 -0.0142865 0.00391553 9.09697e-06
0 0.0142866 0.00391558 6.59801e-09
0 -0.0143135 0.00388585 9.07595e-06
-6.77626e-21 0.0143136 0.00388592 6.54478e-09
0 0.0148347 4.54511e-05 1.90375e-07
0 -0.0148348 4.55279e-05 1.5179e-05
0 0.0148461 5.76636e-15 1.90884e-07
0 -0.0148463 5.73764e-15 1.51966e-05
0 -0.0143216 0.00393365 8.9909e-06
0 0.0143217 0.00393369 6.33511e-09
-6.77626e-21 -0.0143519 0.00395506 9.24902e-06
6.77626e-21 0.0143519 0.00395508 6.32266e-09
0 -0.014364 0.00393203 9.21372e-06
0 0.0143641 0.00393207 6.32122e-09
-2.71051e-20 -0.014635 0.00283843 3.25306e-06
0 0.014635 0.00283845 8.05438e-10
8.47033e-21 0.0144995 0.00366943 4.71813e-09
8.47033e-22 0.0145102 0.00366649 4.62333e-09
5.64689e-22 -0.0145197 0.00367384 7.20286e-06
2.71051e-20 0.0150122 0.000330156 3.17076e-07
0 -0.0150123 0.000330152 2.00531e-05
1.69407e-21 0.0145873 0.00370018 4.59845e-09
-2.71051e-20 -0.0146766 0.00345532 3.63952e-06
5.42101e-20 0.0146766 0.00345534 1.29528e-09
1.69407e-22 0.0150077 0.00170828 1.02284e-08
-5.64689e-22 -0.0150077 0.00170827 1.16322e-05
6.32451e-21 0.0150925 0.000854694 1.15851e-07
9.93852e-21 -0.0150925 0.000854681 2.00633e-05
5.42101e-20 -0.0146272 0.00391091 9.11232e-06
0 0.0146272 0.00391095 5.73624e-09
1.01644e-21 -0.0149891 0.00242097 6.73849e-06
-1.24231e-21 0.0149891 0.00242099 2.87313e-09
8.47033e-22 -0.0149586 0.00315962 4.59958e-06
-3.76459e-22 0.0149587 0.00315962 1.49492e-09
-6.77626e-21 -0.014702 0.00420283 9.48303e-06
0 0.0147021 0.00420291 7.00338e-09
-6.77626e-21 -0.0152975 8.17222e-05 2.88726e-05
-6.77626e-21 0.0152978 8.14897e-05 2.63933e-07
-6.77626e-21 -0.0147323 0.00417569 9.43657e-06
0 0.0147325 0.0041758 7.02386e-09
1.35525e-20 -0.015314 2.16441e-15 2.87845e-05
1.35525e-20 0.0153142 2.17317e-15 2.64204e-07
0 -0.0147475 0.004235 9.27433e-06
0 0.0147476 0.00423506 7.18126e-09
0 -0.014778 0.00425658 8.91417e-06
-6.77626e-21 0.0147781 0.00425663 6.98152e-09
0 -0.014793 0.00422587 8.92949e-06
6.77626e-21 0.0147931 0.00422594 6.9965e-09
0 0.0153882 1.38149e-16 2.48236e-07
0 -0.0153882 1.36928e-16 3.18137e-05
1.35525e-20 0.0154217 0.000114547 2.36754e-07
-6.77626e-21 -0.0154218 0.000114884 3.4487e-05
0 -0.0149638 0.00384024 7.1033e-06
-9.41148e-22 0.0149638 0.00384027 4.50749e-09
-6.77626e-21 0.0154552 2.28099e-16 2.35967e-07
-6.77626e-21 -0.0154554 2.28503e-16 3.45936e-05
0 -0.0148468 0.00430527 8.88511e-06
6.77626e-21 0.0148469 0.00430529 7.08262e-09
0 0.0154606 0.00140664 2.39434e-08
-2.71051e-20 -0.0154606 0.00140663 2.06754e-05
2.71051e-20 -0.0152777 0.00281385 5.6891e-06
0 0.0152777 0.00281386 1.842e-09
2.71051e-20 0.0154333 0.00193355 8.49863e-09
-2.71051e-20 -0.0154333 0.00193355 1.64702e-05
0 0.0156222 0.00048004 1.69679e-07
-2.71051e-20 -0.0156222 0.000480036 4.63076e-05
2.71051e-20 -0.0152555 0.00350076 4.82578e-06
2.71051e-20 0.0152556 0.00350079 1.05162e-09
-1.35525e-20 -0.0150546 0.00445233 8.44678e-06
6.77626e-21 0.0150547 0.00445239 7.95983e-09
0 0.0157269 1.65675e-16 2.09122e-07
6.77626e-21 -0.0157276 1.66089e-16 4.34915e-05
8.47033e-22 -0.0151604 0.00422301 8.32149e-06
2.82344e-22 0.0151605 0.00422311 7.98405e-09
1.35525e-20 0.0156637 0.00166709 1.7509e-08
1.35525e-20 -0.0156637 0.00166709 1.97153e-05
-3.38813e-22 -0.015616 0.00242546 1.28076e-05
3.38813e-22 0.015616 0.00242547 4.88868e-09
-5.64689e-22 0.0157781 0.000921737 1.03209e-07
7.52918e-22 -0.0157782 0.000921692 3.73917e-05
5.64689e-22 -0.0155828 0.00315318 8.23042e-06
-5.64689e-22 0.0155828 0.00315319 1.77549e-09
6.77626e-21 -0.0152441 0.00458644 1.01309e-05
0 0.0152443 0.00458654 8.20692e-09
-6.77626e-21 0.0159533 3.83645e-05 1.74927e-07
-6.77626e-21 -0.0159534 3.82981e-05 5.17925e-05
2.71051e-20 0.015843 0.00192285 9.93003e-09
2.71051e-20 -0.015843 0.00192286 1.81373e-05
0 0.0159594 2.87839e-17 1.74854e-07
-6.77626e-21 -0.0159594 2.84889e-17 5.18045e-05
-2.71051e-20 0.0159064 0.00142308 2.71313e-08
2.71051e-20 -0.0159064 0.00142306 2.41837e-05
-1.12938e-21 -0.0155142 0.00388452 7.66019e-06
0 0.0155142 0.00388456 3.44273e-09
-1.35525e-20 -0.0153266 0.00464478 1.05389e-05
0 0.0153267 0.00464485 8.2432e-09
0 -0.01535 0.0046163 1.05905e-05
-1.35525e-20 0.0153501 0.00461639 8.30633e-09
0 -0.0153665 0.00467306 1.10671e-05
-1.35525e-20 0.0153666 0.00467311 8.84819e-09
-2.71051e-20 0.0160927 0.000505085 1.78597e-07
0 -0.0160928 0.000505072 5.7007e-05
-6.77626e-21 -0.0154309 0.00471863 1.20108e-05
1.35525e-20 0.015431 0.00471864 9.86477e-09
6.77626e-21 -0.0161373 9.11538e-18 5.63108e-05
0 0.0161376 9.31637e-18 1.69262e-07
-1.35525e-20 -0.0154622 0.00464659 1.18074e-05
0 0.0154622 0.00464666 9.65658e-09
-7.05861e-22 -0.0155558 0.00433293 9.47661e-06
2.82344e-22 0.0155559 0.00433296 6.39278e-09
0 -0.0159329 0.00276854 1.36347e-05
0 0.0159329 0.00276855 3.22856e-09
5.42101e-20 -0.015876 0.00349495 9.00654e-06
0 0.015876 0.00349497 1.07363e-09
2.82344e-22 -0.0163022 0.00169287 3.23298e-05
1.41172e-22 0.0163022 0.00169287 1.80484e-08
5.42101e-20 -0.0158805 0.00413133 7.00002e-06
-2.71051e-20 0.0158806 0.00413135 1.62934e-09
-2.71051e-20 -0.0157464 0.00463062 1.36065e-05
2.71051e-20 0.0157465 0.00463067 1.03227e-08
-1.35525e-20 -0.0156844 0.004898 1.34509e-05
-1.35525e-20 0.0156845 0.0048981 1.06461e-08
0 -0.0164403 0.000192195 6.46744e-05
0 0.0164404 0.000192073 1.64048e-07
-1.35525e-20 -0.0164599 2.18737e-18 6.45545e-05
1.35525e-20 0.0164599 2.23707e-18 1.64496e-07
1.12938e-21 -0.0163055 0.00229239 2.62592e-05
0 0.0163055 0.00229239 7.40443e-09
0 -0.0157621 0.0048391 1.34314e-05
1.35525e-20 0.0157621 0.00483922 1.0517e-08
0 -0.0164587 0.00103727 5.31214e-05
6.77626e-21 0.0164587 0.00103728 8.73144e-08
1.12938e-22 -0.0162201 0.00310503 1.91524e-05
3.38813e-22 0.0162201 0.00310505 2.94163e-09
-2.71051e-20 -0.0157673 0.00495663 1.32001e-05
0 0.0157673 0.00495668 1.02948e-08
1.35525e-20 0.0165552 1.89118e-18 1.48527e-07
1.35525e-20 -0.0165552 1.82985e-18 6.7658e-05
1.35525e-20 0.0158425 0.00500991 1.07687e-08
-1.35525e-20 -0.0158425 0.00500989 1.39044e-05
0 0.0158774 0.00492677 1.06445e-08
0 -0.0158775 0.00492671 1.3813e-05
-2.25875e-21 -0.0161858 0.00381853 1.30164e-05
5.64689e-22 0.0161859 0.00381855 1.43445e-09
0 0.0166929 0.000101665 1.4072e-07
1.35525e-20 -0.0166931 0.000101735 7.15633e-05
-1.35525e-20 0.0166941 -1.9757e-18 1.4073e-07
1.35525e-20 -0.0166943 -1.99904e-18 7.15587e-05
9.03502e-22 -0.0161388 0.00451629 1.16318e-05
-1.12938e-21 0.0161388 0.00451633 5.38506e-09
0 -0.0165511 0.0027628 2.82511e-05
0 0.0165511 0.0027628 4.51726e-09
2.71051e-20 -0.0160804 0.00488839 1.33886e-05
0 0.0160804 0.00488844 1.03737e-08
-5.42101e-20 -0.0165195 0.00345964 2.38422e-05
-2.71051e-20 0.0165195 0.00345965 1.92397e-09
0 -0.0160927 0.00518691 1.50641e-05
0 0.0160929 0.00518705 1.03074e-08
0 -0.0161328 0.00514885 1.5094e-05
0 0.0161329 0.00514907 1.01969e-08
6.77626e-21 -0.0161376 0.0052187 1.52556e-05
6.77626e-21 0.0161377 0.00521878 9.83369e-09
-2.71051e-20 -0.0164852 0.00415081 1.29428e-05
0 0.0164853 0.00415084 1.13643e-09
-6.77626e-21 -0.0161812 0.00524952 1.63756e-05
-6.77626e-21 0.0161812 0.00524953 9.88443e-09
-6.77626e-21 -0.0162 0.00521518 1.62087e-05
0 0.0162 0.00521526 9.86634e-09
0 0.0169483 0.00175217 1.53372e-08
-5.42101e-20 -0.0169483 0.00175217 5.5725e-05
-1.41172e-22 0.0168946 0.00247379 7.98848e-09
-2.82344e-22 -0.0168959 0.00247492 4.28585e-05
0 0.0170685 0.000542394 1.13831e-07
-5.42101e-20 -0.0170686 0.000542393 8.47152e-05
-5.64689e-22 -0.016348 0.00494369 1.37537e-05
1.41172e-22 0.0163681 0.00495112 7.26023e-09
8.47033e-22 -0.0168537 0.00309992 3.52498e-05
-2.82344e-22 0.0168537 0.00309993 4.46983e-09
0 -0.0165271 0.00473647 1.06832e-05
-2.71051e-20 0.0165271 0.0047365 2.05678e-09
5.64689e-22 -0.0168198 0.00379489 2.69928e-05
0 0.0168198 0.00379489 2.39079e-09
0 -0.0164532 0.00518907 1.73327e-05
0 0.0164532 0.0051891 9.33361e-09
-1.35525e-20 -0.0164986 0.00547411 1.86428e-05
1.35525e-20 0.0164987 0.0054742 1.14268e-08
0 -0.0168074 0.0044544 1.76598e-05
-3.38813e-21 0.0168075 0.00445442 1.92034e-09
1.35525e-20 -0.0165401 0.00543882 1.85303e-05
1.35525e-20 0.0165402 0.00543896 1.14796e-08
2.71051e-20 0.0171982 0.00274291 7.42515e-09
-2.71051e-20 -0.0171982 0.00274291 4.98827e-05
0 -0.0165562 0.00551488 1.81623e-05
0 0.0165562 0.0055149 1.18548e-08
0 -0.0171475 0.00343443 3.90948e-05
5.42101e-20 0.0171475 0.00343443 4.03263e-09
0 0.0165954 0.00554259 1.14325e-08
-1.35525e-20 -0.0165954 0.00554261 1.73299e-05
0 0.0166162 0.00550295 1.14658e-08
-1.35525e-20 -0.0166162 0.00550291 1.73695e-05
8.47033e-23 -0.0167942 0.00511228 1.63315e-05
-6.27432e-22 0.0168034 0.00511576 7.35203e-09
0 0.0166838 0.00560512 1.17405e-08
-6.77626e-21 -0.0166839 0.00560521 1.78412e-05
-5.42101e-20 -0.0171381 0.00410853 3.19861e-05
0 0.0171382 0.00410853 2.48366e-09
6.77626e-21 -0.0176356 5.15747e-05 9.24659e-05
-6.77626e-21 0.0176356 5.15594e-05 1.1163e-07
0 -0.0176365 -8.88394e-19 9.24703e-05
0 0.0176365 -8.80501e-19 1.11626e-07
-1.12938e-21 -0.0176257 0.00114318 8.45098e-05
0 0.0176257 0.00114318 6.45126e-08
-6.77626e-21 0.017701 -1.17471e-20 1.10451e-07
0 -0.017701 -1.19998e-20 9.35532e-05
0 0.0177564 5.70206e-05 1.09834e-07
6.77626e-21 -0.0177564 5.70366e-05 9.45108e-05
0 -0.0174948 0.00304299 5.24772e-05
-7.05861e-23 0.0174948 0.003043 7.81638e-09
-2.71051e-20 -0.0171005 0.00478727 1.65551e-05
2.71051e-20 0.0171005 0.00478729 2.02975e-09
0 0.01776 -9.77488e-21 1.09828e-07
0 -0.01776 -9.99454e-21 9.45183e-05
-5.64689e-22 -0.0176226 0.00231708 6.5687e-05
0 0.0176226 0.00231708 1.24976e-08
6.77626e-21 -0.016865 0.00573336 1.82769e-05
1.35525e-20 0.0168651 0.00573338 1.3089e-08
-1.12938e-21 -0.0169917 0.00554745 1.84205e-05
0 0.0169918 0.00554746 1.34621e-08
0 -0.0175404 0.00368248 4.5319e-05
1.12938e-21 0.0175404 0.00368248 5.68139e-09
-5.64689e-22 -0.0174309 0.00445116 3.41749e-05
5.64689e-22 0.0174309 0.00445117 3.77596e-09
1.35525e-20 -0.0170276 0.00584842 2.13882e-05
0 0.0170278 0.0058485 1.40747e-08
-3.38813e-21 -0.0173594 0.00515914 2.37571e-05
2.25875e-21 0.0173594 0.00515917 6.368e-09
1.35525e-20 -0.0171315 0.00592198 2.28498e-05
0 0.0171316 0.00592202 1.44246e-08
-1.35525e-20 -0.0171628 0.0058861 2.29726e-05
2.71051e-20 0.0171629 0.00588616 1.45744e-08
0 -0.0171821 0.00595789 2.43349e-05
-1.35525e-20 0.0171822 0.00595791 1.59367e-08
2.71051e-20 -0.017769 0.00410415 4.93089e-05
0 0.017769 0.00410415 6.68357e-09
-5.42101e-20 -0.0182634 0.000578943 0.000101964
-1.0842e-19 0.0182634 0.000578939 1.0795e-07
0 0.0173972 0.0056105 1.16032e-08
0 -0.0173983 0.00561199 2.32482e-05
0 -0.0172648 0.00601707 2.67823e-05
0 0.0172648 0.00601705 1.86063e-08
-1.35525e-20 -0.0173077 0.00592609 2.62034e-05
0 0.0173077 0.00592612 1.80379e-08
0 0.0182204 0.00175681 1.80805e-08
5.42101e-20 -0.0182204 0.00175681 9.42016e-05
-5.42101e-20 -0.0177285 0.00478169 3.88901e-05
5.42101e-20 0.0177285 0.0047817 3.95829e-09
5.42101e-20 -0.0181282 0.00306192 7.11419e-05
-5.42101e-20 0.0181282 0.00306192 1.20535e-08
9.88205e-22 0.0181211 0.00374048 1.37223e-08
-7.05861e-22 -0.0181211 0.00374048 6.61777e-05
-5.42101e-20 -0.0177324 0.00540771 2.37859e-05
2.71051e-20 0.0177325 0.00540772 3.76974e-09
-2.71051e-20 -0.0174849 0.00617225 2.99044e-05
1.35525e-20 0.0174849 0.00617229 2.07477e-08
0 -0.0175758 0.00590987 3.03714e-05
0 0.0175758 0.00590988 1.98346e-08
-5.64689e-22 -0.0180729 0.00442473 5.56607e-05
0 0.0180729 0.00442474 1.08148e-08
0 -0.0175826 0.00610029 2.99111e-05
-1.35525e-20 0.0175826 0.00610033 2.05527e-08
0 -0.0175873 0.00624642 2.96056e-05
2.71051e-20 0.0175873 0.00624644 2.03547e-08
-1.12938e-21 -0.018047 0.00508937 4.15791e-05
-1.69407e-21 0.018047 0.00508938 7.03435e-09
0 0.017673 0.00632955 2.18581e-08
0 -0.017673 0.00632954 3.03147e-05
-2.71051e-20 0.0177235 0.00621993 2.14345e-08
0 -0.0177235 0.00621991 3.02373e-05
0 0.0188362 3.90693e-05 1.09592e-07
-6.77626e-21 -0.0188362 3.90686e-05 0.000108474
-6.77626e-21 -0.0188376 -1.39629e-21 0.000108464
6.77626e-21 0.0188376 -1.37533e-21 1.09588e-07
-2.71051e-20 0.0184191 0.00406131 1.89096e-08
2.71051e-20 -0.0184191 0.0040613 7.56186e-05
0 -0.0188782 -3.44889e-23 0.000108987
6.77626e-21 0.0188782 -3.56432e-23 1.0993e-07
-5.64689e-22 -0.0188457 0.00115779 0.000113839
5.64689e-22 0.0188457 0.00115779 6.55072e-08
-3.61401e-21 -0.017989 0.00579611 3.19873e-05
-2.71051e-21 0.017989 0.00579611 1.18485e-08
0 -0.0189173 3.90222e-05 0.000109465
6.77626e-21 0.0189173 3.90242e-05 1.10248e-07
6.77626e-21 -0.0189184 -4.2274e-23 0.000109467
6.77626e-21 0.0189184 -4.34052e-23 1.10251e-07
8.47033e-22 -0.0188016 0.00239367 0.000110077
2.82344e-22 0.0188016 0.00239367 2.24223e-08
2.71051e-20 -0.0179168 0.00619826 2.97148e-05
0 0.0179168 0.00619827 2.15039e-08
0 -0.0178342 0.00647803 3.12733e-05
1.35525e-20 0.0178342 0.00647805 2.21941e-08
2.71051e-20 -0.0183812 0.00473969 5.89891e-05
0 0.0183812 0.00473969 1.36719e-08
0 -0.0179161 0.00640623 3.14042e-05
2.71051e-20 0.0179161 0.00640626 2.18661e-08
0 -0.0179071 0.00654735 3.10385e-05
1.35525e-20 0.0179071 0.00654736 2.01815e-08
-1.12938e-21 0.0187899 0.00359346 2.95158e-08
-2.25875e-21 -0.0187899 0.00359346 8.96839e-05
-2.71051e-20 -0.0183614 0.0054084 4.5395e-05
2.71051e-20 0.0183614 0.0054084 6.98338e-09
1.35525e-20 0.0179797 0.00661798 2.20066e-08
0 -0.0179797 0.00661798 3.32736e-05
0 0.0180436 0.00652848 2.17113e-08
0 -0.0180436 0.00652847 3.297e-05
1.41172e-22 -0.0187173 0.00436434 7.67758e-05
-1.27055e-21 0.0187173 0.00436434 2.7698e-08
-1.50584e-21 -0.018177 0.00625308 3.20006e-05
1.50584e-21 0.018177 0.00625308 1.63049e-08
0 -0.0181271 0.00676144 3.3461e-05
1.35525e-20 0.0181271 0.00676146 2.21513e-08
2.71051e-20 -0.0183874 0.00602484 3.19882e-05
-2.71051e-20 0.0183874 0.00602485 5.47295e-09
2.71051e-20 -0.0182481 0.00651393 3.44758e-05
0 0.0182481 0.00651394 2.13602e-08
4.94103e-22 0.0187359 0.00501818 2.28309e-08
6.35275e-22 -0.0187359 0.00501817 6.2269e-05
-1.35525e-20 -0.0182332 0.00669844 3.3174e-05
0 0.0182332 0.00669846 2.18628e-08
0 -0.018217 0.00684899 3.13833e-05
-2.71051e-20 0.0182171 0.00684899 2.12178e-08
-5.42101e-20 -0.0194643 0.000581954 0.000116068
-5.42101e-20 0.0194643 0.000581956 1.11927e-07
-5.42101e-20 -0.0194401 0.00177497 0.000143276
5.42101e-20 0.0194401 0.00177497 2.22258e-08
1.12938e-21 -0.0186825 0.00571617 4.55696e-05
1.12938e-21 0.0186825 0.00571618 1.21641e-08
2.71051e-20 0.018308 0.00693726 2.27243e-08
1.35525e-20 -0.018308 0.00693726 3.13298e-05
0 0.018365 0.00682515 2.23059e-08
-1.35525e-20 -0.018365 0.00682514 3.14845e-05
0 0.0191534 0.00414674 5.06712e-08
0 -0.0191534 0.00414674 9.07368e-05
0 -0.0194225 0.00303969 0.000129943
0 0.0194225 0.00303969 3.68973e-08
0 0.01915 0.0045832 4.79394e-08
0 -0.01915 0.0045832 8.98147e-05
0 -0.0186305 0.00640894 3.48934e-05
1.807e-21 0.0186305 0.00640895 1.38429e-08
1.05879e-22 0.0193894 0.00369515 5.11699e-08
-5.13514e-20 -0.0193886 0.00369336 0.000105268
2.71051e-20 -0.0185455 0.00680231 3.00447e-05
-2.71051e-20 0.0185455 0.00680231 2.21347e-08
0 -0.019012 0.00537772 6.08348e-05
-2.71051e-20 0.019012 0.00537773 2.52213e-08
-1.35525e-20 -0.0184497 0.00707482 3.14619e-05
-2.71051e-20 0.0184497 0.00707483 2.30743e-08
1.35525e-20 -0.018538 0.00700337 3.16394e-05
0 0.018538 0.00700339 2.27675e-08
0 -0.0193613 0.00436274 9.18051e-05
1.35525e-20 0.0193613 0.00436274 5.80623e-08
-1.35525e-20 -0.0185249 0.0071478 3.13006e-05
-1.35525e-20 0.0185249 0.0071478 2.11405e-08
2.71051e-20 -0.0189858 0.00603642 4.5253e-05
0 0.0189858 0.00603643 1.1772e-08
0 0.018601 0.00722169 2.34768e-08
-1.35525e-20 -0.018601 0.00722169 3.36986e-05
-1.35525e-20 0.0186688 0.00713006 2.3075e-08
0 -0.0186688 0.00713005 3.33761e-05
0 0.0193578 0.00503068 5.65571e-08
-7.05861e-22 -0.0193578 0.00503068 7.73919e-05
-2.71051e-20 -0.0195829 0.00413333 9.76853e-05
-2.71051e-20 0.0195829 0.00413333 6.9438e-08
6.02335e-21 -0.0188026 0.00685908 3.29096e-05
0 0.0188026 0.00685908 1.75473e-08
-3.38813e-21 0.0200409 2.97531e-05 1.19045e-07
-3.38813e-21 -0.0200409 2.97437e-05 0.000122729
-3.38813e-21 0.0200414 5.6205e-24 1.19043e-07
-6.77626e-21 -0.0200414 5.63319e-24 0.000122726
-6.77626e-21 -0.020072 -1.60504e-25 0.000123078
-6.77626e-21 0.020072 -1.56925e-25 1.19181e-07
-1.12938e-21 0.0200566 0.00116432 7.39118e-08
-1.12938e-21 -0.0200566 0.00116432 0.000142215
0 -0.0195648 0.00457553 9.10076e-05
0 0.0195648 0.00457553 6.86569e-08
0 -0.020102 2.93804e-05 0.000123416
-6.77626e-21 0.020102 2.93892e-05 1.20343e-07
0 -0.0201024 -1.7309e-25 0.000123417
-3.38813e-21 0.0201024 -1.69595e-25 1.20347e-07
2.71051e-20 -0.0187404 0.00735707 3.38269e-05
0 0.0187404 0.00735708 2.39276e-08
0 -0.0190162 0.00663681 3.4135e-05
2.82344e-21 -0.0193208 0.00568921 6.04229e-05
1.12938e-21 0.0193208 0.00568921 4.06619e-08
0 0.0190162 0.00663681 6.98256e-09
-2.71051e-20 -0.0188683 0.00711623 3.48271e-05
-2.71051e-20 0.0188683 0.00711623 2.2949e-08
5.64689e-22 0.0200437 0.0023892 4.71052e-08
-5.64689e-22 -0.0200437 0.0023892 0.000155946
-1.35525e-20 -0.0188522 0.00729488 3.35125e-05
-1.35525e-20 0.0188522 0.0072949 2.36158e-08
1.35525e-20 -0.0188339 0.00744777 3.16506e-05
-2.71051e-20 0.0188339 0.00744777 2.30136e-08
2.25875e-21 -0.0193083 0.00633279 4.66433e-05
-5.64689e-22 0.0193083 0.00633279 2.13293e-08
0 -0.0196626 0.005336 7.71982e-05
-2.71051e-20 0.0196626 0.005336 7.78051e-08
0 0.0189281 0.00753929 2.48677e-08
-2.71051e-20 -0.0189281 0.0075393 3.15412e-05
1.35525e-20 0.018987 0.00742577 2.43529e-08
0 -0.018987 0.00742576 3.17119e-05
-5.64689e-21 0.0200608 0.00364085 1.00975e-07
2.25875e-21 -0.0200608 0.00364085 0.000128254
0 -0.0200043 0.00434223 0.000104319
0 0.020005 0.00434221 1.16109e-07
-9.03502e-22 -0.0192547 0.00701653 3.62788e-05
0 0.0192547 0.00701654 1.67746e-08
2.71051e-20 -0.0196313 0.0059969 5.86249e-05
-2.71051e-20 0.0196313 0.0059969 4.81184e-08
2.71051e-20 -0.019165 0.00740556 3.02576e-05
-2.71051e-20 0.019165 0.00740556 2.4263e-08
-1.35525e-20 -0.0190666 0.0076737 3.15018e-05