# k  POINT_DATA 31572
# x  y  z  k
0.0292381 0 8.09214e-08 4.8461e-11
-0.0292381 0 8.09214e-08 8.02911e-07
0.0292381 -3.38813e-21 0.000233596 4.48866e-11
-0.0292381 3.38813e-21 0.000233441 8.1704e-07
0.029238 -3.38813e-21 0.000431066 4.72397e-11
-0.0292381 0 0.000430751 8.96308e-07
0.029238 -1.35525e-20 0.000664138 5.67071e-11
-0.029238 -6.77626e-21 0.000663676 1.0455e-06
0.029238 -3.38813e-21 0.000908366 6.04602e-11
-0.029238 0 0.000907922 1.19189e-06
-0.029238 -3.38813e-21 0.00111494 1.23212e-06
0.029238 3.38813e-21 0.00111544 6.21851e-11
-0.029238 0 0.00135903 1.15523e-06
0.0292379 0 0.00135951 6.19899e-11
-0.0292379 -3.38813e-21 0.00161391 1.03866e-06
0.0292379 0 0.00161421 5.69951e-11
-0.0292379 3.38813e-21 0.00183185 1.13512e-06
0.0292379 3.38813e-21 0.00183203 6.44509e-11
0.0292379 1.35525e-20 0.002087 8.02637e-11
-0.0292379 -1.35525e-20 0.002087 1.38369e-06
-0.0293159 -1.01644e-20 0.000332812 7.97122e-07
0.0293159 1.69407e-20 0.000333044 3.96663e-11
-0.0293201 -3.38813e-21 0.00100457 1.21516e-06
0.0293201 1.35525e-20 0.00100504 5.82797e-11
-0.0293199 0 0.0017002 9.41349e-07
0.0293199 3.38813e-21 0.00170046 5.09905e-11
-0.0294721 0 0.000122211 7.32335e-07
0.0294722 1.35525e-20 0.000122307 3.54723e-11
-0.0294728 0 7.47975e-08 7.30547e-07
0.0294728 0 7.47971e-08 3.53566e-11
-0.0294797 1.35525e-20 0.000527785 8.4537e-07
0.0294797 -1.35525e-20 0.000528144 4.00398e-11
-0.0294753 -1.35525e-20 0.000796291 1.0249e-06
0.0294753 1.35525e-20 0.000796753 4.81579e-11
-0.0294755 2.03288e-20 0.00118666 1.05993e-06
0.0294755 0 0.00118714 5.05775e-11
-0.0294683 -1.35525e-20 0.00147414 9.40022e-07
0.0294683 -1.35525e-20 0.00147454 4.76122e-11
-0.0294625 -6.77626e-21 0.00186309 9.85984e-07
0.0294626 -6.77626e-21 0.00186328 5.18636e-11
-0.029578 1.35525e-20 6.64178e-08 9.8851e-07
0.029578 0 6.64171e-08 6.353e-11
-0.0295009 -1.35525e-20 0.00213468 1.11354e-06
0.0295009 6.77626e-21 0.00213468 6.10716e-11
-0.029587 1.35525e-20 0.000650836 9.22688e-07
0.0295871 -2.71051e-20 0.00065131 5.12851e-11
-0.0295378 1.35525e-20 0.00203786 1.07175e-06
0.0295378 1.35525e-20 0.00203793 5.71094e-11
-0.029584 -2.71051e-20 0.00130565 7.58996e-07
0.0295841 0 0.00130618 3.57132e-11
-0.0295849 -1.35525e-20 0.00192058 8.58081e-07
0.0295849 6.77626e-21 0.00192076 4.34761e-11
0.029649 0 0.00216152 6.80912e-11
-0.029649 0 0.00216152 1.28263e-06
-0.0297926 4.51751e-22 0.000963661 9.02196e-07
0.0297927 1.807e-21 0.000964146 3.96436e-11
-0.0298093 -1.35525e-20 7.62609e-08 6.99094e-07
0.0298093 -2.71051e-20 7.62598e-08 3.73068e-11
-0.0298204 9.03502e-22 0.000317447 7.17834e-07
0.0298205 1.12938e-21 0.000317662 3.92578e-11
-0.0297852 -4.51751e-22 0.00156826 6.55504e-07
0.0297852 1.807e-21 0.00156862 3.01918e-11
-0.0297946 5.0822e-21 0.00197115 1.03582e-06
0.0297946 3.38813e-21 0.0019713 4.52262e-11
-0.029885 -3.38813e-21 8.57338e-08 8.66243e-07
0.0298851 -3.38813e-21 8.5738e-08 5.47545e-11
0.0298185 -6.77626e-21 0.00219226 5.98449e-11
-0.0298186 -2.71051e-20 0.00219226 1.26473e-06
-0.0299229 0 0.00221118 1.54063e-06
0.0299229 -1.35525e-20 0.00221118 7.70269e-11
-0.0300582 0 1.01023e-07 1.4854e-06
0.0300583 0 1.01025e-07 1.16592e-10
-0.030042 0 0.00125419 8.49959e-07
0.0300421 -9.03502e-21 0.00125463 3.00518e-11
-0.030023 7.7443e-21 0.00171052 8.5591e-07
0.0300231 -4.84019e-21 0.0017108 3.26872e-11
-0.0300766 0 0.00065666 1.08962e-06
0.0300767 4.51751e-21 0.000657051 6.00315e-11
-0.0301411 -6.77626e-21 0.000117994 1.39669e-06
0.0301411 6.77626e-21 0.000117999 1.04436e-10
-0.030143 0 9.36904e-08 1.39983e-06
0.0301431 0 9.3697e-08 1.04805e-10
-0.0300722 1.35525e-20 0.00223823 1.77716e-06
0.0300722 -1.35525e-20 0.00223824 7.77957e-11
-0.0302709 -1.35525e-20 0.000327812 1.63175e-06
0.0302709 0 0.000327976 1.26885e-10
-0.0302588 0 0.000959195 1.1461e-06
0.0302588 0 0.000959517 3.97118e-11
-0.0302233 -2.25875e-21 0.00199374 1.73854e-06
0.0302233 -1.12938e-21 0.00199386 6.43427e-11
-0.0302513 0 0.00155258 8.75155e-07
0.0302514 0 0.00155284 3.08235e-11
0.0303944 -1.01644e-20 0.00229663 7.86846e-11
-0.0303944 0 0.00229664 2.0764e-06
-0.0305071 -3.38813e-21 4.03686e-05 2.0139e-06
0.0305071 3.38813e-21 4.03653e-05 1.34211e-10
-0.0305084 0 2.78813e-08 2.01609e-06
0.0305085 0 2.78788e-08 1.34392e-10
-0.0305355 0 2.44807e-08 2.12084e-06
0.0305355 -3.38813e-21 2.44807e-08 1.42548e-10
0.030464 0 0.00230926 8.03632e-11
-0.030464 3.38813e-20 0.00230926 2.13644e-06
0.0305559 -3.38813e-21 2.5605e-08 1.39923e-10
-0.0305559 0 2.56056e-08 2.09865e-06
0.0305566 0 2.16951e-05 1.40074e-10
-0.0305566 0 2.17024e-05 2.10022e-06
-0.0305496 7.05861e-23 0.00065626 1.6221e-06
0.0305496 -1.41172e-22 0.000656486 8.99705e-11
-0.0305132 0 0.00170668 1.26163e-06
0.0305132 3.76459e-22 0.00170684 3.95066e-11
-0.0305476 -1.12938e-22 0.00124506 9.60307e-07
0.0305476 -2.25875e-22 0.00124529 3.06056e-11
-0.030501 -6.77626e-21 0.00231596 2.19934e-06
0.030501 0 0.00231596 7.99767e-11
0.0306237 0 3.57389e-08 1.41038e-10
-0.0306238 0 3.5746e-08 2.22063e-06
-0.0306099 0 0.0021928 2.24791e-06
0.03061 0 0.00219279 7.36005e-11
-0.0307225 -3.38813e-21 0.00235612 2.44741e-06
0.0307226 0 0.00235614 8.03044e-11
-0.0308383 2.71051e-20 0.000320901 2.7014e-06
0.0308383 5.42101e-20 0.000320968 1.5124e-10
-0.0308116 -2.25875e-21 0.00198356 2.16381e-06
0.0308116 1.12938e-21 0.00198362 5.93085e-11
-0.0309907 0 0.0010195 8.41401e-07
0.0309907 -2.71051e-21 0.00101961 2.68879e-11
-0.0309922 0 0.00150595 6.44895e-07
0.0309922 4.51751e-21 0.00150605 1.63632e-11
-0.0310394 0 9.17162e-08 3.00662e-06
0.0310395 0 9.17132e-08 1.49296e-10
-0.0310415 0 0.000119361 3.0321e-06
0.0310416 0 0.000119404 1.51675e-10
-0.030965 0 0.00240008 2.75308e-06
0.030965 0 0.00240009 8.10221e-11
-0.030982 0 0.00237269 2.7507e-06
0.030982 0 0.00237271 7.9835e-11
0.0310104 6.77626e-21 0.00240832 7.91833e-11
-0.0310104 -6.77626e-21 0.00240832 2.79991e-06
0.0310179 6.77626e-21 0.00233587 7.3627e-11
-0.0310179 6.77626e-21 0.00233584 2.61496e-06
-0.0311223 9.03502e-21 0.000639224 1.91327e-06
0.0311223 -9.03502e-21 0.000639291 8.78154e-11
0.0310526 6.77626e-21 0.00237692 7.89204e-11
-0.0310526 6.77626e-21 0.00237691 2.81842e-06
-0.0311458 1.35525e-20 9.71539e-08 3.13333e-06
0.0311459 0 9.71521e-08 1.32233e-10
0.031071 0 0.00241931 7.99782e-11
-0.0310711 6.77626e-21 0.00241931 2.86778e-06
-0.0312091 -2.71051e-20 0.00177609 1.16974e-06
0.0312091 -2.71051e-20 0.00177613 2.95421e-11
-0.0312491 0 0.00122869 6.34772e-07
0.0312491 0 0.00122876 1.77946e-11
-0.0312857 0 8.40765e-08 3.42914e-06
0.0312858 -1.35525e-20 8.4069e-08 1.27672e-10
-0.0312916 0 0.000133791 3.45952e-06
0.0312917 1.35525e-20 0.000133817 1.28562e-10
-0.0313889 9.03502e-21 0.00201496 2.19223e-06
0.0313889 2.25875e-21 0.00201499 5.18679e-11
-0.0313958 6.77626e-21 0.00247818 2.97466e-06
0.0313958 0 0.00247818 7.66972e-11
-0.0314932 0 0.00040878 3.35037e-06
0.0314932 0 0.000408784 1.14008e-10
-0.0315059 0 0.000915866 8.0141e-07
0.0315059 -6.77626e-21 0.000915906 2.45746e-11
-0.0314281 0 0.00241762 2.91167e-06
0.0314281 0 0.00241764 7.42566e-11
-0.0315016 0 0.00151814 4.60699e-07
0.0315016 1.12938e-20 0.00151817 1.11095e-11
0.0314986 -1.35525e-20 0.00234883 6.23607e-11
-0.0314986 -1.35525e-20 0.00234879 2.51089e-06
0.0315086 0 0.00249863 7.00402e-11
-0.0315086 2.71051e-20 0.00249863 2.9547e-06
0.0316957 1.35525e-20 0.0001271 1.27898e-10
-0.0316957 0 0.000127012 4.0725e-06
0.0316993 0 1.28441e-08 1.27037e-10
-0.0316993 0 1.28327e-08 4.05766e-06
-0.0317724 0 0.000610883 2.31173e-06
0.0317724 2.71051e-20 0.000610893 6.50392e-11
-0.0317679 0 0.00121729 4.88161e-07
0.0317679 0 0.0012173 1.08317e-11
-0.0317537 0 0.00187022 1.08259e-06
0.0317537 2.71051e-20 0.00187023 2.22304e-11
0.0317093 2.71051e-20 0.00253502 6.3891e-11
-0.0317093 -2.71051e-20 0.00253502 2.78433e-06
-0.0318341 -1.35525e-20 3.55262e-10 4.20912e-06
0.0318342 1.35525e-20 3.5768e-10 1.19825e-10
0.0317532 -1.8823e-22 0.00228382 6.05643e-11
-0.0317532 -3.76459e-22 0.00228381 2.52174e-06
-0.0319513 -1.35525e-20 4.55429e-10 4.57763e-06
0.0319515 1.35525e-20 4.57735e-10 1.20726e-10
-0.0319524 1.35525e-20 0.000127633 4.62267e-06
0.0319526 0 0.000127717 1.21642e-10
-0.0318828 0 0.00256647 2.62616e-06
0.0318828 0 0.00256647 5.22765e-11
-0.0319995 4.51751e-21 0.0009146 9.2099e-07
0.0319996 4.51751e-21 0.000914606 2.207e-11
-0.0320112 0 0.000400505 4.41466e-06
0.0320112 0 0.0004005 1.10324e-10
0.0320267 -2.25875e-21 0.00227705 3.47601e-11
-0.0320267 -1.12938e-21 0.00227704 1.81319e-06
0.0320296 0 0.00251382 4.04943e-11
-0.0320296 -2.71051e-20 0.00251381 2.27002e-06
-0.0320975 2.25875e-21 0.00153739 4.95141e-07
0.0320975 -2.25875e-21 0.0015374 7.28763e-12
-0.0320427 1.35525e-20 0.00259543 2.27032e-06
0.0320427 -6.77626e-21 0.00259544 3.88307e-11
-0.0321203 -4.51751e-21 0.00203437 9.00536e-07
0.0321203 0 0.00203437 1.44207e-11
-0.032135 0 0.00238954 2.13624e-06
0.032135 0 0.00238955 3.4432e-11
0.0322923 1.35525e-20 0.000126387 1.12824e-10
-0.0322923 1.35525e-20 0.000126365 5.449e-06
0.0323016 1.35525e-20 2.23457e-09 1.11647e-10
-0.0323016 -1.35525e-20 2.23356e-09 5.42969e-06
-0.0322103 -6.77626e-21 0.00262582 2.39534e-06
0.0322103 1.35525e-20 0.00262583 3.31838e-11
-0.0322717 0 0.00254335 2.4523e-06
0.0322718 -1.35525e-20 0.00254336 3.25604e-11
-0.032418 0 2.33101e-09 5.51671e-06
0.032418 -1.35525e-20 2.33195e-09 9.69355e-11
-0.0324263 2.25875e-21 0.000612604 3.26137e-06
0.0324263 -4.51751e-21 0.000612601 5.66409e-11
-0.0324222 -1.807e-20 0.00112452 7.32593e-07
0.0324222 -4.51751e-21 0.00112451 1.17844e-11
-0.032412 0 0.00187553 1.06561e-06
0.0324121 5.42101e-20 0.00187553 1.26293e-11
-0.0323801 0 0.0026566 3.21945e-06
0.0323802 -1.35525e-20 0.00265661 3.84574e-11
-0.0324113 1.69407e-21 0.00229689 1.98453e-06
0.0324113 1.12938e-21 0.0022969 2.34833e-11
-0.032547 1.35525e-20 2.20754e-09 5.76849e-06
0.032547 -1.35525e-20 2.20837e-09 8.4e-11
-0.0325489 0 0.000125731 5.76833e-06
0.0325489 0 0.00012575 8.40006e-11
-0.0326035 -6.77626e-21 0.00269705 3.18488e-06
0.0326035 -6.77626e-21 0.00269706 2.9791e-11
-0.032737 2.71051e-20 0.00030837 6.09149e-06
0.032737 0 0.000308358 6.8924e-11
-0.0327282 -2.25875e-21 0.00154832 5.88872e-07
0.0327282 6.77626e-21 0.00154831 6.55253e-12
-0.0326737 -9.03502e-21 0.00254228 3.1849e-06
0.0326738 -9.03502e-21 0.00254228 2.83542e-11
-0.0327075 -1.35525e-20 0.00206775 1.238e-06
0.0327075 -4.51751e-21 0.00206775 9.95263e-12
-0.032708 -2.71051e-20 0.002716 3.35337e-06
0.0327081 0 0.00271601 2.83947e-11
-0.0328421 -9.03502e-21 0.000917741 1.37213e-06
0.0328421 0 0.000917735 1.41182e-11
-0.0328866 0 1.93643e-09 6.31148e-06
0.0328867 0 1.93682e-09 6.2638e-11
-0.032889 0 0.000149427 6.31139e-06
0.032889 1.35525e-20 0.000149442 6.26348e-11
-0.0329824 -7.7443e-21 0.000542132 4.60084e-06
0.0329824 5.80823e-21 0.00054211 4.63732e-11
-0.0330371 -2.71051e-20 1.79015e-09 6.42411e-06
0.0330372 -1.35525e-20 1.79044e-09 5.52141e-11
-0.0329464 0 0.00275916 4.26968e-06
0.0329464 0 0.00275917 3.41037e-11
-0.0329864 3.38813e-22 0.00235373 2.54338e-06
0.0329864 -1.12938e-22 0.00235373 1.75232e-11
-0.0330505 -2.71051e-20 0.00123121 7.0573e-07
0.0330505 0 0.00123119 1.03716e-11
-0.03302 -2.71051e-20 0.00190069 1.23212e-06
0.03302 2.71051e-20 0.00190069 1.17801e-11
-0.0332006 -1.35525e-20 2.0216e-09 6.72782e-06
0.0332007 -2.71051e-20 2.02177e-09 4.58748e-11
-0.0333521 2.25875e-21 0.000302612 6.41283e-06
0.0333521 -9.03502e-21 0.000302604 3.83441e-11
-0.0333579 9.03502e-21 0.000916469 1.54698e-06
0.0333579 2.25875e-21 0.000916441 1.22818e-11
0.0332522 6.77626e-21 0.00281453 2.30158e-11
-0.0332522 2.37169e-20 0.00281452 4.2144e-06
-0.0333432 4.51751e-21 0.00156281 5.7239e-07
0.0333432 9.03502e-21 0.0015628 7.48907e-12
-0.0332953 0 0.00276394 4.1072e-06
0.0332953 0 0.00276393 2.04879e-11
-0.0333121 1.35525e-20 0.00282536 4.19397e-06
0.0333121 0 0.00282536 2.20199e-11
-0.03334 -1.01644e-20 0.00259806 3.8592e-06
0.03334 -1.12938e-21 0.00259806 1.93074e-11
-0.0333776 -1.12938e-20 0.00214892 1.32797e-06
0.0333777 2.25875e-21 0.00214893 7.36e-12
-0.0334909 0 2.97205e-09 7.19395e-06
0.0334909 -2.71051e-20 2.97158e-09 3.71187e-11
-0.0336619 -2.71051e-20 3.2006e-09 7.33705e-06
0.0336619 0 3.20002e-09 3.42054e-11
0.0336674 -2.71051e-20 0.000602311 2.47126e-11
-0.0336674 0 0.000602349 4.24801e-06
0.0336288 -2.71051e-20 0.00191753 1.50125e-11
-0.0336288 0 0.00191754 1.06667e-06
0.0336642 0 0.00123321 1.59426e-11
-0.0336642 -2.71051e-20 0.00123324 7.81673e-07
-0.0335885 -2.71051e-20 0.00287539 4.41847e-06
0.0335885 0 0.00287539 2.80498e-11
-0.0336882 0 0.0024221 2.71076e-06
0.0336883 0 0.00242211 1.59512e-11
-0.0338384 -1.35525e-20 2.82155e-09 7.69392e-06
0.0338384 1.35525e-20 2.82101e-09 2.81544e-11
0.0338129 -2.71051e-20 0.00291608 2.56893e-11
-0.033813 -1.35525e-20 0.00291609 5.24452e-06
-0.0339781 9.03502e-21 0.000302701 7.27307e-06
0.0339781 9.03502e-21 0.000302675 2.52086e-11
-0.0339808 -4.51751e-21 0.000914761 1.77565e-06
0.0339808 -4.51751e-21 0.000914701 1.36717e-11
0.0339745 -9.03502e-21 0.00155861 1.30581e-11
-0.0339745 -4.51751e-21 0.00155866 5.90474e-07
-0.0339481 -4.51751e-22 0.00267579 5.08622e-06
0.0339481 4.51751e-22 0.00267579 2.08306e-11
-0.0339879 -4.51751e-21 0.00215835 1.20748e-06
0.0339879 9.03502e-21 0.00215833 8.48875e-12
-0.0341105 -1.35525e-20 1.81923e-09 8.07463e-06
0.0341105 -1.35525e-20 1.81899e-09 2.5374e-11
0.0340317 0 0.00295577 2.7033e-11
-0.0340318 0 0.00295579 5.35353e-06
-0.0342884 -2.71051e-20 1.43984e-09 8.12469e-06
0.0342884 -2.71051e-20 1.43965e-09 2.80036e-11
-0.0342943 -2.71051e-20 0.000598991 4.72807e-06
0.0342943 2.71051e-20 0.000598921 2.62961e-11
0.0342171 -1.35525e-20 0.00298939 2.99843e-11
-0.0342172 2.71051e-20 0.0029894 5.13815e-06
0.0342949 0 0.00244804 1.80234e-11
-0.0342949 -2.71051e-20 0.00244805 2.69667e-06
-0.034362 2.12968e-20 0.00129504 7.60089e-07
0.034362 -3.87215e-21 0.00129496 2.50249e-11
-0.0343655 9.68038e-21 0.00179159 6.19416e-07
0.0343655 1.54886e-20 0.00179153 2.19332e-11
0.0343352 1.35525e-20 0.00301088 3.42274e-11
-0.0343353 1.35525e-20 0.00301088 5.66087e-06
-0.0344682 1.35525e-20 1.2842e-09 8.41511e-06
0.0344682 2.71051e-20 1.284e-09 2.48798e-11
-0.0345084 -4.51751e-21 0.000909454 1.85868e-06
0.0345084 -4.51751e-21 0.000909369 1.90029e-11
-0.034518 -1.807e-20 0.00215838 1.14352e-06
0.034518 -1.35525e-20 0.00215835 1.35234e-11
-0.0346072 -6.77626e-21 0.000300821 7.83804e-06
0.0346072 9.03502e-21 0.000300778 2.51567e-11
0.0346152 0 0.00154283 2.65058e-11
-0.0346152 0 0.00154291 5.16161e-07
0.034558 -4.51751e-22 0.00272776 3.39609e-11
-0.034558 -2.25875e-22 0.00272775 5.80956e-06
0.0345977 1.35525e-20 0.00305919 3.83139e-11
-0.0345978 0 0.0030592 5.51102e-06
-0.0347356 0 9.21309e-10 8.66786e-06
0.0347357 1.35525e-20 9.21242e-10 2.74399e-11
-0.0346831 1.35525e-20 0.00307472 5.18167e-06
0.0346831 6.77626e-21 0.00307474 3.82562e-11
-0.0349165 2.71051e-20 7.6471e-10 8.59894e-06
0.0349166 0 7.64643e-10 3.45562e-11
-0.0349264 4.51751e-21 0.000691164 3.58744e-06
0.0349264 -9.03502e-21 0.000691082 3.06443e-11
0.0349292 -2.25875e-21 0.00121438 3.41321e-11
-0.0349292 2.03288e-20 0.00121448 9.77837e-07
0.0349324 1.12938e-20 0.00185859 2.84586e-11
-0.0349324 -4.51751e-21 0.00185866 7.30866e-07
0.0348922 1.35525e-20 0.00311391 3.83323e-11
-0.0348922 -3.38813e-21 0.00311391 4.31489e-06
0.0349975 6.77626e-21 0.00246507 2.25339e-11
-0.0349975 -9.03502e-21 0.00246508 2.21391e-06
-0.0350985 0 7.01007e-10 8.81567e-06
0.0350985 1.35525e-20 7.00941e-10 3.40459e-11
-0.035002 0 0.00285808 3.98134e-06
0.035002 0 0.00285808 3.46278e-11
-0.0352406 -1.12938e-20 0.000295905 8.12403e-06
0.0352407 6.77626e-21 0.000295859 3.87131e-11
-0.0352487 0 0.00089372 1.43877e-06
0.0352487 -2.71051e-20 0.000893614 3.53687e-11
0.0351342 1.69407e-21 0.00315794 3.73618e-11
-0.0351343 0 0.00315795 4.01376e-06
0.0352503 0 0.00152768 4.87471e-11
-0.0352503 0 0.00152777 6.04356e-07
-0.0351477 1.69407e-21 0.00316042 3.99432e-06
0.0351478 -1.69407e-21 0.00316043 3.74803e-11
0.0351794 0 0.00281731 3.0373e-11
-0.0351794 0 0.00281732 3.32386e-06
-0.035153 0 0.00314568 3.99116e-06
0.035153 -1.69407e-21 0.00314559 3.74186e-11
0.0352564 0 0.00217228 2.1857e-11
-0.0352564 -2.71051e-20 0.00217232 8.98002e-07
-0.0353734 -1.35525e-20 5.21809e-10 8.98705e-06
0.0353735 0 5.21779e-10 4.39573e-11
-0.0352366 -1.69407e-21 0.0031769 4.15311e-06
0.0352373 -3.38813e-21 0.00317703 4.24019e-11
-0.0353097 0 0.00290011 3.40647e-06
0.0353097 1.35525e-20 0.00290013 3.21172e-11
-0.0355532 0 4.57365e-10 8.76856e-06
0.0355533 0 4.57336e-10 6.41667e-11
0.0355671 -9.03502e-21 0.00119581 7.56083e-11
-0.0355671 -2.25875e-21 0.00119592 1.11797e-06
0.0355696 9.03502e-21 0.00184838 5.71492e-11
-0.0355696 0 0.00184845 8.3865e-07
-0.0356124 2.25875e-21 0.000622322 4.78212e-06
0.0356125 2.25875e-21 0.000622242 6.88163e-11
0.0355744 -4.51751e-21 0.00250427 3.90078e-11
-0.0355744 9.03502e-21 0.00250428 2.23063e-06
-0.035529 3.38813e-21 0.0032312 4.56113e-06
0.0355292 -3.38813e-21 0.00323122 5.61387e-11
-0.0355423 0 0.00321267 4.59382e-06
0.0355424 0 0.00321273 5.6894e-11
0.0355811 -9.03502e-21 0.00287218 4.89219e-11
-0.0355811 -9.03502e-21 0.00287218 3.8046e-06
-0.035574 3.38813e-21 0.00316175 4.45789e-06
-0.0355672 0 0.0032382 4.85539e-06
0.0355741 0 0.0031619 5.63565e-11
0.0355673 0 0.00323821 6.24249e-11
-0.0357312 -1.35525e-20 4.06834e-10 8.94924e-06
0.0357313 -1.35525e-20 4.06801e-10 5.99367e-11
-0.0356064 0 0.00321772 4.79222e-06
0.0356064 0 0.00321777 6.13568e-11
0.0356195 3.38813e-21 0.00324783 6.24163e-11
-0.0356195 3.38813e-21 0.00324784 4.84062e-06
-0.0358766 0 0.000193571 9.00506e-06
0.0358767 0 0.000193555 7.54696e-11
-0.035885 0 0.000875629 1.60709e-06
0.035885 -2.71051e-20 0.000875535 1.03048e-10
-0.0358906 2.71051e-20 0.00150725 7.70954e-07
0.0358906 -2.71051e-20 0.00150716 1.02255e-10
0.0358881 -2.71051e-20 0.00216694 4.9519e-11
-0.0358881 -2.71051e-20 0.00216698 1.05236e-06
-0.0358664 0 0.00295102 4.8133e-06
0.0358665 1.35525e-20 0.00295103 7.24196e-11
-0.0360201 -1.35525e-20 2.47881e-10 9.08231e-06
0.0360202 2.71051e-20 2.47868e-10 9.5099e-11
-0.036024 6.77626e-21 0.00332287 5.76148e-06
0.0360241 0 0.00332289 1.07258e-10
-0.0361957 0 1.96858e-10 8.80629e-06
0.0361958 0 1.96841e-10 2.9655e-10
-0.0362011 -6.77626e-21 0.000563546 5.47135e-06
0.0362011 4.51751e-21 0.000563484 2.37725e-10
-0.03606 0 0.0032685 5.80271e-06
0.0360601 -1.35525e-20 0.00326857 1.12111e-10
-0.036206 0 0.00117895 1.30476e-06
0.0362061 0 0.00117887 2.40341e-10
0.0362045 2.25875e-21 0.00184383 1.24774e-10
-0.0362045 6.77626e-21 0.00184388 9.88396e-07
0.0361888 -2.25875e-21 0.00253169 8.38513e-11
-0.0361888 -2.25875e-21 0.0025317 2.63748e-06
-0.0361316 0 0.00334265 6.33949e-06
0.0361316 -1.35525e-20 0.00334265 1.4003e-10
0.0361687 -6.77626e-21 0.00293434 1.03147e-10
-0.0361687 9.03502e-21 0.00293434 4.69429e-06
0.0361567 6.77626e-21 0.00314741 1.11521e-10
-0.0361567 0 0.00314727 5.26245e-06
-0.0363723 0 1.67562e-10 9.05557e-06
0.0363723 1.35525e-20 1.67547e-10 1.82332e-10
0.0362562 0 0.00328574 1.34811e-10
-0.0362563 2.71051e-20 0.00328569 6.13636e-06
0.0363065 6.77626e-21 0.00337454 1.40272e-10
-0.0363067 1.35525e-20 0.00337456 6.26366e-06
-0.0365138 0 0.000190564 9.13559e-06
0.0365138 0 0.000190552 2.16022e-10
-0.0365218 2.71051e-20 0.000861999 1.77624e-06
0.0365219 2.71051e-20 0.000861929 4.58103e-10
-0.0365244 0 0.00149847 9.90323e-07
0.0365244 0 0.00149841 2.35185e-10
0.0365145 0 0.00218148 1.0237e-10
-0.0365145 0 0.00218151 1.10904e-06
-0.0364788 0 0.00289752 4.16193e-06
0.0364788 1.35525e-20 0.00289755 1.23201e-10
-0.0366526 0 8.42588e-11 9.23559e-06
0.0366527 0 8.42553e-11 2.54832e-10
-0.036569 -5.42101e-21 0.00323416 6.29392e-06
0.036569 1.35525e-20 0.00323419 1.67769e-10
-0.0365532 0 0.00341957 6.39125e-06
0.0365533 -1.35525e-20 0.00341959 1.6276e-10
-0.0367898 1.35525e-20 0.000598955 5.23529e-06
0.0367898 0 0.000598917 6.24547e-10
-0.036834 0 5.5588e-11 9.00279e-06
0.0368341 0 5.55862e-11 7.17677e-10
-0.0368407 -4.51751e-21 0.00116968 1.55895e-06
0.0368407 4.51751e-21 0.00116963 5.55687e-10
0.0368348 -4.51751e-21 0.00184465 2.40803e-10
-0.0368348 6.77626e-21 0.00184468 1.19787e-06
0.0368045 1.35525e-20 0.00255346 1.24929e-10
-0.0368045 -1.35525e-20 0.00255346 2.33287e-06
0.0367777 -2.71051e-20 0.00346047 2.21701e-10
-0.0367777 2.71051e-20 0.00346047 6.52249e-06
-0.0368393 4.51751e-22 0.00303407 4.57953e-06
0.0368393 1.35525e-21 0.00303408 1.43519e-10
-0.0370199 1.35525e-20 4.78303e-11 9.44358e-06
0.0370199 -1.35525e-20 4.78279e-11 4.05723e-10
-0.0371489 -2.25875e-21 0.000281507 8.74896e-06
0.0371489 -9.03502e-21 0.000281494 4.80813e-10
0.0371548 0 0.000855626 9.50006e-10
-0.0371548 -2.71051e-20 0.000855666 2.02984e-06
0.0371549 2.71051e-20 0.00149516 4.31925e-10
-0.0371549 0 0.00149519 1.33611e-06
0.0371441 0 0.00218077 1.78632e-10
-0.0371441 0 0.00218078 1.32828e-06
0.0370564 6.77626e-21 0.00351129 2.7503e-10
-0.0370564 -2.03288e-20 0.0035113 8.14091e-06
0.03727 0 2.98638e-11 4.97112e-10
-0.03727 0 2.9863e-11 9.67345e-06
-0.0371712 2.71051e-20 0.00278261 1.74352e-06
0.0371713 0 0.00278261 6.55503e-11
-0.0371159 -1.35525e-20 0.00352215 8.23547e-06
0.037116 -1.69407e-20 0.00352218 2.85922e-10
-0.0371348 4.51751e-21 0.00333173 7.51638e-06
0.0371348 0 0.00333177 2.63861e-10
-0.0374605 0 2.22234e-11 9.42625e-06
0.0374605 0 2.22235e-11 1.12302e-09
-0.0374674 0 0.000637841 4.79763e-06
0.0374674 1.35525e-20 0.000637823 1.20513e-09
0.0374702 -6.77626e-21 0.00116461 9.01399e-10
-0.0374702 4.51751e-21 0.00116464 1.91054e-06
0.0374665 -1.12938e-21 0.00183966 3.99409e-10
-0.0374665 0 0.00183967 1.56958e-06
-0.0374682 -3.38813e-21 0.00249666 1.74032e-06
0.0374682 1.12938e-21 0.00249666 1.6242e-10
-0.0374675 4.51751e-21 0.00307365 5.16978e-06
0.0374675 1.88079e-37 0.00307365 2.32686e-10
-0.0374246 2.71051e-20 0.00357844 7.79525e-06
0.0374247 1.35525e-20 0.00357845 3.59866e-10
-0.0376529 -2.71051e-20 1.86806e-11 9.99333e-06
0.0376529 -1.35525e-20 1.86807e-11 6.72424e-10
-0.0377742 1.12938e-20 0.000280154 9.26864e-06
0.0377742 6.77626e-21 0.000280151 7.63127e-10
-0.0377819 0 0.000851859 2.30756e-06
0.0377819 2.71051e-20 0.00085184 1.34848e-09
0.0377838 0 0.00149135 6.70757e-10
-0.0377838 5.42101e-20 0.00149136 1.84147e-06
-0.0376598 6.77626e-21 0.00362112 9.89483e-06
0.0376599 1.35525e-20 0.00362114 5.21189e-10
0.0377819 -2.71051e-20 0.00216934 3.02816e-10
-0.0377819 0 0.00216935 1.75934e-06
0.0377773 -5.42101e-20 0.00279682 1.17802e-10
-0.0377773 -2.71051e-20 0.00279681 2.14218e-06
0.0378849 0 1.07538e-11 7.72049e-10
-0.0378849 0 1.07533e-11 1.0173e-05
-0.0377229 -1.35525e-20 0.00353461 1.02037e-05
0.037723 -6.77626e-21 0.00353476 5.46398e-10
-0.0377797 -1.12938e-21 0.00335602 8.96313e-06
0.0377798 0 0.00335605 4.90432e-10
0.0377789 0 0.00364262 5.84473e-10
-0.037779 -6.77626e-21 0.00364263 1.00603e-05
-0.0380777 2.71051e-20 7.23455e-12 9.89259e-06
0.0380777 0 7.23493e-12 1.55694e-09
-0.0380891 9.03502e-21 0.000630694 5.30599e-06
0.0380891 0 0.00063069 1.74573e-09
-0.0380959 -2.25875e-21 0.00115829 2.44567e-06
0.0380959 4.51751e-21 0.00115829 1.33579e-09
0.0380968 3.38813e-21 0.0018338 6.25867e-10
-0.0380968 -2.25875e-21 0.0018338 2.14168e-06
-0.0379952 -1.35525e-20 0.00368181 9.14755e-06
0.0379952 1.35525e-20 0.00368182 6.52016e-10
-0.0380943 1.12938e-21 0.00250862 2.10951e-06
0.0380943 -2.25875e-21 0.00250862 2.67062e-10
-0.0380787 4.51751e-21 0.0030417 4.58301e-06
0.0380786 -4.51751e-21 0.00304173 3.16469e-10
-0.0382652 -1.35525e-20 6.08684e-12 1.03553e-05
0.0382652 -1.35525e-20 6.08729e-12 9.68262e-10
-0.0381485 0 0.00370958 9.67646e-06
0.0381486 6.77626e-21 0.0037096 8.09762e-10
-0.0383423 0 0.000233962 9.84006e-06
0.0383424 -4.51751e-21 0.000233961 1.03327e-09
-0.0384028 0 0.000843267 2.8497e-06
0.0384028 -2.71051e-20 0.000843267 2.01506e-09
0.03841 -2.71051e-20 0.00148247 1.04443e-09
-0.03841 -2.71051e-20 0.00148247 2.63435e-06
0.0384072 0 0.00217116 4.74156e-10
-0.0384072 -5.42101e-20 0.00217116 2.32604e-06
-0.0383453 4.51751e-22 0.00341218 8.82738e-06
0.0383454 3.16226e-21 0.0034122 7.85443e-10
0.0385067 -1.35525e-20 3.26257e-12 1.08522e-09
-0.0385067 1.35525e-20 3.26167e-12 1.04133e-05
-0.0384087 2.71051e-20 0.00283718 2.24179e-06
0.0384087 0 0.0028372 1.94668e-10
0.0383428 6.77626e-21 0.0037445 8.67321e-10
-0.0383428 6.77626e-21 0.0037445 9.22358e-06
-0.0384723 -1.35525e-20 0.00376794 8.5697e-06
0.0384723 1.35525e-20 0.00376795 8.19073e-10
0.038689 0 2.10859e-12 2.05725e-09
-0.038689 2.71051e-20 2.10763e-12 1.01911e-05
-0.0387011 2.25875e-21 0.000532365 7.10262e-06
0.0387011 2.25875e-21 0.000532366 2.22422e-09
-0.0387193 1.12938e-21 0.00114082 3.32844e-06
0.0387193 -2.25875e-21 0.00114082 2.23561e-09
-0.0387249 0 0.00181992 2.97143e-06
0.0387249 0 0.00181992 1.02665e-09
-0.0387232 2.25875e-21 0.00251541 2.48112e-06
0.0387232 -3.38813e-21 0.00251542 4.14523e-10
-0.0386563 1.35525e-20 0.00380866 7.33252e-06
0.0386563 6.77626e-21 0.00380867 7.92784e-10
0.0388555 1.35525e-20 1.85497e-12 1.33331e-09
-0.0388555 2.71051e-20 1.85378e-12 1.04622e-05
-0.0386905 0 0.00364409 7.48608e-06
0.0386905 1.35525e-20 0.00364412 7.75073e-10
0.0387735 -2.25875e-21 0.00324313 4.78589e-10
-0.0387735 -4.51751e-21 0.00324312 5.15998e-06
0.0389089 -2.71051e-21 0.000183068 1.34542e-09
-0.038909 1.35525e-20 0.000183055 1.04596e-05
0.0390203 2.71051e-20 0.000818063 3.77974e-09
-0.0390203 0 0.000818062 3.83212e-06
0.038876 0 0.00384256 7.18001e-10
-0.038876 0 0.00384255 7.13174e-06
-0.0390393 -2.71051e-20 0.00145448 3.8212e-06
0.0390393 2.71051e-20 0.00145449 1.81396e-09
0.0390375 0 0.00215195 7.77942e-10
-0.0390375 0 0.00215195 3.11172e-06
-0.038928 0 0.00385208 7.04517e-06
0.038928 -6.77626e-21 0.0038521 7.17735e-10
-0.0389527 3.38813e-21 0.00379162 7.05596e-06
0.0389528 0 0.00379157 7.1801e-10
-0.0390404 -2.71051e-20 0.00284503 2.31833e-06
0.0390404 0 0.00284504 2.40037e-10
0.0391596 -1.35525e-20 9.066e-13 2.82732e-09
-0.0391598 1.35525e-20 9.04288e-13 1.04038e-05
0.0391706 0 0.000114816 2.8954e-09
-0.0391707 -1.35525e-20 0.000114772 1.04016e-05
-0.0391098 1.12938e-20 0.00361355 6.78734e-06
0.0391098 9.03502e-21 0.00361357 6.82488e-10
0.0393055 1.35525e-20 6.52206e-13 4.91197e-09
-0.0393056 -1.35525e-20 6.49692e-13 1.04687e-05
0.0393117 -4.51751e-21 0.000500429 8.6562e-09
-0.0393117 0 0.000500434 7.95707e-06
0.0393492 1.12938e-21 0.00108804 7.25266e-09
-0.0393492 2.25875e-21 0.00108803 4.84889e-06
-0.0393637 1.12938e-21 0.00177645 4.11652e-06
0.0393637 -3.38813e-21 0.00177646 2.0179e-09
0.0394217 1.35525e-20 8.7629e-05 7.12072e-09
-0.0394218 0 8.75788e-05 1.08389e-05
0.0394266 0 6.05533e-13 7.02425e-09
-0.0394266 0 6.03128e-13 1.0824e-05
-0.0393554 -1.12938e-21 0.00249989 3.02544e-06
0.0393554 0 0.00249989 7.21848e-10
-0.0392461 0 0.0039114 7.98067e-06
0.0392465 1.69407e-21 0.00391149 8.41052e-10
-0.0393554 2.71051e-21 0.00323461 5.03734e-06
0.0393554 2.25875e-21 0.00323463 5.45135e-10
-0.0393295 0 0.00392838 8.18086e-06
0.0393297 0 0.0039284 8.64223e-10
-0.0393343 0 0.00392289 8.20038e-06
0.0393344 -1.69407e-21 0.00392294 8.67557e-10
-0.039341 0 0.00393113 8.24373e-06
0.0393412 0 0.00393114 8.75685e-10
-0.0393435 8.47033e-21 0.00390909 8.14806e-06
0.0393436 -1.69407e-21 0.00390918 8.62771e-10
-0.0393533 0 0.00392488 8.29352e-06
0.0393533 0 0.00392492 8.78699e-10
-0.0393598 0 0.003936 8.33035e-06
0.0393599 0 0.00393599 8.81208e-10
0.0396051 -2.71051e-20 0.000230835 8.59478e-09
-0.0396052 0 0.000230845 1.07217e-05
0.0396385 -2.71051e-20 0.000745352 2.00762e-08
-0.0396385 0 0.000745355 6.02579e-06
0.0396943 -2.71051e-20 0.00136783 4.16332e-09
-0.0396943 0 0.00136783 5.60977e-06
-0.0396774 -2.71051e-20 0.0021149 4.06985e-06
0.0396774 2.71051e-20 0.0021149 1.46944e-09
-0.039584 3.87215e-21 0.00366033 8.49469e-06
0.039584 5.80823e-21 0.00366035 9.90911e-10
-0.0396652 -2.71051e-20 0.0028356 2.67134e-06
0.0396652 2.71051e-20 0.0028356 4.38568e-10
0.0398974 -7.52918e-21 0.000433584 9.35715e-08
-0.0398974 7.52918e-21 0.000433597 1.155e-05
-0.0397723 1.35525e-20 0.00404307 9.81532e-06
0.0397724 1.35525e-20 0.00404309 1.20313e-09
-0.0398261 -1.35525e-20 0.00397859 9.89834e-06
0.0398262 -1.35525e-20 0.00397863 1.26662e-09
-0.0400266 0 5.89696e-14 1.43675e-05
0.0400285 -3.07049e-21 5.87113e-14 1.38826e-07
-0.0400315 0 6.38781e-07 1.43805e-05
-0.0400248 -7.52918e-22 0.000878018 1.04015e-05
0.0400248 5.0822e-21 0.000878006 7.32477e-08
-0.0400176 -6.58803e-22 0.0017143 6.04144e-06
0.0400177 -5.64689e-22 0.00171429 6.60283e-09
-0.0399832 -2.25875e-21 0.00248314 3.73373e-06
0.0399832 -1.12938e-21 0.00248314 1.36674e-09
-0.0399582 0 0.00322758 5.37419e-06
0.0399582 0 0.00322761 8.51397e-10
-0.0399279 -6.77626e-21 0.00368191 8.41895e-06
0.0399279 -4.51751e-21 0.00368193 1.16904e-09
-0.0399096 -1.35525e-20 0.00407855 9.81185e-06
0.0399096 1.35525e-20 0.00407855 1.32169e-09
0.0400594 1.35525e-20 0.00398559 1.43879e-09
-0.0400595 1.35525e-20 0.00398556 1.05586e-05
0.0403283 2.71051e-20 0.00130595 1.26954e-08
-0.0403283 0 0.00130595 8.63701e-06
-0.0403037 -5.42101e-20 0.00209219 5.45257e-06
0.0403037 -2.71051e-20 0.0020922 2.86849e-09
-0.0402835 -2.71051e-20 0.00284183 2.79467e-06
0.0402835 0 0.00284185 7.55213e-10
-0.0403926 -3.01167e-21 0.000332751 1.54115e-05
0.0403926 2.25875e-21 0.00033272 2.3059e-07
-0.0402358 0 0.0035945 7.44943e-06
0.0402359 0 0.00359453 1.25906e-09
-0.0402062 1.10114e-20 0.0041549 1.11339e-05
0.0402063 1.35525e-20 0.00415492 1.47671e-09
-0.0402146 5.0822e-21 0.00414562 1.11785e-05
0.0402147 -1.69407e-21 0.0041457 1.48447e-09
0.0402234 -8.47033e-22 0.00415933 1.49587e-09
-0.0402234 9.31736e-21 0.00415934 1.11589e-05
-0.0403023 -5.42101e-21 0.00393721 1.06012e-05
0.0403024 1.35525e-20 0.00393724 1.60854e-09
0.0405606 0 2.46956e-14 2.11694e-07
-0.0405608 -1.35525e-20 2.42881e-14 1.49345e-05
0.0406279 5.64689e-22 0.0017081 7.90046e-09
-0.0406279 -9.03502e-22 0.00170811 7.8978e-06
-0.0406701 9.03502e-22 0.000834172 1.43563e-05
0.0406701 -9.03502e-22 0.000834157 8.80737e-08
-0.0406057 3.38813e-21 0.00247151 4.68261e-06
0.0406057 -2.25875e-21 0.00247151 2.01258e-09
-0.0405666 -2.25875e-21 0.0032346 4.67419e-06
0.0405666 -2.25875e-21 0.00323462 9.67496e-10
0.0407119 1.35525e-20 1.9156e-14 1.60413e-07