# kMean  POINT_DATA 14060
# x  y  z  kMean
4.06576e-20 0.0106418 6.54156e-08 7.98541e-10
-4.06576e-20 -0.0106418 6.54156e-08 1.04246e-06
0 -0.0106418 0.000314253 1.12781e-06
1.69407e-21 0.0106418 0.000314436 9.64379e-10
-1.01644e-20 -0.0106418 0.000346253 1.14547e-06
-3.38813e-21 0.0106418 0.000346447 9.70673e-10
0 -0.0106418 0.000664285 1.43207e-06
2.71051e-20 0.0106418 0.000664666 9.16028e-10
-1.69407e-21 0.0106696 0.000329843 9.74719e-10
0 -0.0106696 0.000329653 1.13125e-06
-5.0822e-21 -0.0106418 0.000994701 1.98798e-06
-1.69407e-21 0.0106418 0.000995075 1.15021e-09
-1.69407e-21 -0.0106418 0.00102868 1.99985e-06
1.69407e-21 0.0106418 0.00102909 1.15883e-09
-1.35525e-20 -0.0106651 0.00100858 2.01716e-06
1.86347e-20 0.0106651 0.00100897 1.16348e-09
0 -0.0106418 0.00135925 1.69447e-06
-1.35525e-20 0.0106418 0.00135964 1.06536e-09
-3.38813e-21 -0.0106418 0.00170831 1.74564e-06
0 0.0106418 0.00170849 1.25851e-09
-6.77626e-21 -0.0106418 0.00174299 1.74598e-06
2.20229e-20 0.0106418 0.0017432 1.2682e-09
0 -0.0106634 0.00171659 1.74984e-06
6.77626e-21 0.0106634 0.00171678 1.26827e-09
0 0.0106417 0.002087 1.30051e-09
0 -0.0106417 0.002087 1.80373e-06
1.35525e-20 0.0108523 6.905e-08 9.41032e-10
2.71051e-20 -0.0108523 6.90492e-08 1.10342e-06
4.51751e-21 -0.0108537 0.000983441 1.88849e-06
0 0.0108538 0.000983846 1.10743e-09
-7.90564e-21 0.0109302 0.000328664 1.27467e-09
-5.64689e-21 -0.0109302 0.000328466 1.35086e-06
-9.03502e-21 -0.010876 0.00165246 1.71131e-06
-2.25875e-21 0.010876 0.0016527 1.20053e-09
-1.35525e-20 0.0110233 5.24961e-08 1.83431e-09
-2.03288e-20 -0.0110233 5.24971e-08 1.67471e-06
0 -0.0108444 0.00218791 2.27593e-06
-3.38813e-21 0.0108444 0.00218791 1.64124e-09
-6.77626e-21 0.010932 0.00223158 1.75992e-09
3.38813e-21 -0.010932 0.00223159 2.36221e-06
3.38813e-21 -0.0109511 0.00214941 2.36712e-06
-6.77626e-21 0.0109511 0.00214943 1.69729e-09
0 0.0111742 4.69561e-08 2.98607e-09
0 -0.0111743 4.69564e-08 2.51039e-06
-2.25875e-21 -0.0111377 0.00125157 1.22931e-06
-9.03502e-21 0.0111378 0.00125193 8.12175e-10
-6.77626e-21 -0.0111894 0.000675227 2.03512e-06
-1.01644e-20 0.0111894 0.00067554 2.09332e-09
1.35525e-20 0.0112788 0.000114381 4.04941e-09
-1.35525e-20 -0.0112788 0.000114338 3.15278e-06
0 0.0112886 3.37067e-08 4.10456e-09
1.35525e-20 -0.0112886 3.37059e-08 3.19184e-06
-6.77626e-21 -0.0111945 0.00167214 1.17072e-06
0 0.0111945 0.00167239 8.02812e-10
2.25875e-21 -0.011163 0.00198697 2.14421e-06
-5.64689e-21 0.011163 0.00198709 1.5345e-09
-2.71051e-20 0.011131 0.00233069 1.93169e-09
0 -0.011131 0.00233069 2.34977e-06
0 0.0114369 0.00031708 5.55652e-09
0 -0.0114369 0.00031693 4.10813e-06
-2.71051e-20 -0.011421 0.000929732 7.19577e-07
-2.71051e-20 0.011421 0.000930046 6.23456e-10
-2.71051e-20 -0.0114038 0.0015068 4.57183e-07
-2.71051e-20 0.0114039 0.00150708 3.01692e-10
-1.35525e-20 -0.0113457 0.00243752 2.79003e-06
1.35525e-20 0.0113457 0.00243753 2.4046e-09
-1.35525e-20 -0.0116364 1.34784e-08 5.06429e-06
-1.35525e-20 0.0116364 1.34759e-08 6.25799e-09
0 -0.0116375 9.54413e-05 5.08173e-06
0 0.0116376 9.54576e-05 6.2696e-09
0 -0.0114303 0.0024797 2.8389e-06
-6.77626e-21 0.0114304 0.00247971 2.43072e-09
5.64689e-21 -0.0115074 0.00225281 2.56634e-06
4.51751e-21 0.0115075 0.00225288 2.16727e-09
-1.35525e-20 -0.0117301 3.25942e-09 5.50324e-06
0 0.0117301 3.26008e-09 6.47668e-09
0 -0.0117195 0.000610229 3.24354e-06
-6.77626e-21 0.0117195 0.000610449 3.72281e-09
4.51751e-21 -0.0117028 0.00122422 6.60824e-07
-9.03502e-21 0.0117028 0.00122449 5.53317e-10
0 0.0118194 8.97007e-05 6.74624e-09
-1.35525e-20 -0.0118195 8.9705e-05 5.93242e-06
0 0.01182 3.03178e-09 6.75019e-09
0 -0.01182 3.03111e-09 5.94019e-06
-4.51751e-21 -0.0116772 0.0018372 1.11233e-06
2.25875e-21 0.0116772 0.00183735 8.17909e-10
0 -0.0116033 0.00256579 2.81804e-06
2.71051e-20 0.0116033 0.00256582 2.19751e-09
-2.71051e-20 0.0120204 0.00030712 7.5253e-09
-2.71051e-20 -0.0120205 0.000307029 6.98616e-06
0 -0.0117485 0.00263815 3.17622e-06
-1.35525e-20 0.0117486 0.00263817 2.36553e-09
0 -0.0120156 0.000917001 1.06602e-06
0 0.0120156 0.000917181 1.03443e-09
1.50584e-21 -0.0118318 0.00229966 2.2234e-06
0 0.0118319 0.00229972 1.71628e-09
0 -0.0117786 0.00256188 3.12249e-06
0 0.0117787 0.00256192 2.34099e-09
0 -0.0119886 0.00155401 4.10491e-07
2.71051e-20 0.0119887 0.00155417 2.68202e-10
0 -0.012032 0.00210267 7.32688e-07
0 0.012032 0.00210275 4.67546e-10
0 0.0122392 1.95024e-09 7.94214e-09
-1.35525e-20 -0.0122393 1.95023e-09 7.83793e-06
1.35525e-20 0.0122409 8.16763e-05 7.94485e-09
-1.35525e-20 -0.012241 8.16705e-05 7.84088e-06
0 -0.011987 0.00253932 3.19125e-06
-2.71051e-20 0.0119871 0.00253936 2.28581e-09
0 0.012321 1.74247e-09 8.15489e-09
0 -0.0123211 1.74247e-09 8.15044e-06
0 -0.0120123 0.00276923 4.09224e-06
0 0.0120124 0.00276924 3.04483e-09
4.51751e-21 -0.0123328 0.00060351 4.77188e-06
0 0.0123328 0.000603616 4.70707e-09
0 -0.0120725 0.00270714 4.1414e-06
-1.35525e-20 0.0120726 0.00270715 3.0967e-09
4.51751e-21 -0.0123288 0.00123239 8.93794e-07
2.25875e-21 0.0123288 0.00123252 7.54578e-10
1.35525e-20 0.0124027 1.58608e-09 8.35275e-09
-1.35525e-20 -0.0124029 1.58605e-09 8.4698e-06
0 0.012405 7.77949e-05 8.35042e-09
1.35525e-20 -0.0124051 7.77972e-05 8.46532e-06
9.03502e-21 -0.0123346 0.00185417 6.75142e-07
-1.12938e-21 0.0123346 0.00185426 4.45793e-10
0 -0.0121505 0.00283802 4.52306e-06
-1.35525e-20 0.0121505 0.00283803 3.57176e-09
-1.12938e-21 -0.0123063 0.00240165 2.80394e-06
3.38813e-21 0.0123064 0.00240169 2.13966e-09
-1.35525e-20 -0.0122683 0.00289782 5.49644e-06
-1.35525e-20 0.0122684 0.00289784 4.64011e-09
1.35525e-20 -0.0123167 0.00277203 5.28385e-06
-1.35525e-20 0.0123167 0.00277205 4.39215e-09
0 0.0126427 0.000300471 8.78254e-09
0 -0.0126428 0.000300435 9.35725e-06
2.71051e-20 -0.0126591 0.000913392 1.50753e-06
-2.71051e-20 0.012659 0.000913471 1.29869e-09
2.71051e-20 -0.0126618 0.00155274 5.81169e-07
0 0.0126618 0.00155281 4.06545e-10
2.71051e-20 -0.0125263 0.00271731 6.05127e-06
0 0.0125263 0.00271734 5.00527e-09
2.71051e-20 0.0124665 0.00299812 5.22169e-09
-1.35525e-20 -0.0124665 0.00299814 6.01584e-06
0 -0.0126643 0.00218644 9.81453e-07
2.71051e-20 0.0126643 0.00218649 6.47492e-10
6.77626e-21 0.0128706 4.59712e-10 9.21798e-09
-6.77626e-21 -0.0128707 4.59687e-10 9.97481e-06
0 0.0128741 6.76249e-05 9.21879e-09
-6.77626e-21 -0.0128742 6.76189e-05 9.97584e-06
-2.71051e-20 0.0125733 0.00289917 5.13825e-09
1.35525e-20 -0.0125733 0.00289922 5.95029e-06
1.35525e-20 0.0129417 3.22177e-10 9.31034e-09
0 -0.0129418 3.22144e-10 1.01377e-05
-1.35525e-20 0.0125996 0.00306574 4.99697e-09
0 -0.0125996 0.00306572 5.64517e-06
-1.12938e-21 0.0129729 0.000593308 5.44823e-09
-2.25875e-21 -0.0129729 0.000593273 6.0066e-06
0 0.0130097 3.00406e-10 9.4158e-09
-6.77626e-21 -0.0130097 3.00375e-10 1.03189e-05
0 0.0130126 6.19331e-05 9.41409e-09
0 -0.0130126 6.19352e-05 1.03154e-05
1.12938e-21 -0.0129928 0.00122118 1.30542e-06
1.12938e-21 0.0129928 0.00122123 1.00871e-09
0 -0.0127131 0.00312274 5.914e-06
0 0.0127131 0.00312278 5.26894e-09
-1.35525e-20 -0.0127497 0.00301636 5.8799e-06
-1.35525e-20 0.0127497 0.00301635 5.19795e-09
-2.25875e-21 -0.0129973 0.00187881 9.53318e-07
-2.25875e-21 0.0129973 0.00187885 5.36151e-10
-4.96926e-21 -0.0129622 0.00258487 3.26902e-06
-9.03502e-22 0.0129622 0.0025849 2.57898e-09
2.71051e-20 -0.0129338 0.00296499 5.66192e-06
2.71051e-20 0.0129338 0.00296502 5.13524e-09
0 0.0132745 0.000290697 9.86228e-09
2.71051e-20 -0.0132746 0.000290697 1.09423e-05
0 0.0133097 0.000892132 1.66286e-09
0 -0.0133098 0.000892103 2.01764e-06
-6.77626e-21 -0.0129628 0.00324855 5.75702e-06
6.77626e-21 0.0129628 0.00324857 5.02476e-09
0 -0.0130138 0.00319442 5.71787e-06
6.77626e-21 0.0130138 0.00319445 4.9524e-09
0 -0.0133311 0.00153426 1.09432e-06
5.42101e-20 0.0133311 0.0015343 6.50514e-10
-1.35525e-20 -0.0130334 0.00328409 5.60091e-06
0 0.0130335 0.00328412 4.69483e-09
0 -0.0133253 0.00221294 1.15281e-06
-2.71051e-20 0.0133254 0.00221295 4.43842e-10
6.77626e-21 -0.0130971 0.00331595 5.8269e-06
-6.77626e-21 0.0130971 0.00331598 4.75723e-09
1.35525e-20 -0.0131128 0.00327452 5.7961e-06
0 0.0131128 0.00327455 4.74643e-09
0 0.0135215 4.37567e-11 1.00636e-08
-6.77626e-21 -0.0135215 4.37417e-11 1.09374e-05
6.77626e-21 0.013525 4.46982e-05 1.00641e-08
0 -0.013525 4.46896e-05 1.09366e-05
7.52918e-22 -0.01322 0.00300113 4.36151e-06
2.25875e-21 0.01322 0.00300115 3.51378e-09
0 -0.0135708 2.7414e-11 1.09191e-05
0 0.0135708 2.74242e-11 1.00736e-08
0 -0.0136156 2.60779e-11 1.09239e-05
6.77626e-21 0.0136156 2.60872e-11 1.01019e-08
6.77626e-21 -0.0136174 3.86816e-05 1.09233e-05
0 0.0136174 3.86925e-05 1.01019e-08
-2.25875e-21 0.013613 0.000567026 6.38006e-09
0 -0.0136131 0.000567017 6.76017e-06
-2.71051e-20 -0.0133842 0.00278357 1.70169e-06
2.71051e-20 0.0133842 0.00278359 9.90869e-10
-2.25875e-21 0.0136535 0.00118312 1.85405e-09
-5.64689e-22 -0.0136536 0.00118311 2.253e-06
2.71051e-20 -0.0133578 0.00322878 5.67851e-06
-5.42101e-20 0.0133579 0.00322881 4.39063e-09
-2.25875e-21 -0.0136671 0.00185452 1.91561e-06
-4.51751e-21 0.0136672 0.00185453 8.63411e-10
1.35525e-20 -0.0134202 0.00347787 7.28594e-06
0 0.0134203 0.00347791 6.0903e-09
0 -0.0134522 0.00343713 7.31292e-06
0 0.0134523 0.00343717 6.13489e-09
0 0.0139 0.000270267 1.03137e-08
-2.71051e-20 -0.0139 0.000270258 1.09104e-05
5.64689e-22 -0.0136756 0.0025133 1.90975e-06
0 0.0136756 0.00251332 8.48537e-10
0 -0.0134921 0.00351385 7.54111e-06
-1.35525e-20 0.0134922 0.00351387 6.59158e-09
-2.71051e-20 0.0139532 0.000842554 3.46826e-09
-5.42101e-20 -0.0139532 0.000842545 2.94206e-06
5.64689e-22 -0.0136462 0.00307161 4.90851e-06
-5.64689e-22 0.0136463 0.00307162 3.92023e-09
0 -0.0135602 0.00354792 8.35241e-06
-6.77626e-21 0.0135603 0.00354795 7.77611e-09
0 -0.0135939 0.00346713 8.18906e-06
-1.35525e-20 0.013594 0.00346717 7.52137e-09
-2.71051e-20 0.0139954 0.00147861 1.59513e-09
0 -0.0139954 0.00147861 2.90936e-06
5.42101e-20 -0.0139994 0.00216676 2.50852e-06
0 0.0139994 0.00216678 7.79061e-10
0 0.0141777 1.4792e-12 1.2144e-08
-1.69407e-21 -0.0141778 1.47682e-12 9.70713e-06
0 0.0141787 1.2541e-05 1.21456e-08
0 -0.0141789 1.25123e-05 9.70599e-06
-1.69407e-21 0.0141923 1.02466e-12 1.22321e-08
1.69407e-21 -0.0141924 1.02347e-12 9.64675e-06
0 0.0142041 9.50757e-06 1.23623e-08
0 -0.0142042 9.48552e-06 9.59849e-06
0 0.0142051 1.0097e-12 1.23626e-08
-1.69407e-21 -0.0142052 1.00857e-12 9.59838e-06
-1.69407e-22 0.0142399 0.000510993 1.43609e-08
5.64689e-23 -0.01424 0.000510997 7.49687e-06
0 -0.0138494 0.00338134 9.5485e-06
0 0.0138495 0.00338137 8.87667e-09
-2.71051e-20 -0.0139915 0.00283632 2.31878e-06
5.42101e-20 0.0139915 0.00283633 1.16615e-09
0 -0.0138215 0.00367867 9.3779e-06
-1.35525e-20 0.0138216 0.0036787 9.1952e-09
0 0.0143091 0.00109617 8.49852e-09
2.82344e-22 -0.0143102 0.00109467 5.93377e-06
-1.35525e-20 -0.013893 0.00360484 9.3269e-06
0 0.0138931 0.00360489 9.09235e-09
0 -0.0143537 7.6488e-13 1.09601e-05
-1.69407e-21 0.0143541 7.64998e-13 3.82652e-08
-1.35525e-20 -0.0139056 0.00372066 8.99311e-06
0 0.0139057 0.00372068 8.85848e-09
1.41172e-21 -0.0143405 0.00177729 5.13484e-06
-8.47033e-22 0.0143405 0.0017773 2.42466e-09
-2.71051e-20 0.014476 0.000224599 1.41363e-08
-5.42101e-20 -0.0144761 0.000224598 8.39504e-06
0 -0.0139819 0.00376071 9.30442e-06
0 0.013982 0.00376072 9.18882e-09
0 -0.0140112 0.00368366 9.27506e-06
1.35525e-20 0.0140113 0.0036837 9.10862e-09
1.12938e-21 -0.0143223 0.00249857 3.28768e-06
1.69407e-21 0.0143224 0.00249858 1.18198e-09
-2.71051e-20 0.014582 0.000746675 2.06607e-08
2.71051e-20 -0.0145821 0.000746673 6.90143e-06
1.807e-21 -0.0142718 0.00323775 5.76208e-06
-4.51751e-22 0.0142719 0.00323777 4.53712e-09
0 -0.0142272 0.00361841 8.89357e-06
2.71051e-20 0.0142272 0.00361844 8.94031e-09
0 0.0146963 0.000425145 7.92895e-08
3.01167e-21 -0.0146964 0.000425144 1.19332e-05
0 0.0146847 0.00134648 5.59973e-09
0 -0.0146847 0.00134648 1.02513e-05
0 0.014768 2.53725e-05 9.97463e-08
0 -0.0147681 2.54118e-05 1.39157e-05
0 0.0147706 9.09601e-14 9.95936e-08
0 -0.0147706 9.09569e-14 1.39053e-05
-6.77626e-21 0.0148059 6.69883e-15 1.10939e-07
0 -0.014806 6.66559e-15 1.45963e-05
0 -0.014659 0.00210816 5.11174e-06
0 0.014659 0.00210816 1.95617e-09
-6.77626e-21 -0.0142865 0.00391553 9.13577e-06
0 0.0142866 0.00391558 8.49893e-09
0 -0.0143135 0.00388585 9.11462e-06
-6.77626e-21 0.0143136 0.00388592 8.43129e-09
0 0.0148347 4.54511e-05 1.23612e-07
0 -0.0148348 4.55279e-05 1.52494e-05
0 0.0148461 5.76636e-15 1.24001e-07
0 -0.0148463 5.73764e-15 1.52671e-05
0 -0.0143216 0.00393365 9.029e-06
0 0.0143217 0.00393369 8.16514e-09
-6.77626e-21 -0.0143519 0.00395506 9.2886e-06
6.77626e-21 0.0143519 0.00395508 8.13581e-09
0 -0.014364 0.00393203 9.2531e-06
0 0.0143641 0.00393207 8.13575e-09
-2.71051e-20 -0.014635 0.00283843 3.30386e-06
0 0.014635 0.00283845 8.72728e-10
8.47033e-21 0.0144995 0.00366943 6.08052e-09
8.47033e-22 0.0145102 0.00366649 5.95743e-09
5.64689e-22 -0.0145197 0.00367384 7.2439e-06
2.71051e-20 0.0150122 0.000330156 2.00572e-07
0 -0.0150123 0.000330152 2.01601e-05
1.69407e-21 0.0145873 0.00370018 5.92701e-09
-2.71051e-20 -0.0146766 0.00345532 3.68625e-06
5.42101e-20 0.0146766 0.00345534 1.66656e-09
1.69407e-22 0.0150077 0.00170828 7.87537e-09
-5.64689e-22 -0.0150077 0.00170827 1.18114e-05
6.32451e-21 0.0150925 0.000854694 7.85045e-08
9.93852e-21 -0.0150925 0.000854681 2.02412e-05
5.42101e-20 -0.0146272 0.00391091 9.15204e-06
0 0.0146272 0.00391095 7.39807e-09
1.01644e-21 -0.0149891 0.00242097 6.83596e-06
-1.24231e-21 0.0149891 0.00242099 2.43295e-09
8.47033e-22 -0.0149586 0.00315962 4.66426e-06
-3.76459e-22 0.0149587 0.00315962 1.64092e-09
-6.77626e-21 -0.014702 0.00420283 9.51885e-06
0 0.0147021 0.00420291 9.00718e-09
-6.77626e-21 -0.0152975 8.17222e-05 2.9021e-05
-6.77626e-21 0.0152978 8.14897e-05 1.76526e-07
-6.77626e-21 -0.0147323 0.00417569 9.47197e-06
0 0.0147325 0.0041758 9.03612e-09
1.35525e-20 -0.015314 2.16441e-15 2.89325e-05
1.35525e-20 0.0153142 2.17317e-15 1.76762e-07
0 -0.0147475 0.004235 9.30763e-06
0 0.0147476 0.00423506 9.24871e-09
0 -0.014778 0.00425658 8.94495e-06
-6.77626e-21 0.0147781 0.00425663 9.00841e-09
0 -0.014793 0.00422587 8.9604e-06
6.77626e-21 0.0147931 0.00422594 9.02703e-09
0 0.0153882 1.38149e-16 1.67993e-07
0 -0.0153882 1.36928e-16 3.19771e-05
1.35525e-20 0.0154217 0.000114547 1.60535e-07
-6.77626e-21 -0.0154218 0.000114884 3.46619e-05
0 -0.0149638 0.00384024 7.14958e-06
-9.41148e-22 0.0149638 0.00384027 5.80808e-09
-6.77626e-21 0.0154552 2.28099e-16 1.60207e-07
-6.77626e-21 -0.0154554 2.28503e-16 3.4769e-05
0 -0.0148468 0.00430527 8.91516e-06
6.77626e-21 0.0148469 0.00430529 9.13576e-09
0 0.0154606 0.00140664 1.89629e-08
-2.71051e-20 -0.0154606 0.00140663 2.09736e-05
2.71051e-20 -0.0152777 0.00281385 5.77558e-06
0 0.0152777 0.00281386 1.60089e-09
2.71051e-20 0.0154333 0.00193355 6.80374e-09
-2.71051e-20 -0.0154333 0.00193355 1.67041e-05
0 0.0156222 0.00048004 1.28523e-07
-2.71051e-20 -0.0156222 0.000480036 4.6538e-05
2.71051e-20 -0.0152555 0.00350076 4.89787e-06
2.71051e-20 0.0152556 0.00350079 1.32287e-09
-1.35525e-20 -0.0150546 0.00445233 8.46829e-06
6.77626e-21 0.0150547 0.00445239 1.0257e-08
0 0.0157269 1.65675e-16 1.42957e-07
6.77626e-21 -0.0157276 1.66089e-16 4.371e-05
8.47033e-22 -0.0151604 0.00422301 8.34429e-06
2.82344e-22 0.0151605 0.00422311 1.02816e-08
1.35525e-20 0.0156637 0.00166709 1.3858e-08
1.35525e-20 -0.0156637 0.00166709 1.9991e-05
-3.38813e-22 -0.015616 0.00242546 1.29848e-05
3.38813e-22 0.015616 0.00242547 4.02334e-09
-5.64689e-22 0.0157781 0.000921737 7.45544e-08
7.52918e-22 -0.0157782 0.000921692 3.7672e-05
5.64689e-22 -0.0155828 0.00315318 8.34884e-06
-5.64689e-22 0.0155828 0.00315319 1.68076e-09
6.77626e-21 -0.0152441 0.00458644 1.01657e-05
0 0.0152443 0.00458654 1.04563e-08
-6.77626e-21 0.0159533 3.83645e-05 1.24187e-07
-6.77626e-21 -0.0159534 3.82981e-05 5.20507e-05
2.71051e-20 0.015843 0.00192285 8.13768e-09
2.71051e-20 -0.015843 0.00192286 1.8399e-05
0 0.0159594 2.87839e-17 1.24149e-07
-6.77626e-21 -0.0159594 2.84889e-17 5.20627e-05
-2.71051e-20 0.0159064 0.00142308 2.1248e-08
2.71051e-20 -0.0159064 0.00142306 2.45021e-05
-1.12938e-21 -0.0155142 0.00388452 7.73875e-06
0 0.0155142 0.00388456 4.35997e-09
-1.35525e-20 -0.0153266 0.00464478 1.05772e-05
0 0.0153267 0.00464485 1.04759e-08
0 -0.01535 0.0046163 1.06289e-05
-1.35525e-20 0.0153501 0.00461639 1.05526e-08
0 -0.0153665 0.00467306 1.11081e-05
-1.35525e-20 0.0153666 0.00467311 1.12061e-08
-2.71051e-20 0.0160927 0.000505085 1.19624e-07
0 -0.0160928 0.000505072 5.72914e-05
-6.77626e-21 -0.0154309 0.00471863 1.2058e-05
1.35525e-20 0.015431 0.00471864 1.24626e-08
6.77626e-21 -0.0161373 9.11538e-18 5.65906e-05
0 0.0161376 9.31637e-18 1.22017e-07
-1.35525e-20 -0.0154622 0.00464659 1.18531e-05
0 0.0154622 0.00464666 1.22059e-08
-7.05861e-22 -0.0155558 0.00433293 9.53262e-06
2.82344e-22 0.0155559 0.00433296 8.10551e-09
0 -0.0159329 0.00276854 1.38149e-05
0 0.0159329 0.00276855 2.71603e-09
5.42101e-20 -0.015876 0.00349495 9.1437e-06
0 0.015876 0.00349497 1.15663e-09
2.82344e-22 -0.0163022 0.00169287 3.27464e-05
1.41172e-22 0.0163022 0.00169287 1.46328e-08
5.42101e-20 -0.0158805 0.00413133 7.09339e-06
-2.71051e-20 0.0158806 0.00413135 2.03375e-09
-2.71051e-20 -0.0157464 0.00463062 1.36637e-05
2.71051e-20 0.0157465 0.00463067 1.29045e-08
-1.35525e-20 -0.0156844 0.004898 1.35072e-05
-1.35525e-20 0.0156845 0.0048981 1.33186e-08
0 -0.0164403 0.000192195 6.49949e-05
0 0.0164404 0.000192073 1.16949e-07
-1.35525e-20 -0.0164599 2.18737e-18 6.48745e-05
1.35525e-20 0.0164599 2.23707e-18 1.17079e-07
1.12938e-21 -0.0163055 0.00229239 2.65799e-05
0 0.0163055 0.00229239 6.40073e-09
0 -0.0157621 0.0048391 1.34873e-05
1.35525e-20 0.0157621 0.00483922 1.31426e-08
0 -0.0164587 0.00103727 5.35221e-05
6.77626e-21 0.0164587 0.00103728 6.66172e-08
1.12938e-22 -0.0162201 0.00310503 1.93874e-05
3.38813e-22 0.0162201 0.00310505 2.76962e-09
-2.71051e-20 -0.0157673 0.00495663 1.32561e-05
0 0.0157673 0.00495668 1.28228e-08
1.35525e-20 0.0165552 1.89118e-18 1.15346e-07
1.35525e-20 -0.0165552 1.82985e-18 6.7991e-05
1.35525e-20 0.0158425 0.00500991 1.33457e-08
-1.35525e-20 -0.0158425 0.00500989 1.39621e-05
0 0.0158774 0.00492677 1.31997e-08
0 -0.0158775 0.00492671 1.38702e-05
-2.25875e-21 -0.0161858 0.00381853 1.32099e-05
5.64689e-22 0.0161859 0.00381855 1.65571e-09
0 0.0166929 0.000101665 1.10664e-07
1.35525e-20 -0.0166931 0.000101735 7.19078e-05
-1.35525e-20 0.0166941 -1.9757e-18 1.10666e-07
1.35525e-20 -0.0166943 -1.99904e-18 7.19032e-05
9.03502e-22 -0.0161388 0.00451629 1.17443e-05
-1.12938e-21 0.0161388 0.00451633 6.69128e-09
0 -0.0165511 0.0027628 2.8543e-05
0 0.0165511 0.0027628 4.30555e-09
2.71051e-20 -0.0160804 0.00488839 1.34426e-05
0 0.0160804 0.00488844 1.286e-08
-5.42101e-20 -0.0165195 0.00345964 2.41493e-05
-2.71051e-20 0.0165195 0.00345965 2.07131e-09
0 -0.0160927 0.00518691 1.51275e-05
0 0.0160929 0.00518705 1.26985e-08
0 -0.0161328 0.00514885 1.51574e-05
0 0.0161329 0.00514907 1.25609e-08
6.77626e-21 -0.0161376 0.0052187 1.53199e-05
6.77626e-21 0.0161377 0.00521878 1.20974e-08
-2.71051e-20 -0.0164852 0.00415081 1.31878e-05
0 0.0164853 0.00415084 1.37902e-09
-6.77626e-21 -0.0161812 0.00524952 1.64449e-05
-6.77626e-21 0.0161812 0.00524953 1.20989e-08
-6.77626e-21 -0.0162 0.00521518 1.62772e-05
0 0.0162 0.00521526 1.20868e-08
0 0.0169483 0.00175217 1.33836e-08
-5.42101e-20 -0.0169483 0.00175217 5.64115e-05
-1.41172e-22 0.0168946 0.00247379 7.30328e-09
-2.82344e-22 -0.0168959 0.00247492 4.32976e-05
0 0.0170685 0.000542394 1.05241e-07
-5.42101e-20 -0.0170686 0.000542393 8.51238e-05
-5.64689e-22 -0.016348 0.00494369 1.38412e-05
1.41172e-22 0.0163681 0.00495112 8.92709e-09
8.47033e-22 -0.0168537 0.00309992 3.55754e-05
-2.82344e-22 0.0168537 0.00309993 4.41273e-09
0 -0.0165271 0.00473647 1.08193e-05
-2.71051e-20 0.0165271 0.0047365 2.55403e-09
5.64689e-22 -0.0168198 0.00379489 2.73022e-05
0 0.0168198 0.00379489 2.64319e-09
0 -0.0164532 0.00518907 1.74078e-05
0 0.0164532 0.0051891 1.13904e-08
-1.35525e-20 -0.0164986 0.00547411 1.87247e-05
1.35525e-20 0.0164987 0.0054742 1.37629e-08
0 -0.0168074 0.0044544 1.79016e-05
-3.38813e-21 0.0168075 0.00445442 2.29142e-09
1.35525e-20 -0.0165401 0.00543882 1.86119e-05
1.35525e-20 0.0165402 0.00543896 1.38299e-08
2.71051e-20 0.0171982 0.00274291 6.93027e-09
-2.71051e-20 -0.0171982 0.00274291 5.03281e-05
0 -0.0165562 0.00551488 1.82414e-05
0 0.0165562 0.0055149 1.42679e-08
0 -0.0171475 0.00343443 3.93581e-05
5.42101e-20 0.0171475 0.00343443 4.3473e-09
0 0.0165954 0.00554259 1.37929e-08
-1.35525e-20 -0.0165954 0.00554261 1.7403e-05
0 0.0166162 0.00550295 1.38333e-08
-1.35525e-20 -0.0166162 0.00550291 1.7443e-05
8.47033e-23 -0.0167942 0.00511228 1.64477e-05
-6.27432e-22 0.0168034 0.00511576 8.88533e-09
0 0.0166838 0.00560512 1.41108e-08
-6.77626e-21 -0.0166839 0.00560521 1.79188e-05
-5.42101e-20 -0.0171381 0.00410853 3.24028e-05
0 0.0171382 0.00410853 2.78946e-09
6.77626e-21 -0.0176356 5.15747e-05 9.29441e-05
-6.77626e-21 0.0176356 5.15594e-05 1.07354e-07
0 -0.0176365 -8.88394e-19 9.29486e-05
0 0.0176365 -8.80501e-19 1.07354e-07
-1.12938e-21 -0.0176257 0.00114318 8.51769e-05
0 0.0176257 0.00114318 6.23109e-08
-6.77626e-21 0.017701 -1.17471e-20 1.06989e-07
0 -0.017701 -1.19998e-20 9.40419e-05
0 0.0177564 5.70206e-05 1.07223e-07
6.77626e-21 -0.0177564 5.70366e-05 9.50072e-05
0 -0.0174948 0.00304299 5.28449e-05
-7.05861e-23 0.0174948 0.003043 7.9119e-09
-2.71051e-20 -0.0171005 0.00478727 1.67428e-05
2.71051e-20 0.0171005 0.00478729 2.45597e-09
0 0.01776 -9.77488e-21 1.07221e-07
0 -0.01776 -9.99454e-21 9.50148e-05
-5.64689e-22 -0.0176226 0.00231708 6.62806e-05
0 0.0176226 0.00231708 1.21375e-08
6.77626e-21 -0.016865 0.00573336 1.83629e-05
1.35525e-20 0.0168651 0.00573338 1.56506e-08
-1.12938e-21 -0.0169917 0.00554745 1.8512e-05
0 0.0169918 0.00554746 1.6109e-08
0 -0.0175404 0.00368248 4.55757e-05
1.12938e-21 0.0175404 0.00368248 6.21053e-09
-5.64689e-22 -0.0174309 0.00445116 3.44072e-05
5.64689e-22 0.0174309 0.00445117 4.18047e-09
1.35525e-20 -0.0170276 0.00584842 2.14796e-05
0 0.0170278 0.0058485 1.63675e-08
-3.38813e-21 -0.0173594 0.00515914 2.391e-05
2.25875e-21 0.0173594 0.00515917 7.3952e-09
1.35525e-20 -0.0171315 0.00592198 2.29465e-05
0 0.0171316 0.00592202 1.66085e-08
-1.35525e-20 -0.0171628 0.0058861 2.30699e-05
2.71051e-20 0.0171629 0.00588616 1.6771e-08
0 -0.0171821 0.00595789 2.44379e-05
-1.35525e-20 0.0171822 0.00595791 1.82007e-08
2.71051e-20 -0.017769 0.00410415 4.94058e-05
0 0.017769 0.00410415 7.38074e-09
-5.42101e-20 -0.0182634 0.000578943 0.000102527
-1.0842e-19 0.0182634 0.000578939 1.09381e-07
0 0.0173972 0.0056105 1.32577e-08
0 -0.0173983 0.00561199 2.33639e-05
0 -0.0172648 0.00601707 2.6896e-05
0 0.0172648 0.00601705 2.10201e-08
-1.35525e-20 -0.0173077 0.00592609 2.63149e-05
0 0.0173077 0.00592612 2.04318e-08
0 0.0182204 0.00175681 1.81482e-08
5.42101e-20 -0.0182204 0.00175681 9.52166e-05
-5.42101e-20 -0.0177285 0.00478169 3.91128e-05
5.42101e-20 0.0177285 0.0047817 4.16387e-09
5.42101e-20 -0.0181282 0.00306192 7.14281e-05
-5.42101e-20 0.0181282 0.00306192 1.30288e-08
9.88205e-22 0.0181211 0.00374048 1.47757e-08
-7.05861e-22 -0.0181211 0.00374048 6.62603e-05
-5.42101e-20 -0.0177324 0.00540771 2.39353e-05
2.71051e-20 0.0177325 0.00540772 4.05126e-09
-2.71051e-20 -0.0174849 0.00617225 3.00282e-05
1.35525e-20 0.0174849 0.00617229 2.28579e-08
0 -0.0175758 0.00590987 3.04986e-05
0 0.0175758 0.00590988 2.19795e-08
-5.64689e-22 -0.0180729 0.00442473 5.56905e-05
0 0.0180729 0.00442474 1.15149e-08
0 -0.0175826 0.00610029 3.00345e-05
-1.35525e-20 0.0175826 0.00610033 2.25736e-08
0 -0.0175873 0.00624642 2.97275e-05
2.71051e-20 0.0175873 0.00624644 2.21812e-08
-1.12938e-21 -0.018047 0.00508937 4.16374e-05
-1.69407e-21 0.018047 0.00508938 7.20186e-09
0 0.017673 0.00632955 2.35672e-08
0 -0.017673 0.00632954 3.04375e-05
-2.71051e-20 0.0177235 0.00621993 2.31362e-08
0 -0.0177235 0.00621991 3.03599e-05
0 0.0188362 3.90693e-05 1.14836e-07
-6.77626e-21 -0.0188362 3.90686e-05 0.000109089
-6.77626e-21 -0.0188376 -1.39629e-21 0.00010908
6.77626e-21 0.0188376 -1.37533e-21 1.14827e-07
-2.71051e-20 0.0184191 0.00406131 2.03942e-08
2.71051e-20 -0.0184191 0.0040613 7.55695e-05
0 -0.0188782 -3.44889e-23 0.000109607
6.77626e-21 0.0188782 -3.56432e-23 1.1534e-07
-5.64689e-22 -0.0188457 0.00115779 0.000114758
5.64689e-22 0.0188457 0.00115779 6.86493e-08
-3.61401e-21 -0.017989 0.00579611 3.20814e-05
-2.71051e-21 0.017989 0.00579611 1.25827e-08
0 -0.0189173 3.90222e-05 0.00011009
6.77626e-21 0.0189173 3.90242e-05 1.157e-07
6.77626e-21 -0.0189184 -4.2274e-23 0.000110092
6.77626e-21 0.0189184 -4.34052e-23 1.15701e-07
8.47033e-22 -0.0188016 0.00239367 0.000110942
2.82344e-22 0.0188016 0.00239367 2.32988e-08
2.71051e-20 -0.0179168 0.00619826 2.98329e-05
0 0.0179168 0.00619827 2.2976e-08
0 -0.0178342 0.00647803 3.13928e-05
1.35525e-20 0.0178342 0.00647805 2.341e-08
2.71051e-20 -0.0183812 0.00473969 5.88488e-05
0 0.0183812 0.00473969 1.40937e-08
0 -0.0179161 0.00640623 3.15228e-05
2.71051e-20 0.0179161 0.00640626 2.297e-08
0 -0.0179071 0.00654735 3.115e-05
1.35525e-20 0.0179071 0.00654736 2.09416e-08
-1.12938e-21 0.0187899 0.00359346 3.01502e-08
-2.25875e-21 -0.0187899 0.00359346 8.97639e-05
-2.71051e-20 -0.0183614 0.0054084 4.53883e-05
2.71051e-20 0.0183614 0.0054084 6.75406e-09
1.35525e-20 0.0179797 0.00661798 2.2413e-08
0 -0.0179797 0.00661798 3.33867e-05
0 0.0180436 0.00652848 2.21801e-08
0 -0.0180436 0.00652847 3.30836e-05
1.41172e-22 -0.0187173 0.00436434 7.66109e-05
-1.27055e-21 0.0187173 0.00436434 2.79503e-08
-1.50584e-21 -0.018177 0.00625308 3.21029e-05
1.50584e-21 0.018177 0.00625308 1.67623e-08
0 -0.0181271 0.00676144 3.35684e-05
1.35525e-20 0.0181271 0.00676146 2.21256e-08
2.71051e-20 -0.0183874 0.00602484 3.20621e-05
-2.71051e-20 0.0183874 0.00602485 5.29159e-09
2.71051e-20 -0.0182481 0.00651393 3.45894e-05
0 0.0182481 0.00651394 2.14019e-08
4.94103e-22 0.0187359 0.00501818 2.26825e-08
6.35275e-22 -0.0187359 0.00501817 6.21299e-05
-1.35525e-20 -0.0182332 0.00669844 3.32805e-05
0 0.0182332 0.00669846 2.17997e-08
0 -0.018217 0.00684899 3.14828e-05
-2.71051e-20 0.0182171 0.00684899 2.11274e-08
-5.42101e-20 -0.0194643 0.000581954 0.000116746
-5.42101e-20 0.0194643 0.000581956 1.21245e-07
-5.42101e-20 -0.0194401 0.00177497 0.00014471
5.42101e-20 0.0194401 0.00177497 2.38832e-08
1.12938e-21 -0.0186825 0.00571617 4.55201e-05
1.12938e-21 0.0186825 0.00571618 1.18865e-08
2.71051e-20 0.018308 0.00693726 2.24711e-08
1.35525e-20 -0.018308 0.00693726 3.14292e-05
0 0.018365 0.00682515 2.20622e-08
-1.35525e-20 -0.018365 0.00682514 3.15847e-05
0 0.0191534 0.00414674 4.99654e-08
0 -0.0191534 0.00414674 9.03518e-05
0 -0.0194225 0.00303969 0.00013063
0 0.0194225 0.00303969 3.77194e-08
0 0.01915 0.0045832 4.70901e-08
0 -0.01915 0.0045832 8.95603e-05
0 -0.0186305 0.00640894 3.49448e-05
1.807e-21 0.0186305 0.00640895 1.34976e-08
1.05879e-22 0.0193894 0.00369515 5.2301e-08
-5.13514e-20 -0.0193886 0.00369336 0.000105256
2.71051e-20 -0.0185455 0.00680231 3.01377e-05
-2.71051e-20 0.0185455 0.00680231 2.17587e-08
0 -0.019012 0.00537772 6.06326e-05
-2.71051e-20 0.019012 0.00537773 2.51496e-08
-1.35525e-20 -0.0184497 0.00707482 3.15544e-05
-2.71051e-20 0.0184497 0.00707483 2.23972e-08
1.35525e-20 -0.018538 0.00700337 3.1731e-05
0 0.018538 0.00700339 2.19954e-08
0 -0.0193613 0.00436274 9.15016e-05
1.35525e-20 0.0193613 0.00436274 5.88636e-08
-1.35525e-20 -0.0185249 0.0071478 3.13854e-05
-1.35525e-20 0.0185249 0.0071478 2.01414e-08
2.71051e-20 -0.0189858 0.00603642 4.51783e-05
0 0.0189858 0.00603643 1.11539e-08
0 0.018601 0.00722169 2.19214e-08
-1.35525e-20 -0.018601 0.00722169 3.37829e-05
-1.35525e-20 0.0186688 0.00713006 2.16206e-08
0 -0.0186688 0.00713005 3.34612e-05
0 0.0193578 0.00503068 5.56625e-08
-7.05861e-22 -0.0193578 0.00503068 7.71918e-05
-2.71051e-20 -0.0195829 0.00413333 9.7398e-05
-2.71051e-20 0.0195829 0.00413333 7.23439e-08
6.02335e-21 -0.0188026 0.00685908 3.29802e-05
0 0.0188026 0.00685908 1.65916e-08
-3.38813e-21 0.0200409 2.97531e-05 1.25957e-07
-3.38813e-21 -0.0200409 2.97437e-05 0.000123376
-3.38813e-21 0.0200414 5.6205e-24 1.25955e-07
-6.77626e-21 -0.0200414 5.63319e-24 0.000123373
-6.77626e-21 -0.020072 -1.60504e-25 0.000123724
-6.77626e-21 0.020072 -1.56925e-25 1.26272e-07
-1.12938e-21 0.0200566 0.00116432 7.78183e-08
-1.12938e-21 -0.0200566 0.00116432 0.000143281
0 -0.0195648 0.00457553 9.07295e-05
0 0.0195648 0.00457553 7.04186e-08
0 -0.020102 2.93804e-05 0.000124061
-6.77626e-21 0.020102 2.93892e-05 1.26574e-07
0 -0.0201024 -1.7309e-25 0.000124062
-3.38813e-21 0.0201024 -1.69595e-25 1.26575e-07
2.71051e-20 -0.0187404 0.00735707 3.39056e-05
0 0.0187404 0.00735708 2.19162e-08
0 -0.0190162 0.00663681 3.41675e-05
2.82344e-21 -0.0193208 0.00568921 6.0261e-05
1.12938e-21 0.0193208 0.00568921 3.95661e-08
0 0.0190162 0.00663681 6.34616e-09
-2.71051e-20 -0.0188683 0.00711623 3.49108e-05
-2.71051e-20 0.0188683 0.00711623 2.11032e-08
5.64689e-22 0.0200437 0.0023892 4.54392e-08
-5.64689e-22 -0.0200437 0.0023892 0.000157144
-1.35525e-20 -0.0188522 0.00729488 3.35906e-05
-1.35525e-20 0.0188522 0.0072949 2.15887e-08
1.35525e-20 -0.0188339 0.00744777 3.17249e-05
-2.71051e-20 0.0188339 0.00744777 2.09932e-08
2.25875e-21 -0.0193083 0.00633279 4.655e-05
-5.64689e-22 0.0193083 0.00633279 2.04418e-08
0 -0.0196626 0.005336 7.70499e-05
-2.71051e-20 0.0196626 0.005336 7.53474e-08
0 0.0189281 0.00753929 2.24849e-08
-2.71051e-20 -0.0189281 0.0075393 3.16146e-05
1.35525e-20 0.018987 0.00742577 2.20335e-08
0 -0.018987 0.00742576 3.17858e-05
-5.64689e-21 0.0200608 0.00364085 9.51925e-08
2.25875e-21 -0.0200608 0.00364085 0.000128711
0 -0.0200043 0.00434223 0.000104323
0 0.020005 0.00434221 1.11076e-07
-9.03502e-22 -0.0192547 0.00701653 3.62921e-05
0 0.0192547 0.00701654 1.53477e-08
2.71051e-20 -0.0196313 0.0059969 5.84053e-05
-2.71051e-20 0.0196313 0.0059969 4.68566e-08
2.71051e-20 -0.019165 0.00740556 3.0326e-05
-2.71051e-20 0.019165 0.00740556 2.18055e-08
-1.35525e-20 -0.0190666 0.0076737 3.15667e-05