# kMean  POINT_DATA 31572
# x  y  z  kMean
0.0292381 0 8.09214e-08 1.19944e-09
-0.0292381 0 8.09214e-08 7.9638e-07
0.0292381 -3.38813e-21 0.000233596 1.09319e-09
-0.0292381 3.38813e-21 0.000233441 8.10324e-07
0.029238 -3.38813e-21 0.000431066 1.13743e-09
-0.0292381 0 0.000430751 8.9e-07
0.029238 -1.35525e-20 0.000664138 1.39175e-09
-0.029238 -6.77626e-21 0.000663676 1.04029e-06
0.029238 -3.38813e-21 0.000908366 1.51563e-09
-0.029238 0 0.000907922 1.18783e-06
-0.029238 -3.38813e-21 0.00111494 1.2286e-06
0.029238 3.38813e-21 0.00111544 1.56085e-09
-0.029238 0 0.00135903 1.15175e-06
0.0292379 0 0.00135951 1.56257e-09
-0.0292379 -3.38813e-21 0.00161391 1.03553e-06
0.0292379 0 0.00161421 1.52004e-09
-0.0292379 3.38813e-21 0.00183185 1.13222e-06
0.0292379 3.38813e-21 0.00183203 1.74125e-09
0.0292379 1.35525e-20 0.002087 2.14669e-09
-0.0292379 -1.35525e-20 0.002087 1.3807e-06
-0.0293159 -1.01644e-20 0.000332812 7.90514e-07
0.0293159 1.69407e-20 0.000333044 9.63494e-10
-0.0293201 -3.38813e-21 0.00100457 1.21175e-06
0.0293201 1.35525e-20 0.00100504 1.49713e-09
-0.0293199 0 0.0017002 9.38491e-07
0.0293199 3.38813e-21 0.00170046 1.44035e-09
-0.0294721 0 0.000122211 7.26269e-07
0.0294722 1.35525e-20 0.000122307 8.89954e-10
-0.0294728 0 7.47975e-08 7.24496e-07
0.0294728 0 7.47971e-08 8.87926e-10
-0.0294797 1.35525e-20 0.000527785 8.40012e-07
0.0294797 -1.35525e-20 0.000528144 1.03556e-09
-0.0294753 -1.35525e-20 0.000796291 1.02085e-06
0.0294753 1.35525e-20 0.000796753 1.26398e-09
-0.0294755 2.03288e-20 0.00118666 1.05676e-06
0.0294755 0 0.00118714 1.37932e-09
-0.0294683 -1.35525e-20 0.00147414 9.37099e-07
0.0294683 -1.35525e-20 0.00147454 1.35989e-09
-0.0294625 -6.77626e-21 0.00186309 9.8308e-07
0.0294626 -6.77626e-21 0.00186328 1.53971e-09
-0.029578 1.35525e-20 6.64178e-08 9.81549e-07
0.029578 0 6.64171e-08 1.67694e-09
-0.0295009 -1.35525e-20 0.00213468 1.11059e-06
0.0295009 6.77626e-21 0.00213468 1.84674e-09
-0.029587 1.35525e-20 0.000650836 9.18266e-07
0.0295871 -2.71051e-20 0.00065131 1.37536e-09
-0.0295378 1.35525e-20 0.00203786 1.0688e-06
0.0295378 1.35525e-20 0.00203793 1.74289e-09
-0.029584 -2.71051e-20 0.00130565 7.56829e-07
0.0295841 0 0.00130618 1.03683e-09
-0.0295849 -1.35525e-20 0.00192058 8.55794e-07
0.0295849 6.77626e-21 0.00192076 1.34812e-09
0.029649 0 0.00216152 2.14875e-09
-0.029649 0 0.00216152 1.27987e-06
-0.0297926 4.51751e-22 0.000963661 8.99096e-07
0.0297927 1.807e-21 0.000964146 1.20845e-09
-0.0298093 -1.35525e-20 7.62609e-08 6.93739e-07
0.0298093 -2.71051e-20 7.62598e-08 1.02456e-09
-0.0298204 9.03502e-22 0.000317447 7.12568e-07
0.0298205 1.12938e-21 0.000317662 1.13883e-09
-0.0297852 -4.51751e-22 0.00156826 6.53427e-07
0.0297852 1.807e-21 0.00156862 1.00111e-09
-0.0297946 5.0822e-21 0.00197115 1.03264e-06
0.0297946 3.38813e-21 0.0019713 1.51927e-09
-0.029885 -3.38813e-21 8.57338e-08 8.60239e-07
0.0298851 -3.38813e-21 8.5738e-08 1.69649e-09
0.0298185 -6.77626e-21 0.00219226 1.97767e-09
-0.0298186 -2.71051e-20 0.00219226 1.26163e-06
-0.0299229 0 0.00221118 1.53794e-06
0.0299229 -1.35525e-20 0.00221118 2.58435e-09
-0.0300582 0 1.01023e-07 1.4768e-06
0.0300583 0 1.01025e-07 3.83061e-09
-0.030042 0 0.00125419 8.48152e-07
0.0300421 -9.03502e-21 0.00125463 1.12743e-09
-0.030023 7.7443e-21 0.00171052 8.54103e-07
0.0300231 -4.84019e-21 0.0017108 1.24425e-09
-0.0300766 0 0.00065666 1.08517e-06
0.0300767 4.51751e-21 0.000657051 2.04123e-09
-0.0301411 -6.77626e-21 0.000117994 1.38842e-06
0.0301411 6.77626e-21 0.000117999 3.51488e-09
-0.030143 0 9.36904e-08 1.39155e-06
0.0301431 0 9.3697e-08 3.52596e-09
-0.0300722 1.35525e-20 0.00223823 1.77404e-06
0.0300722 -1.35525e-20 0.00223824 2.81082e-09
-0.0302709 -1.35525e-20 0.000327812 1.62279e-06
0.0302709 0 0.000327976 4.48833e-09
-0.0302588 0 0.000959195 1.14367e-06
0.0302588 0 0.000959517 1.49771e-09
-0.0302233 -2.25875e-21 0.00199374 1.7351e-06
0.0302233 -1.12938e-21 0.00199386 2.56497e-09
-0.0302513 0 0.00155258 8.73596e-07
0.0302514 0 0.00155284 1.27355e-09
0.0303944 -1.01644e-20 0.00229663 3.41855e-09
-0.0303944 0 0.00229664 2.07405e-06
-0.0305071 -3.38813e-21 4.03686e-05 2.00404e-06
0.0305071 3.38813e-21 4.03653e-05 5.75816e-09
-0.0305084 0 2.78813e-08 2.00623e-06
0.0305085 0 2.78788e-08 5.76607e-09
-0.0305355 0 2.44807e-08 2.11063e-06
0.0305355 -3.38813e-21 2.44807e-08 6.13763e-09
0.030464 0 0.00230926 3.60605e-09
-0.030464 3.38813e-20 0.00230926 2.13446e-06
0.0305559 -3.38813e-21 2.5605e-08 6.05432e-09
-0.0305559 0 2.56056e-08 2.08848e-06
0.0305566 0 2.16951e-05 6.06004e-09
-0.0305566 0 2.17024e-05 2.09004e-06
-0.0305496 7.05861e-23 0.00065626 1.61605e-06
0.0305496 -1.41172e-22 0.000656486 3.92694e-09
-0.0305132 0 0.00170668 1.2598e-06
0.0305132 3.76459e-22 0.00170684 1.89386e-09
-0.0305476 -1.12938e-22 0.00124506 9.58759e-07
0.0305476 -2.25875e-22 0.00124529 1.43573e-09
-0.030501 -6.77626e-21 0.00231596 2.19744e-06
0.030501 0 0.00231596 3.67033e-09
0.0306237 0 3.57389e-08 6.33261e-09
-0.0306238 0 3.5746e-08 2.21026e-06
-0.0306099 0 0.0021928 2.24603e-06
0.03061 0 0.00219279 3.60534e-09
-0.0307225 -3.38813e-21 0.00235612 2.44716e-06
0.0307226 0 0.00235614 4.36861e-09
-0.0308383 2.71051e-20 0.000320901 2.69003e-06
0.0308383 5.42101e-20 0.000320968 8.06058e-09
-0.0308116 -2.25875e-21 0.00198356 2.16219e-06
0.0308116 1.12938e-21 0.00198362 3.24643e-09
-0.0309907 0 0.0010195 8.4075e-07
0.0309907 -2.71051e-21 0.00101961 1.49481e-09
-0.0309922 0 0.00150595 6.44755e-07
0.0309922 4.51751e-21 0.00150605 1.04801e-09
-0.0310394 0 9.17162e-08 2.99491e-06
0.0310395 0 9.17132e-08 8.47929e-09
-0.0310415 0 0.000119361 3.02031e-06
0.0310416 0 0.000119404 8.58699e-09
-0.030965 0 0.00240008 2.7547e-06
0.030965 0 0.00240009 5.09652e-09
-0.030982 0 0.00237269 2.75231e-06
0.030982 0 0.00237271 5.09874e-09
0.0310104 6.77626e-21 0.00240832 5.1937e-09
-0.0310104 -6.77626e-21 0.00240832 2.80231e-06
0.0310179 6.77626e-21 0.00233587 4.84977e-09
-0.0310179 6.77626e-21 0.00233584 2.61671e-06
-0.0311223 9.03502e-21 0.000639224 1.90795e-06
0.0311223 -9.03502e-21 0.000639291 4.99202e-09
0.0310526 6.77626e-21 0.00237692 5.3607e-09
-0.0310526 6.77626e-21 0.00237691 2.82055e-06
-0.0311458 1.35525e-20 9.71539e-08 3.12467e-06
0.0311459 0 9.71521e-08 7.87855e-09
0.031071 0 0.00241931 5.5355e-09
-0.0310711 6.77626e-21 0.00241931 2.87028e-06
-0.0312091 -2.71051e-20 0.00177609 1.17057e-06
0.0312091 -2.71051e-20 0.00177613 2.07711e-09
-0.0312491 0 0.00122869 6.35563e-07
0.0312491 0 0.00122876 1.13771e-09
-0.0312857 0 8.40765e-08 3.4181e-06
0.0312858 -1.35525e-20 8.4069e-08 8.76281e-09
-0.0312916 0 0.000133791 3.44846e-06
0.0312917 1.35525e-20 0.000133817 8.84325e-09
-0.0313889 9.03502e-21 0.00201496 2.19385e-06
0.0313889 2.25875e-21 0.00201499 4.22492e-09
-0.0313958 6.77626e-21 0.00247818 2.97875e-06
0.0313958 0 0.00247818 6.36515e-09
-0.0314932 0 0.00040878 3.34125e-06
0.0314932 0 0.000408784 8.50562e-09
-0.0315059 0 0.000915866 8.00328e-07
0.0315059 -6.77626e-21 0.000915906 1.90941e-09
-0.0314281 0 0.00241762 2.91544e-06
0.0314281 0 0.00241764 6.23032e-09
-0.0315016 0 0.00151814 4.62294e-07
0.0315016 1.12938e-20 0.00151817 9.14515e-10
0.0314986 -1.35525e-20 0.00234883 5.33161e-09
-0.0314986 -1.35525e-20 0.00234879 2.5145e-06
0.0315086 0 0.00249863 6.10703e-09
-0.0315086 2.71051e-20 0.00249863 2.96081e-06
0.0316957 1.35525e-20 0.0001271 1.12497e-08
-0.0316957 0 0.000127012 4.06152e-06
0.0316993 0 1.28441e-08 1.12282e-08
-0.0316993 0 1.28327e-08 4.04671e-06
-0.0317724 0 0.000610883 2.31103e-06
0.0317724 2.71051e-20 0.000610893 6.03532e-09
-0.0317679 0 0.00121729 4.90896e-07
0.0317679 0 0.0012173 9.50569e-10
-0.0317537 0 0.00187022 1.0849e-06
0.0317537 2.71051e-20 0.00187023 2.07553e-09
0.0317093 2.71051e-20 0.00253502 6.07426e-09
-0.0317093 -2.71051e-20 0.00253502 2.79057e-06
-0.0318341 -1.35525e-20 3.55262e-10 4.20232e-06
0.0318342 1.35525e-20 3.5768e-10 1.17648e-08
0.0317532 -1.8823e-22 0.00228382 5.82594e-09
-0.0317532 -3.76459e-22 0.00228381 2.52451e-06
-0.0319513 -1.35525e-20 4.55429e-10 4.57107e-06
0.0319515 1.35525e-20 4.57735e-10 1.37081e-08
-0.0319524 1.35525e-20 0.000127633 4.61627e-06
0.0319526 0 0.000127717 1.38536e-08
-0.0318828 0 0.00256647 2.63257e-06
0.0318828 0 0.00256647 5.36088e-09
-0.0319995 4.51751e-21 0.0009146 9.23909e-07
0.0319996 4.51751e-21 0.000914606 2.41983e-09
-0.0320112 0 0.000400505 4.41135e-06
0.0320112 0 0.0004005 1.34927e-08
0.0320267 -2.25875e-21 0.00227705 3.86666e-09
-0.0320267 -1.12938e-21 0.00227704 1.81582e-06
0.0320296 0 0.00251382 4.58509e-09
-0.0320296 -2.71051e-20 0.00251381 2.27437e-06
-0.0320975 2.25875e-21 0.00153739 4.98523e-07
0.0320975 -2.25875e-21 0.0015374 8.81968e-10
-0.0320427 1.35525e-20 0.00259543 2.27546e-06
0.0320427 -6.77626e-21 0.00259544 4.46119e-09
-0.0321203 -4.51751e-21 0.00203437 9.029e-07
0.0321203 0 0.00203437 1.82172e-09
-0.032135 0 0.00238954 2.13932e-06
0.032135 0 0.00238955 4.24193e-09
0.0322923 1.35525e-20 0.000126387 1.67966e-08
-0.0322923 1.35525e-20 0.000126365 5.44582e-06
0.0323016 1.35525e-20 2.23457e-09 1.67426e-08
-0.0323016 -1.35525e-20 2.23356e-09 5.42645e-06
-0.0322103 -6.77626e-21 0.00262582 2.40205e-06
0.0322103 1.35525e-20 0.00262583 4.47799e-09
-0.0322717 0 0.00254335 2.45881e-06
0.0322718 -1.35525e-20 0.00254336 4.63205e-09
-0.032418 0 2.33101e-09 5.51673e-06
0.032418 -1.35525e-20 2.33195e-09 1.63593e-08
-0.0324263 2.25875e-21 0.000612604 3.26348e-06
0.0324263 -4.51751e-21 0.000612601 9.51309e-09
-0.0324222 -1.807e-20 0.00112452 7.37115e-07
0.0324222 -4.51751e-21 0.00112451 1.74597e-09
-0.032412 0 0.00187553 1.06935e-06
0.0324121 5.42101e-20 0.00187553 1.89384e-09
-0.0323801 0 0.0026566 3.23363e-06
0.0323802 -1.35525e-20 0.00265661 5.9441e-09
-0.0324113 1.69407e-21 0.00229689 1.99002e-06
0.0324113 1.12938e-21 0.0022969 3.79131e-09
-0.032547 1.35525e-20 2.20754e-09 5.76972e-06
0.032547 -1.35525e-20 2.20837e-09 1.67045e-08
-0.0325489 0 0.000125731 5.76956e-06
0.0325489 0 0.00012575 1.67043e-08
-0.0326035 -6.77626e-21 0.00269705 3.19852e-06
0.0326035 -6.77626e-21 0.00269706 5.72758e-09
-0.032737 2.71051e-20 0.00030837 6.09511e-06
0.032737 0 0.000308358 1.72008e-08
-0.0327282 -2.25875e-21 0.00154832 5.92997e-07
0.0327282 6.77626e-21 0.00154831 1.10933e-09
-0.0326737 -9.03502e-21 0.00254228 3.19738e-06
0.0326738 -9.03502e-21 0.00254228 5.89833e-09
-0.0327075 -1.35525e-20 0.00206775 1.24317e-06
0.0327075 -4.51751e-21 0.00206775 2.14971e-09
-0.032708 -2.71051e-20 0.002716 3.3686e-06
0.0327081 0 0.00271601 6.07651e-09
-0.0328421 -9.03502e-21 0.000917741 1.37732e-06
0.0328421 0 0.000917735 3.60785e-09
-0.0328866 0 1.93643e-09 6.31699e-06
0.0328867 0 1.93682e-09 1.72548e-08
-0.032889 0 0.000149427 6.3169e-06
0.032889 1.35525e-20 0.000149442 1.72546e-08
-0.0329824 -7.7443e-21 0.000542132 4.60801e-06
0.0329824 5.80823e-21 0.00054211 1.23892e-08
-0.0330371 -2.71051e-20 1.79015e-09 6.43317e-06
0.0330372 -1.35525e-20 1.79044e-09 1.73518e-08
-0.0329464 0 0.00275916 4.29458e-06
0.0329464 0 0.00275917 8.67539e-09
-0.0329864 3.38813e-22 0.00235373 2.55469e-06
0.0329864 -1.12938e-22 0.00235373 4.97511e-09
-0.0330505 -2.71051e-20 0.00123121 7.12211e-07
0.0330505 0 0.00123119 1.60313e-09
-0.03302 -2.71051e-20 0.00190069 1.23839e-06
0.03302 2.71051e-20 0.00190069 2.4004e-09
-0.0332006 -1.35525e-20 2.0216e-09 6.73886e-06
0.0332007 -2.71051e-20 2.02177e-09 1.75401e-08
-0.0333521 2.25875e-21 0.000302612 6.42623e-06
0.0333521 -9.03502e-21 0.000302604 1.65061e-08
-0.0333579 9.03502e-21 0.000916469 1.55642e-06
0.0333579 2.25875e-21 0.000916441 3.96494e-09
0.0332522 6.77626e-21 0.00281453 8.22624e-09
-0.0332522 2.37169e-20 0.00281452 4.24062e-06
-0.0333432 4.51751e-21 0.00156281 5.78282e-07
0.0333432 9.03502e-21 0.0015628 1.19947e-09
-0.0332953 0 0.00276394 4.1321e-06
0.0332953 0 0.00276393 7.97399e-09
-0.0333121 1.35525e-20 0.00282536 4.22021e-06
0.0333121 0 0.00282536 8.29957e-09
-0.03334 -1.01644e-20 0.00259806 3.88132e-06
0.03334 -1.12938e-21 0.00259806 7.61941e-09
-0.0333776 -1.12938e-20 0.00214892 1.33709e-06
0.0333777 2.25875e-21 0.00214893 2.5699e-09
-0.0334909 0 2.97205e-09 7.20986e-06
0.0334909 -2.71051e-20 2.97158e-09 1.86524e-08
-0.0336619 -2.71051e-20 3.2006e-09 7.35743e-06
0.0336619 0 3.20002e-09 1.94435e-08
0.0336674 -2.71051e-20 0.000602311 1.11686e-08
-0.0336674 0 0.000602349 4.26405e-06
0.0336288 -2.71051e-20 0.00191753 2.22776e-09
-0.0336288 0 0.00191754 1.07511e-06
0.0336642 0 0.00123321 1.80478e-09
-0.0336642 -2.71051e-20 0.00123324 7.91254e-07
-0.0335885 -2.71051e-20 0.00287539 4.44888e-06
0.0335885 0 0.00287539 9.85439e-09
-0.0336882 0 0.0024221 2.72919e-06
0.0336883 0 0.00242211 5.6905e-09
-0.0338384 -1.35525e-20 2.82155e-09 7.71809e-06
0.0338384 1.35525e-20 2.82101e-09 2.00094e-08
0.0338129 -2.71051e-20 0.00291608 1.00554e-08
-0.033813 -1.35525e-20 0.00291609 5.28699e-06
-0.0339781 9.03502e-21 0.000302701 7.29911e-06
0.0339781 9.03502e-21 0.000302675 1.89463e-08
-0.0339808 -4.51751e-21 0.000914761 1.78962e-06
0.0339808 -4.51751e-21 0.000914701 4.53196e-09
0.0339745 -9.03502e-21 0.00155861 1.19553e-09
-0.0339745 -4.51751e-21 0.00155866 5.98675e-07
-0.0339481 -4.51751e-22 0.00267579 5.12732e-06
0.0339481 4.51751e-22 0.00267579 9.21151e-09
-0.0339879 -4.51751e-21 0.00215835 1.21998e-06
0.0339879 9.03502e-21 0.00215833 2.17578e-09
-0.0341105 -1.35525e-20 1.81923e-09 8.10438e-06
0.0341105 -1.35525e-20 1.81899e-09 2.11789e-08
0.0340317 0 0.00295577 1.06817e-08
-0.0340318 0 0.00295579 5.39748e-06
-0.0342884 -2.71051e-20 1.43984e-09 8.15804e-06
0.0342884 -2.71051e-20 1.43965e-09 2.16825e-08
-0.0342943 -2.71051e-20 0.000598991 4.75246e-06
0.0342943 2.71051e-20 0.000598921 1.25176e-08
0.0342171 -1.35525e-20 0.00298939 1.13374e-08
-0.0342172 2.71051e-20 0.0029894 5.17936e-06
0.0342949 0 0.00244804 5.50794e-09
-0.0342949 -2.71051e-20 0.00244805 2.71979e-06
-0.034362 2.12968e-20 0.00129504 7.71406e-07
0.034362 -3.87215e-21 0.00129496 1.68414e-09
-0.0343655 9.68038e-21 0.00179159 6.29441e-07
0.0343655 1.54886e-20 0.00179153 1.11172e-09
0.0343352 1.35525e-20 0.00301088 1.30517e-08
-0.0343353 1.35525e-20 0.00301088 5.70785e-06
-0.0344682 1.35525e-20 1.2842e-09 8.45348e-06
0.0344682 2.71051e-20 1.284e-09 2.22729e-08
-0.0345084 -4.51751e-21 0.000909454 1.87581e-06
0.0345084 -4.51751e-21 0.000909369 4.77728e-09
-0.034518 -1.807e-20 0.00215838 1.15743e-06
0.034518 -1.35525e-20 0.00215835 2.2454e-09
-0.0346072 -6.77626e-21 0.000300821 7.87684e-06
0.0346072 9.03502e-21 0.000300778 2.07331e-08
0.0346152 0 0.00154283 9.76119e-10
-0.0346152 0 0.00154291 5.25878e-07
0.034558 -4.51751e-22 0.00272776 1.38121e-08
-0.034558 -2.25875e-22 0.00272775 5.85801e-06
0.0345977 1.35525e-20 0.00305919 1.38406e-08
-0.0345978 0 0.0030592 5.5569e-06
-0.0347356 0 9.21309e-10 8.71108e-06
0.0347357 1.35525e-20 9.21242e-10 2.31725e-08
-0.0346831 1.35525e-20 0.00307472 5.2242e-06
0.0346831 6.77626e-21 0.00307474 1.31803e-08
-0.0349165 2.71051e-20 7.6471e-10 8.64288e-06
0.0349166 0 7.64643e-10 2.44629e-08
-0.0349264 4.51751e-21 0.000691164 3.61322e-06
0.0349264 -9.03502e-21 0.000691082 9.97649e-09
0.0349292 -2.25875e-21 0.00121438 2.32339e-09
-0.0349292 2.03288e-20 0.00121448 9.93092e-07
0.0349324 1.12938e-20 0.00185859 1.18962e-09
-0.0349324 -4.51751e-21 0.00185866 7.43228e-07
0.0348922 1.35525e-20 0.00311391 1.24389e-08
-0.0348922 -3.38813e-21 0.00311391 4.34894e-06
0.0349975 6.77626e-21 0.00246507 4.71319e-09
-0.0349975 -9.03502e-21 0.00246508 2.23591e-06
-0.0350985 0 7.01007e-10 8.86336e-06
0.0350985 1.35525e-20 7.00941e-10 2.60425e-08
-0.035002 0 0.00285808 4.01258e-06
0.035002 0 0.00285808 1.07932e-08
-0.0352406 -1.12938e-20 0.000295905 8.17101e-06
0.0352407 6.77626e-21 0.000295859 2.45277e-08
-0.0352487 0 0.00089372 1.46028e-06
0.0352487 -2.71051e-20 0.000893614 3.89603e-09
0.0351342 1.69407e-21 0.00315794 1.01935e-08
-0.0351343 0 0.00315795 4.04582e-06
0.0352503 0 0.00152768 1.1079e-09
-0.0352503 0 0.00152777 6.16709e-07
-0.0351477 1.69407e-21 0.00316042 4.02612e-06
0.0351478 -1.69407e-21 0.00316043 1.0153e-08
0.0351794 0 0.00281731 8.02079e-09
-0.0351794 0 0.00281732 3.35113e-06
-0.035153 0 0.00314568 4.02284e-06
0.035153 -1.69407e-21 0.00314559 1.0136e-08
0.0352564 0 0.00217228 1.01412e-09
-0.0352564 -2.71051e-20 0.00217232 9.12696e-07
-0.0353734 -1.35525e-20 5.21809e-10 9.03905e-06
0.0353735 0 5.21779e-10 2.78467e-08
-0.0352366 -1.69407e-21 0.0031769 4.18706e-06
0.0352373 -3.38813e-21 0.00317703 1.02424e-08
-0.0353097 0 0.00290011 3.43347e-06
0.0353097 1.35525e-20 0.00290013 8.03502e-09
-0.0355532 0 4.57365e-10 8.82034e-06
0.0355533 0 4.57336e-10 3.33357e-08
0.0355671 -9.03502e-21 0.00119581 3.00943e-09
-0.0355671 -2.25875e-21 0.00119592 1.13749e-06
0.0355696 9.03502e-21 0.00184838 1.22621e-09
-0.0355696 0 0.00184845 8.54114e-07
-0.0356124 2.25875e-21 0.000622322 4.81928e-06
0.0356125 2.25875e-21 0.000622242 1.61765e-08
0.0355744 -4.51751e-21 0.00250427 4.11585e-09
-0.0355744 9.03502e-21 0.00250428 2.25558e-06
-0.035529 3.38813e-21 0.0032312 4.60098e-06
0.0355292 -3.38813e-21 0.00323122 1.01148e-08
-0.0355423 0 0.00321267 4.63391e-06
0.0355424 0 0.00321273 1.01995e-08
0.0355811 -9.03502e-21 0.00287218 8.37608e-09
-0.0355811 -9.03502e-21 0.00287218 3.83874e-06
-0.035574 3.38813e-21 0.00316175 4.49732e-06
-0.0355672 0 0.0032382 4.89823e-06
0.0355741 0 0.0031619 9.85254e-09
0.0355673 0 0.00323821 1.07302e-08
-0.0357312 -1.35525e-20 4.06834e-10 9.00576e-06
0.0357313 -1.35525e-20 4.06801e-10 3.09838e-08
-0.0356064 0 0.00321772 4.83458e-06
0.0356064 0 0.00321777 1.05557e-08
0.0356195 3.38813e-21 0.00324783 1.06054e-08
-0.0356195 3.38813e-21 0.00324784 4.88374e-06
-0.0358766 0 0.000193571 9.06351e-06
0.0358767 0 0.000193555 3.18339e-08
-0.035885 0 0.000875629 1.63379e-06
0.035885 -2.71051e-20 0.000875535 5.2828e-09
-0.0358906 2.71051e-20 0.00150725 7.87675e-07
0.0358906 -2.71051e-20 0.00150716 1.55776e-09
0.0358881 -2.71051e-20 0.00216694 1.19039e-09
-0.0358881 -2.71051e-20 0.00216698 1.07025e-06
-0.0358664 0 0.00295102 4.8578e-06
0.0358665 1.35525e-20 0.00295103 1.04593e-08
-0.0360201 -1.35525e-20 2.47881e-10 9.14324e-06
0.0360202 2.71051e-20 2.47868e-10 3.2763e-08
-0.036024 6.77626e-21 0.00332287 5.8161e-06
0.0360241 0 0.00332289 1.30203e-08
-0.0361957 0 1.96858e-10 8.86473e-06
0.0361958 0 1.96841e-10 3.73772e-08
-0.0362011 -6.77626e-21 0.000563546 5.51707e-06
0.0362011 4.51751e-21 0.000563484 2.02912e-08
-0.03606 0 0.0032685 5.8575e-06
0.0360601 -1.35525e-20 0.00326857 1.3298e-08
-0.036206 0 0.00117895 1.32957e-06
0.0362061 0 0.00117887 3.92431e-09
0.0362045 2.25875e-21 0.00184383 1.59307e-09
-0.0362045 6.77626e-21 0.00184388 1.00787e-06
0.0361888 -2.25875e-21 0.00253169 5.35078e-09
-0.0361888 -2.25875e-21 0.0025317 2.66855e-06
-0.0361316 0 0.00334265 6.39922e-06
0.0361316 -1.35525e-20 0.00334265 1.51185e-08
0.0361687 -6.77626e-21 0.00293434 1.0904e-08
-0.0361687 9.03502e-21 0.00293434 4.74017e-06
0.0361567 6.77626e-21 0.00314741 1.21824e-08
-0.0361567 0 0.00314727 5.31337e-06
-0.0363723 0 1.67562e-10 9.11839e-06
0.0363723 1.35525e-20 1.67547e-10 3.43224e-08
0.0362562 0 0.00328574 1.43142e-08
-0.0362563 2.71051e-20 0.00328569 6.19541e-06
0.0363065 6.77626e-21 0.00337454 1.44642e-08
-0.0363067 1.35525e-20 0.00337456 6.3249e-06
-0.0365138 0 0.000190564 9.20051e-06
0.0365138 0 0.000190552 3.67989e-08
-0.0365218 2.71051e-20 0.000861999 1.80831e-06
0.0365219 2.71051e-20 0.000861929 6.47856e-09
-0.0365244 0 0.00149847 1.01279e-06
0.0365244 0 0.00149841 2.01644e-09
0.0365145 0 0.00218148 1.54272e-09
-0.0365145 0 0.00218151 1.12962e-06
-0.0364788 0 0.00289752 4.20512e-06
0.0364788 1.35525e-20 0.00289755 1.05166e-08
-0.0366526 0 8.42588e-11 9.30323e-06
0.0366527 0 8.42553e-11 4.03207e-08
-0.036569 -5.42101e-21 0.00323416 6.35565e-06
0.036569 1.35525e-20 0.00323419 1.52919e-08
-0.0365532 0 0.00341957 6.45546e-06
0.0365533 -1.35525e-20 0.00341959 1.4818e-08
-0.0367898 1.35525e-20 0.000598955 5.28605e-06
0.0367898 0 0.000598917 2.47904e-08
-0.036834 0 5.5588e-11 9.06911e-06
0.0368341 0 5.55862e-11 5.29487e-08
-0.0368407 -4.51751e-21 0.00116968 1.59061e-06
0.0368407 4.51751e-21 0.00116963 5.51777e-09
0.0368348 -4.51751e-21 0.00184465 1.91072e-09
-0.0368348 6.77626e-21 0.00184468 1.22238e-06
0.0368045 1.35525e-20 0.00255346 4.79702e-09
-0.0368045 -1.35525e-20 0.00255346 2.36393e-06
0.0367777 -2.71051e-20 0.00346047 1.69952e-08
-0.0367777 2.71051e-20 0.00346047 6.58517e-06
-0.0368393 4.51751e-22 0.00303407 4.62914e-06
0.0368393 1.35525e-21 0.00303408 1.04535e-08
-0.0370199 1.35525e-20 4.78303e-11 9.51741e-06
0.0370199 -1.35525e-20 4.78279e-11 6.70962e-08
-0.0371489 -2.25875e-21 0.000281507 8.82144e-06
0.0371489 -9.03502e-21 0.000281494 6.3864e-08
0.0371548 0 0.000855626 1.03976e-08
-0.0371548 -2.71051e-20 0.000855666 2.07006e-06
0.0371549 2.71051e-20 0.00149516 2.73395e-09
-0.0371549 0 0.00149519 1.36622e-06
0.0371441 0 0.00218077 1.30479e-09
-0.0371441 0 0.00218078 1.35301e-06
0.0370564 6.77626e-21 0.00351129 1.73098e-08
-0.0370564 -2.03288e-20 0.0035113 8.22795e-06
0.03727 0 2.98638e-11 7.26507e-08
-0.03727 0 2.9863e-11 9.75281e-06
-0.0371712 2.71051e-20 0.00278261 1.77257e-06
0.0371713 0 0.00278261 2.5272e-09
-0.0371159 -1.35525e-20 0.00352215 8.32376e-06
0.037116 -1.69407e-20 0.00352218 1.7413e-08
-0.0371348 4.51751e-21 0.00333173 7.59565e-06
0.0371348 0 0.00333177 1.63983e-08
-0.0374605 0 2.22234e-11 9.50394e-06
0.0374605 0 2.22235e-11 7.62363e-08
-0.0374674 0 0.000637841 4.85587e-06
0.0374674 1.35525e-20 0.000637823 2.95979e-08
0.0374702 -6.77626e-21 0.00116461 7.1634e-09
-0.0374702 4.51751e-21 0.00116464 1.95153e-06
0.0374665 -1.12938e-21 0.00183966 2.24509e-09
-0.0374665 0 0.00183967 1.60128e-06
-0.0374682 -3.38813e-21 0.00249666 1.76966e-06
0.0374682 1.12938e-21 0.00249666 2.08336e-09
-0.0374675 4.51751e-21 0.00307365 5.22851e-06
0.0374675 1.88079e-37 0.00307365 1.0969e-08
-0.0374246 2.71051e-20 0.00357844 7.87326e-06
0.0374247 1.35525e-20 0.00357845 1.84708e-08
-0.0376529 -2.71051e-20 1.86806e-11 1.00795e-05
0.0376529 -1.35525e-20 1.86807e-11 7.66868e-08
-0.0377742 1.12938e-20 0.000280154 9.35291e-06
0.0377742 6.77626e-21 0.000280151 6.80663e-08
-0.0377819 0 0.000851859 2.35734e-06
0.0377819 2.71051e-20 0.00085184 1.16938e-08
0.0377838 0 0.00149135 3.38906e-09
-0.0377838 5.42101e-20 0.00149136 1.88308e-06
-0.0376598 6.77626e-21 0.00362112 9.9961e-06
0.0376599 1.35525e-20 0.00362114 2.36246e-08
0.0377819 -2.71051e-20 0.00216934 1.55816e-09
-0.0377819 0 0.00216935 1.78985e-06
0.0377773 -5.42101e-20 0.00279682 2.86678e-09
-0.0377773 -2.71051e-20 0.00279681 2.17593e-06
0.0378849 0 1.07538e-11 7.26449e-08
-0.0378849 0 1.07533e-11 1.02641e-05
-0.0377229 -1.35525e-20 0.00353461 1.0309e-05
0.037723 -6.77626e-21 0.00353476 2.42741e-08
-0.0377797 -1.12938e-21 0.00335602 9.05606e-06
0.0377798 0 0.00335605 2.14478e-08
0.0377789 0 0.00364262 2.50125e-08
-0.037779 -6.77626e-21 0.00364263 1.01614e-05
-0.0380777 2.71051e-20 7.23455e-12 9.98346e-06
0.0380777 0 7.23493e-12 6.91615e-08
-0.0380891 9.03502e-21 0.000630694 5.37721e-06
0.0380891 0 0.00063069 2.60821e-08
-0.0380959 -2.25875e-21 0.00115829 2.49979e-06
0.0380959 4.51751e-21 0.00115829 7.16942e-09
0.0380968 3.38813e-21 0.0018338 2.6009e-09
-0.0380968 -2.25875e-21 0.0018338 2.18368e-06
-0.0379952 -1.35525e-20 0.00368181 9.23362e-06
0.0379952 1.35525e-20 0.00368182 2.54955e-08
-0.0380943 1.12938e-21 0.00250862 2.14365e-06
0.0380943 -2.25875e-21 0.00250862 2.52873e-09
-0.0380787 4.51751e-21 0.0030417 4.63688e-06
0.0380786 -4.51751e-21 0.00304173 1.05556e-08
-0.0382652 -1.35525e-20 6.08684e-12 1.04554e-05
0.0382652 -1.35525e-20 6.08729e-12 4.60526e-08
-0.0381485 0 0.00370958 9.76581e-06
0.0381486 6.77626e-21 0.0037096 2.96655e-08
-0.0383423 0 0.000233962 9.93832e-06
0.0383424 -4.51751e-21 0.000233961 4.22337e-08
-0.0384028 0 0.000843267 2.91289e-06
0.0384028 -2.71051e-20 0.000843267 9.50669e-09
0.03841 -2.71051e-20 0.00148247 3.60902e-09
-0.03841 -2.71051e-20 0.00148247 2.69332e-06
0.0384072 0 0.00217116 1.86036e-09
-0.0384072 -5.42101e-20 0.00217116 2.36337e-06
-0.0383453 4.51751e-22 0.00341218 8.91141e-06
0.0383454 3.16226e-21 0.0034122 2.75513e-08
0.0385067 -1.35525e-20 3.26257e-12 4.43836e-08
-0.0385067 1.35525e-20 3.26167e-12 1.05176e-05
-0.0384087 2.71051e-20 0.00283718 2.27781e-06
0.0384087 0 0.0028372 3.78696e-09
0.0383428 6.77626e-21 0.0037445 3.03506e-08
-0.0383428 6.77626e-21 0.0037445 9.30643e-06
-0.0384723 -1.35525e-20 0.00376794 8.64617e-06
0.0384723 1.35525e-20 0.00376795 2.79738e-08
0.038689 0 2.10859e-12 6.07972e-08
-0.038689 2.71051e-20 2.10763e-12 1.02957e-05
-0.0387011 2.25875e-21 0.000532365 7.1948e-06
0.0387011 2.25875e-21 0.000532366 3.01879e-08
-0.0387193 1.12938e-21 0.00114082 3.40166e-06
0.0387193 -2.25875e-21 0.00114082 7.39453e-09
-0.0387249 0 0.00181992 3.02619e-06
0.0387249 0 0.00181992 2.94965e-09
-0.0387232 2.25875e-21 0.00251541 2.51859e-06
0.0387232 -3.38813e-21 0.00251542 2.54045e-09
-0.0386563 1.35525e-20 0.00380866 7.39672e-06
0.0386563 6.77626e-21 0.00380867 2.62369e-08
0.0388555 1.35525e-20 1.85497e-12 4.9654e-08
-0.0388555 2.71051e-20 1.85378e-12 1.05744e-05
-0.0386905 0 0.00364409 7.55371e-06
0.0386905 1.35525e-20 0.00364412 2.55204e-08
0.0387735 -2.25875e-21 0.00324313 1.37179e-08
-0.0387735 -4.51751e-21 0.00324312 5.21607e-06
0.0389089 -2.71051e-21 0.000183068 5.06006e-08
-0.038909 1.35525e-20 0.000183055 1.05721e-05
0.0390203 2.71051e-20 0.000818063 1.16582e-08
-0.0390203 0 0.000818062 3.91592e-06
0.038876 0 0.00384256 2.21386e-08
-0.038876 0 0.00384255 7.19421e-06
-0.0390393 -2.71051e-20 0.00145448 3.90519e-06
0.0390393 2.71051e-20 0.00145449 4.30735e-09
0.0390375 0 0.00215195 2.05132e-09
-0.0390375 0 0.00215195 3.15199e-06
-0.038928 0 0.00385208 7.10693e-06
0.038928 -6.77626e-21 0.0038521 2.17668e-08
-0.0389527 3.38813e-21 0.00379162 7.11857e-06
0.0389528 0 0.00379157 2.16209e-08
-0.0390404 -2.71051e-20 0.00284503 2.35602e-06
0.0390404 0 0.00284504 2.40243e-09
0.0391596 -1.35525e-20 9.066e-13 8.86722e-08
-0.0391598 1.35525e-20 9.04288e-13 1.05214e-05
0.0391706 0 0.000114816 9.04545e-08
-0.0391707 -1.35525e-20 0.000114772 1.05191e-05
-0.0391098 1.12938e-20 0.00361355 6.85093e-06
0.0391098 9.03502e-21 0.00361357 1.96535e-08
0.0393055 1.35525e-20 6.52206e-13 1.30331e-07
-0.0393056 -1.35525e-20 6.49692e-13 1.05915e-05
0.0393117 -4.51751e-21 0.000500429 8.01656e-08
-0.0393117 0 0.000500434 8.07244e-06
0.0393492 1.12938e-21 0.00108804 1.52979e-08
-0.0393492 2.25875e-21 0.00108803 4.95334e-06
-0.0393637 1.12938e-21 0.00177645 4.18819e-06
0.0393637 -3.38813e-21 0.00177646 4.2787e-09
0.0394217 1.35525e-20 8.7629e-05 1.73288e-07
-0.0394218 0 8.75788e-05 1.09717e-05
0.0394266 0 6.05533e-13 1.7163e-07
-0.0394266 0 6.03128e-13 1.09563e-05
-0.0393554 -1.12938e-21 0.00249989 3.06459e-06
0.0393554 0 0.00249989 2.49526e-09
-0.0392461 0 0.0039114 8.04676e-06
0.0392465 1.69407e-21 0.00391149 2.17877e-08
-0.0393554 2.71051e-21 0.00323461 5.0933e-06
0.0393554 2.25875e-21 0.00323463 1.06683e-08
-0.0393295 0 0.00392838 8.24781e-06
0.0393297 0 0.0039284 2.15663e-08
-0.0393343 0 0.00392289 8.26753e-06
0.0393344 -1.69407e-21 0.00392294 2.16161e-08
-0.039341 0 0.00393113 8.31079e-06
0.0393412 0 0.00393114 2.1781e-08
-0.0393435 8.47033e-21 0.00390909 8.21511e-06
0.0393436 -1.69407e-21 0.00390918 2.13937e-08
-0.0393533 0 0.00392488 8.36106e-06
0.0393533 0 0.00392492 2.17284e-08
-0.0393598 0 0.003936 8.39781e-06
0.0393599 0 0.00393599 2.17229e-08
0.0396051 -2.71051e-20 0.000230835 2.1282e-07
-0.0396052 0 0.000230845 1.08573e-05
0.0396385 -2.71051e-20 0.000745352 3.79575e-08
-0.0396385 0 0.000745355 6.14766e-06
0.0396943 -2.71051e-20 0.00136783 8.17421e-09
-0.0396943 0 0.00136783 5.73604e-06
-0.0396774 -2.71051e-20 0.0021149 4.11161e-06
0.0396774 2.71051e-20 0.0021149 2.86009e-09
-0.039584 3.87215e-21 0.00366033 8.56893e-06
0.039584 5.80823e-21 0.00366035 2.2135e-08
-0.0396652 -2.71051e-20 0.0028356 2.70909e-06
0.0396652 2.71051e-20 0.0028356 2.60457e-09
0.0398974 -7.52918e-21 0.000433584 1.64407e-07
-0.0398974 7.52918e-21 0.000433597 1.1717e-05
-0.0397723 1.35525e-20 0.00404307 9.88554e-06
0.0397724 1.35525e-20 0.00404309 2.516e-08
-0.0398261 -1.35525e-20 0.00397859 9.96997e-06
0.0398262 -1.35525e-20 0.00397863 2.61078e-08
-0.0400266 0 5.89696e-14 1.45508e-05
0.0400285 -3.07049e-21 5.87113e-14 2.25372e-07
-0.0400315 0 6.38781e-07 1.45642e-05
-0.0400248 -7.52918e-22 0.000878018 1.05778e-05
0.0400248 5.0822e-21 0.000878006 8.20936e-08
-0.0400176 -6.58803e-22 0.0017143 6.1381e-06
0.0400177 -5.64689e-22 0.00171429 8.86782e-09
-0.0399832 -2.25875e-21 0.00248314 3.77403e-06
0.0399832 -1.12938e-21 0.00248314 3.25077e-09
-0.0399582 0 0.00322758 5.42989e-06
0.0399582 0 0.00322761 1.21162e-08
-0.0399279 -6.77626e-21 0.00368191 8.48781e-06
0.0399279 -4.51751e-21 0.00368193 2.26537e-08
-0.0399096 -1.35525e-20 0.00407855 9.87761e-06
0.0399096 1.35525e-20 0.00407855 2.68241e-08
0.0400594 1.35525e-20 0.00398559 2.80858e-08
-0.0400595 1.35525e-20 0.00398556 1.06287e-05
0.0403283 2.71051e-20 0.00130595 1.47855e-08
-0.0403283 0 0.00130595 8.80803e-06
-0.0403037 -5.42101e-20 0.00209219 5.49827e-06
0.0403037 -2.71051e-20 0.0020922 4.2153e-09
-0.0402835 -2.71051e-20 0.00284183 2.83106e-06
0.0402835 0 0.00284185 3.22004e-09
-0.0403926 -3.01167e-21 0.000332751 1.56085e-05
0.0403926 2.25875e-21 0.00033272 2.50897e-07
-0.0402358 0 0.0035945 7.51444e-06
0.0402359 0 0.00359453 2.19956e-08
-0.0402062 1.10114e-20 0.0041549 1.11978e-05
0.0402063 1.35525e-20 0.00415492 2.7912e-08
-0.0402146 5.0822e-21 0.00414562 1.12428e-05
0.0402147 -1.69407e-21 0.0041457 2.80046e-08
0.0402234 -8.47033e-22 0.00415933 2.81432e-08
-0.0402234 9.31736e-21 0.00415934 1.12224e-05
-0.0403023 -5.42101e-21 0.00393721 1.06686e-05
0.0403024 1.35525e-20 0.00393724 2.98058e-08
0.0405606 0 2.46956e-14 2.46414e-07
-0.0405608 -1.35525e-20 2.42881e-14 1.51194e-05
0.0406279 5.64689e-22 0.0017081 1.01888e-08
-0.0406279 -9.03502e-22 0.00170811 8.00704e-06
-0.0406701 9.03502e-22 0.000834172 1.4585e-05
0.0406701 -9.03502e-22 0.000834157 9.77718e-08
-0.0406057 3.38813e-21 0.00247151 4.72338e-06
0.0406057 -2.25875e-21 0.00247151 3.66966e-09
-0.0405666 -2.25875e-21 0.0032346 4.71982e-06
0.0405666 -2.25875e-21 0.00323462 1.02825e-08
0.0407119 1.35525e-20 1.9156e-14 2.09802e-07