# omega  POINT_DATA 14060
# x  y  z  omega
4.06576e-20 0.0106418 6.54156e-08 1042.86
-4.06576e-20 -0.0106418 6.54156e-08 1043.49
0 -0.0106418 0.000314253 932.393
1.69407e-21 0.0106418 0.000314436 931.757
-1.01644e-20 -0.0106418 0.000346253 943.646
-3.38813e-21 0.0106418 0.000346447 943.01
0 -0.0106418 0.000664285 1249.02
2.71051e-20 0.0106418 0.000664666 1248.43
-1.69407e-21 0.0106696 0.000329843 927.136
0 -0.0106696 0.000329653 927.762
-5.0822e-21 -0.0106418 0.000994701 1175.99
-1.69407e-21 0.0106418 0.000995075 1175.42
-1.69407e-21 -0.0106418 0.00102868 1190.68
1.69407e-21 0.0106418 0.00102909 1190.12
-1.35525e-20 -0.0106651 0.00100858 1172.14
1.86347e-20 0.0106651 0.00100897 1171.57
0 -0.0106418 0.00135925 1549.47
-1.35525e-20 0.0106418 0.00135964 1548.84
-3.38813e-21 -0.0106418 0.00170831 1287.74
0 0.0106418 0.00170849 1287.13
-6.77626e-21 -0.0106418 0.00174299 1281.35
2.20229e-20 0.0106418 0.0017432 1280.79
0 -0.0106634 0.00171659 1274.24
6.77626e-21 0.0106634 0.00171678 1273.62
0 0.0106417 0.002087 1338.98
0 -0.0106417 0.002087 1338.78
1.35525e-20 0.0108523 6.905e-08 962.542
2.71051e-20 -0.0108523 6.90492e-08 963.113
4.51751e-21 -0.0108537 0.000983441 1255.45
0 0.0108538 0.000983846 1254.91
-7.90564e-21 0.0109302 0.000328664 959.313
-5.64689e-21 -0.0109302 0.000328466 960.433
-9.03502e-21 -0.010876 0.00165246 1291.52
-2.25875e-21 0.010876 0.0016527 1290.05
-1.35525e-20 0.0110233 5.24961e-08 931.023
-2.03288e-20 -0.0110233 5.24971e-08 931.716
0 -0.0108444 0.00218791 909.409
-3.38813e-21 0.0108444 0.00218791 909.727
-6.77626e-21 0.010932 0.00223158 914.195
3.38813e-21 -0.010932 0.00223159 913.87
3.38813e-21 -0.0109511 0.00214941 831.881
-6.77626e-21 0.0109511 0.00214943 832.179
0 0.0111742 4.69561e-08 935.846
0 -0.0111743 4.69564e-08 936.77
-2.25875e-21 -0.0111377 0.00125157 894.361
-9.03502e-21 0.0111378 0.00125193 887.796
-6.77626e-21 -0.0111894 0.000675227 864.747
-1.01644e-20 0.0111894 0.00067554 861.293
1.35525e-20 0.0112788 0.000114381 885.225
-1.35525e-20 -0.0112788 0.000114338 886.249
0 0.0112886 3.37067e-08 882.395
1.35525e-20 -0.0112886 3.37059e-08 883.437
-6.77626e-21 -0.0111945 0.00167214 810.126
0 0.0111945 0.00167239 804.98
2.25875e-21 -0.011163 0.00198697 880.378
-5.64689e-21 0.011163 0.00198709 878.615
-2.71051e-20 0.011131 0.00233069 1200.2
0 -0.011131 0.00233069 1199.87
0 0.0114369 0.00031708 795.902
0 -0.0114369 0.00031693 797.167
-2.71051e-20 -0.011421 0.000929732 277.501
-2.71051e-20 0.011421 0.000930046 263.217
-2.71051e-20 -0.0114038 0.0015068 293.965
-2.71051e-20 0.0114039 0.00150708 277.069
-1.35525e-20 -0.0113457 0.00243752 1244.57
1.35525e-20 0.0113457 0.00243753 1244.7
-1.35525e-20 -0.0116364 1.34784e-08 812.591
-1.35525e-20 0.0116364 1.34759e-08 811.278
0 -0.0116375 9.54413e-05 813.045
0 0.0116376 9.54576e-05 811.737
0 -0.0114303 0.0024797 1375.58
-6.77626e-21 0.0114304 0.00247971 1375.68
5.64689e-21 -0.0115074 0.00225281 1244
4.51751e-21 0.0115075 0.00225288 1242.32
-1.35525e-20 -0.0117301 3.25942e-09 825.011
0 0.0117301 3.26008e-09 823.7
0 -0.0117195 0.000610229 530.41
-6.77626e-21 0.0117195 0.000610449 521.549
4.51751e-21 -0.0117028 0.00122422 226.237
-9.03502e-21 0.0117028 0.00122449 207.223
0 0.0118194 8.97007e-05 831.624
-1.35525e-20 -0.0118195 8.9705e-05 832.947
0 0.01182 3.03178e-09 831.794
0 -0.01182 3.03111e-09 833.118
-4.51751e-21 -0.0116772 0.0018372 551.203
2.25875e-21 0.0116772 0.00183735 535.773
0 -0.0116033 0.00256579 1817.7
2.71051e-20 0.0116033 0.00256582 1817.82
-2.71051e-20 0.0120204 0.00030712 848.419
-2.71051e-20 -0.0120205 0.000307029 849.794
0 -0.0117485 0.00263815 1891.16
-1.35525e-20 0.0117486 0.00263817 1891.11
0 -0.0120156 0.000917001 174.524
0 0.0120156 0.000917181 156.657
1.50584e-21 -0.0118318 0.00229966 1309.82
0 0.0118319 0.00229972 1301.53
0 -0.0117786 0.00256188 1879.87
0 0.0117787 0.00256192 1879.84
0 -0.0119886 0.00155401 149.168
2.71051e-20 0.0119887 0.00155417 124.882
0 -0.012032 0.00210267 369.173
0 0.012032 0.00210275 343.587
0 0.0122392 1.95024e-09 863.111
-1.35525e-20 -0.0122393 1.95023e-09 864.491
1.35525e-20 0.0122409 8.16763e-05 863.121
-1.35525e-20 -0.012241 8.16705e-05 864.5
0 -0.011987 0.00253932 2187.07
-2.71051e-20 0.0119871 0.00253936 2187
0 0.012321 1.74247e-09 866.891
0 -0.0123211 1.74247e-09 868.259
0 -0.0120123 0.00276923 1843.6
0 0.0120124 0.00276924 1843.31
4.51751e-21 -0.0123328 0.00060351 523.05
0 0.0123328 0.000603616 514.059
0 -0.0120725 0.00270714 1826.86
-1.35525e-20 0.0120726 0.00270715 1826.56
4.51751e-21 -0.0123288 0.00123239 147.116
2.25875e-21 0.0123288 0.00123252 127.452
1.35525e-20 0.0124027 1.58608e-09 870.672
-1.35525e-20 -0.0124029 1.58605e-09 872.044
0 0.012405 7.77949e-05 870.599
1.35525e-20 -0.0124051 7.77972e-05 871.971
9.03502e-21 -0.0123346 0.00185417 212.222
-1.12938e-21 0.0123346 0.00185426 187.731
0 -0.0121505 0.00283802 1685.1
-1.35525e-20 0.0121505 0.00283803 1684.69
-1.12938e-21 -0.0123063 0.00240165 1015.22
3.38813e-21 0.0123064 0.00240169 1002.16
-1.35525e-20 -0.0122683 0.00289782 1278.72
-1.35525e-20 0.0122684 0.00289784 1278.08
1.35525e-20 -0.0123167 0.00277203 1369.13
-1.35525e-20 0.0123167 0.00277205 1368.55
0 0.0126427 0.000300471 886.13
0 -0.0126428 0.000300435 887.507
2.71051e-20 -0.0126591 0.000913392 161.559
-2.71051e-20 0.012659 0.000913471 146.078
2.71051e-20 -0.0126618 0.00155274 101.171
0 0.0126618 0.00155281 80.7231
2.71051e-20 -0.0125263 0.00271731 1089.51
0 0.0125263 0.00271734 1088.78
2.71051e-20 0.0124665 0.00299812 1117.4
-1.35525e-20 -0.0124665 0.00299814 1118.17
0 -0.0126643 0.00218644 216.461
2.71051e-20 0.0126643 0.00218649 188.718
6.77626e-21 0.0128706 4.59712e-10 909.309
-6.77626e-21 -0.0128707 4.59687e-10 910.688
0 0.0128741 6.76249e-05 909.373
-6.77626e-21 -0.0128742 6.76189e-05 910.752
-2.71051e-20 0.0125733 0.00289917 1162.81
1.35525e-20 -0.0125733 0.00289922 1163.57
1.35525e-20 0.0129417 3.22177e-10 917.387
0 -0.0129418 3.22144e-10 918.754
-1.35525e-20 0.0125996 0.00306574 1320.45
0 -0.0125996 0.00306572 1321.07
-1.12938e-21 0.0129729 0.000593308 537.221
-2.25875e-21 -0.0129729 0.000593273 545.479
0 0.0130097 3.00406e-10 923.162
-6.77626e-21 -0.0130097 3.00375e-10 924.519
0 0.0130126 6.19331e-05 923.051
0 -0.0130126 6.19352e-05 924.408
1.12938e-21 -0.0129928 0.00122118 129.321
1.12938e-21 0.0129928 0.00122123 110.647
0 -0.0127131 0.00312274 1320.53
0 0.0127131 0.00312278 1319.9
-1.35525e-20 -0.0127497 0.00301636 1323.61
-1.35525e-20 0.0127497 0.00301635 1322.97
-2.25875e-21 -0.0129973 0.00187881 135.478
-2.25875e-21 0.0129973 0.00187885 109.465
-4.96926e-21 -0.0129622 0.00258487 709.974
-9.03502e-22 0.0129622 0.0025849 690.724
2.71051e-20 -0.0129338 0.00296499 1440.86
2.71051e-20 0.0129338 0.00296502 1440.22
0 0.0132745 0.000290697 946.73
2.71051e-20 -0.0132746 0.000290697 948.087
0 0.0133097 0.000892132 150.877
0 -0.0133098 0.000892103 165.997
-6.77626e-21 -0.0129628 0.00324855 1645.74
6.77626e-21 0.0129628 0.00324857 1645.09
0 -0.0130138 0.00319442 1683.63
6.77626e-21 0.0130138 0.00319445 1682.98
0 -0.0133311 0.00153426 87.2129
5.42101e-20 0.0133311 0.0015343 63.6244
-1.35525e-20 -0.0130334 0.00328409 1832.92
0 0.0130335 0.00328412 1832.27
0 -0.0133253 0.00221294 132.917
-2.71051e-20 0.0133254 0.00221295 101.46
6.77626e-21 -0.0130971 0.00331595 1859.67
-6.77626e-21 0.0130971 0.00331598 1859
1.35525e-20 -0.0131128 0.00327452 1856.74
0 0.0131128 0.00327455 1856.08
0 0.0135215 4.37567e-11 1009.62
-6.77626e-21 -0.0135215 4.37417e-11 1010.99
6.77626e-21 0.013525 4.46982e-05 1009.77
0 -0.013525 4.46896e-05 1011.15
7.52918e-22 -0.01322 0.00300113 1354.53
2.25875e-21 0.01322 0.00300115 1341.13
0 -0.0135708 2.7414e-11 1023.36
0 0.0135708 2.74242e-11 1021.98
0 -0.0136156 2.60779e-11 1033.33
6.77626e-21 0.0136156 2.60872e-11 1031.94
6.77626e-21 -0.0136174 3.86816e-05 1033.16
0 0.0136174 3.86925e-05 1031.78
-2.25875e-21 0.013613 0.000567026 596.873
0 -0.0136131 0.000567017 609.676
-2.71051e-20 -0.0133842 0.00278357 384.868
2.71051e-20 0.0133842 0.00278359 346.379
-2.25875e-21 0.0136535 0.00118312 110.609
-5.64689e-22 -0.0136536 0.00118311 136.424
2.71051e-20 -0.0133578 0.00322878 2189.99
-5.42101e-20 0.0133579 0.00322881 2189.33
-2.25875e-21 -0.0136671 0.00185452 100.463
-4.51751e-21 0.0136672 0.00185453 70.5589
1.35525e-20 -0.0134202 0.00347787 1743.3
0 0.0134203 0.00347791 1742.39
0 -0.0134522 0.00343713 1734.95
0 0.0134523 0.00343717 1734.04
0 0.0139 0.000270267 1095.26
-2.71051e-20 -0.0139 0.000270258 1096.67
5.64689e-22 -0.0136756 0.0025133 215.521
0 0.0136756 0.00251332 177.348
0 -0.0134921 0.00351385 1653.74
-1.35525e-20 0.0134922 0.00351387 1652.76
-2.71051e-20 0.0139532 0.000842554 169.118
-5.42101e-20 -0.0139532 0.000842545 202.947
5.64689e-22 -0.0136462 0.00307161 1023.7
-5.64689e-22 0.0136463 0.00307162 1002.3
0 -0.0135602 0.00354792 1399.31
-6.77626e-21 0.0135603 0.00354795 1398.27
0 -0.0135939 0.00346713 1452.64
-1.35525e-20 0.013594 0.00346717 1451.6
-2.71051e-20 0.0139954 0.00147861 57.1159
0 -0.0139954 0.00147861 87.7815
5.42101e-20 -0.0139994 0.00216676 94.2388
0 0.0139994 0.00216678 60.3516
0 0.0141777 1.4792e-12 1330.43
-1.69407e-21 -0.0141778 1.47682e-12 1331.7
0 0.0141787 1.2541e-05 1330.61
0 -0.0141789 1.25123e-05 1331.87
-1.69407e-21 0.0141923 1.02466e-12 1342.19
1.69407e-21 -0.0141924 1.02347e-12 1343.42
0 0.0142041 9.50757e-06 1352.11
0 -0.0142042 9.48552e-06 1353.31
0 0.0142051 1.0097e-12 1352.15
-1.69407e-21 -0.0142052 1.00857e-12 1353.34
-1.69407e-22 0.0142399 0.000510993 789.908
5.64689e-23 -0.01424 0.000510997 801.992
0 -0.0138494 0.00338134 1085.96
0 0.0138495 0.00338137 1084.72
-2.71051e-20 -0.0139915 0.00283632 229.715
5.42101e-20 0.0139915 0.00283633 181.643
0 -0.0138215 0.00367867 1164.91
-1.35525e-20 0.0138216 0.0036787 1163.73
0 0.0143091 0.00109617 131.494
2.82344e-22 -0.0143102 0.00109467 164.988
-1.35525e-20 -0.013893 0.00360484 1194.52
0 0.0138931 0.00360489 1193.33
0 -0.0143537 7.6488e-13 1290.64
-1.69407e-21 0.0143541 7.64998e-13 1289.1
-1.35525e-20 -0.0139056 0.00372066 1306.95
0 0.0139057 0.00372068 1305.77
1.41172e-21 -0.0143405 0.00177729 93.0087
-8.47033e-22 0.0143405 0.0017773 55.3936
-2.71051e-20 0.014476 0.000224599 1585.89
-5.42101e-20 -0.0144761 0.000224598 1586.95
0 -0.0139819 0.00376071 1312.32
0 0.013982 0.00376072 1311.11
0 -0.0140112 0.00368366 1313.82
1.35525e-20 0.0140113 0.0036837 1312.61
1.12938e-21 -0.0143223 0.00249857 135.205
1.69407e-21 0.0143224 0.00249858 94.2633
-2.71051e-20 0.014582 0.000746675 224.913
2.71051e-20 -0.0145821 0.000746673 238.97
1.807e-21 -0.0142718 0.00323775 723.31
-4.51751e-22 0.0142719 0.00323777 689.635
0 -0.0142272 0.00361841 1468.31
2.71051e-20 0.0142272 0.00361844 1467.15
0 0.0146963 0.000425145 863.312
3.01167e-21 -0.0146964 0.000425144 868.953
0 0.0146847 0.00134648 62.4868
0 -0.0146847 0.00134648 118.081
0 0.014768 2.53725e-05 1192.44
0 -0.0147681 2.54118e-05 1194.25
0 0.0147706 9.09601e-14 1193.14
0 -0.0147706 9.09569e-14 1194.94
-6.77626e-21 0.0148059 6.69883e-15 1141.58
0 -0.014806 6.66559e-15 1143.38
0 -0.014659 0.00210816 74.8653
0 0.014659 0.00210816 42.7726
-6.77626e-21 -0.0142865 0.00391553 1727.22
0 0.0142866 0.00391558 1726.31
0 -0.0143135 0.00388585 1745.86
-6.77626e-21 0.0143136 0.00388592 1744.94
0 0.0148347 4.54511e-05 1086.56
0 -0.0148348 4.55279e-05 1088.34
0 0.0148461 5.76636e-15 1084.88
0 -0.0148463 5.73764e-15 1086.65
0 -0.0143216 0.00393365 1821.2
0 0.0143217 0.00393369 1820.25
-6.77626e-21 -0.0143519 0.00395506 1830.89
6.77626e-21 0.0143519 0.00395508 1829.93
0 -0.014364 0.00393203 1830.43
0 0.0143641 0.00393207 1829.47
-2.71051e-20 -0.014635 0.00283843 138.364
0 0.014635 0.00283845 89.4517
8.47033e-21 0.0144995 0.00366943 1347.26
8.47033e-22 0.0145102 0.00366649 1343.37
5.64689e-22 -0.0145197 0.00367384 1362.61
2.71051e-20 0.0150122 0.000330156 734.006
0 -0.0150123 0.000330152 736.466
1.69407e-21 0.0145873 0.00370018 1306.63
-2.71051e-20 -0.0146766 0.00345532 418.343
5.42101e-20 0.0146766 0.00345534 344.337
1.69407e-22 0.0150077 0.00170828 55.1937
-5.64689e-22 -0.0150077 0.00170827 96.6904
6.32451e-21 0.0150925 0.000854694 304.942
9.93852e-21 -0.0150925 0.000854681 326.403
5.42101e-20 -0.0146272 0.00391091 2198.76
0 0.0146272 0.00391095 2198.07
1.01644e-21 -0.0149891 0.00242097 99.7797
-1.24231e-21 0.0149891 0.00242099 59.3766
8.47033e-22 -0.0149586 0.00315962 260.573
-3.76459e-22 0.0149587 0.00315962 203.908
-6.77626e-21 -0.014702 0.00420283 1816.11
0 0.0147021 0.00420291 1815.1
-6.77626e-21 -0.0152975 8.17222e-05 610.408
-6.77626e-21 0.0152978 8.14897e-05 606.724
-6.77626e-21 -0.0147323 0.00417569 1814.91
0 0.0147325 0.0041758 1813.9
1.35525e-20 -0.015314 2.16441e-15 611.554
1.35525e-20 0.0153142 2.17317e-15 607.874
0 -0.0147475 0.004235 1789.1
0 0.0147476 0.00423506 1788.11
0 -0.014778 0.00425658 1841.25
-6.77626e-21 0.0147781 0.00425663 1840.25
0 -0.014793 0.00422587 1838.47
6.77626e-21 0.0147931 0.00422594 1837.47
0 0.0153882 1.38149e-16 561.152
0 -0.0153882 1.36928e-16 565.058
1.35525e-20 0.0154217 0.000114547 513.662
-6.77626e-21 -0.0154218 0.000114884 517.756
0 -0.0149638 0.00384024 1145.8
-9.41148e-22 0.0149638 0.00384027 1114.2
-6.77626e-21 0.0154552 2.28099e-16 511.359
-6.77626e-21 -0.0154554 2.28503e-16 515.452
0 -0.0148468 0.00430527 1867.81
6.77626e-21 0.0148469 0.00430529 1866.71
0 0.0154606 0.00140664 63.7248
-2.71051e-20 -0.0154606 0.00140663 100.046
2.71051e-20 -0.0152777 0.00281385 94.4703
0 0.0152777 0.00281386 53.0695
2.71051e-20 0.0154333 0.00193355 37.9176
-2.71051e-20 -0.0154333 0.00193355 76.9344
0 0.0156222 0.00048004 348.021
-2.71051e-20 -0.0156222 0.000480036 353.692
2.71051e-20 -0.0152555 0.00350076 225.737
2.71051e-20 0.0152556 0.00350079 157.434
-1.35525e-20 -0.0150546 0.00445233 1681.97
6.77626e-21 0.0150547 0.00445239 1680.74
0 0.0157269 1.65675e-16 425.701
6.77626e-21 -0.0157276 1.66089e-16 430.742
8.47033e-22 -0.0151604 0.00422301 1509.05
2.82344e-22 0.0151605 0.00422311 1504.79
1.35525e-20 0.0156637 0.00166709 50.353
1.35525e-20 -0.0156637 0.00166709 88.6429
-3.38813e-22 -0.015616 0.00242546 81.7757
3.38813e-22 0.015616 0.00242547 41.2733
-5.64689e-22 0.0157781 0.000921737 203.295
7.52918e-22 -0.0157782 0.000921692 224.553
5.64689e-22 -0.0155828 0.00315318 133.613
-5.64689e-22 0.0155828 0.00315319 79.4007
6.77626e-21 -0.0152441 0.00458644 1747.15
0 0.0152443 0.00458654 1745.61
-6.77626e-21 0.0159533 3.83645e-05 330.251
-6.77626e-21 -0.0159534 3.82981e-05 336.597
2.71051e-20 0.015843 0.00192285 35.0748
2.71051e-20 -0.015843 0.00192286 74.7829
0 0.0159594 2.87839e-17 330.228
-6.77626e-21 -0.0159594 2.84889e-17 336.576
-2.71051e-20 0.0159064 0.00142308 63.4049
2.71051e-20 -0.0159064 0.00142306 101.287
-1.12938e-21 -0.0155142 0.00388452 550.291
0 0.0155142 0.00388456 494.406
-1.35525e-20 -0.0153266 0.00464478 1820.1
0 0.0153267 0.00464485 1818.37
0 -0.01535 0.0046163 1800.27
-1.35525e-20 0.0153501 0.00461639 1798.55
0 -0.0153665 0.00467306 1637.66
-1.35525e-20 0.0153666 0.00467311 1636.05
-2.71051e-20 0.0160927 0.000505085 313.613
0 -0.0160928 0.000505072 320.597
-6.77626e-21 -0.0154309 0.00471863 1428.61
1.35525e-20 0.015431 0.00471864 1427.11
6.77626e-21 -0.0161373 9.11538e-18 328.202
0 0.0161376 9.31637e-18 321.297
-1.35525e-20 -0.0154622 0.00464659 1467.36
0 0.0154622 0.00464666 1465.84
-7.05861e-22 -0.0155558 0.00433293 1176.44
2.82344e-22 0.0155559 0.00433296 1144.51
0 -0.0159329 0.00276854 75.0289
0 0.0159329 0.00276855 34.2432
5.42101e-20 -0.015876 0.00349495 137.717
0 0.015876 0.00349497 72.2196
2.82344e-22 -0.0163022 0.00169287 88.4062
1.41172e-22 0.0163022 0.00169287 46.8639
5.42101e-20 -0.0158805 0.00413133 341.445
-2.71051e-20 0.0158806 0.00413135 238.312
-2.71051e-20 -0.0157464 0.00463062 1327.15
2.71051e-20 0.0157465 0.00463067 1325.4
-1.35525e-20 -0.0156844 0.004898 1327.82
-1.35525e-20 0.0156845 0.0048981 1326.19
0 -0.0164403 0.000192195 309.412
0 0.0164404 0.000192073 301.512
-1.35525e-20 -0.0164599 2.18737e-18 309.555
1.35525e-20 0.0164599 2.23707e-18 301.669
1.12938e-21 -0.0163055 0.00229239 73.5727
0 0.0163055 0.00229239 33.2089
0 -0.0157621 0.0048391 1358.84
1.35525e-20 0.0157621 0.00483922 1357.18
0 -0.0164587 0.00103727 203.274
6.77626e-21 0.0164587 0.00103728 178.48
1.12938e-22 -0.0162201 0.00310503 89.256
3.38813e-22 0.0162201 0.00310505 42.9614
-2.71051e-20 -0.0157673 0.00495663 1444.15
0 0.0157673 0.00495668 1442.46
1.35525e-20 0.0165552 1.89118e-18 303.438
1.35525e-20 -0.0165552 1.82985e-18 311.69
1.35525e-20 0.0158425 0.00500991 1408.95
-1.35525e-20 -0.0158425 0.00500989 1410.68
0 0.0158774 0.00492677 1420.06
0 -0.0158775 0.00492671 1421.79
-2.25875e-21 -0.0161858 0.00381853 188.981
5.64689e-22 0.0161859 0.00381855 115.294
0 0.0166929 0.000101665 295.177
1.35525e-20 -0.0166931 0.000101735 303.892
-1.35525e-20 0.0166941 -1.9757e-18 295.176
1.35525e-20 -0.0166943 -1.99904e-18 303.89
9.03502e-22 -0.0161388 0.00451629 826.734
-1.12938e-21 0.0161388 0.00451633 767.402
0 -0.0165511 0.0027628 63.6564
0 0.0165511 0.0027628 27.1869
2.71051e-20 -0.0160804 0.00488839 1521.36
0 0.0160804 0.00488844 1519.77
-5.42101e-20 -0.0165195 0.00345964 85.8065
-2.71051e-20 0.0165195 0.00345965 41.276
0 -0.0160927 0.00518691 1646.71
0 0.0160929 0.00518705 1644.99
0 -0.0161328 0.00514885 1671.08
0 0.0161329 0.00514907 1669.3
6.77626e-21 -0.0161376 0.0052187 1758.12
6.77626e-21 0.0161377 0.00521878 1756.12
-2.71051e-20 -0.0164852 0.00415081 181.856
0 0.0164853 0.00415084 102.735
-6.77626e-21 -0.0161812 0.00524952 1754.86
-6.77626e-21 0.0161812 0.00524953 1752.71
-6.77626e-21 -0.0162 0.00521518 1756.71
0 0.0162 0.00521526 1754.59
0 0.0169483 0.00175217 39.1321
-5.42101e-20 -0.0169483 0.00175217 85.9645
-1.41172e-22 0.0168946 0.00247379 28.3939
-2.82344e-22 -0.0168959 0.00247492 67.8047
0 0.0170685 0.000542394 273.735
-5.42101e-20 -0.0170686 0.000542393 284.014
-5.64689e-22 -0.016348 0.00494369 1341.56
1.41172e-22 0.0163681 0.00495112 1271.66
8.47033e-22 -0.0168537 0.00309992 68.1685
-2.82344e-22 0.0168537 0.00309993 29.8608
0 -0.0165271 0.00473647 465.469
-2.71051e-20 0.0165271 0.0047365 339.251
5.64689e-22 -0.0168198 0.00379489 107.854
0 0.0168198 0.00379489 55.6645
0 -0.0164532 0.00518907 1994.98
0 0.0164532 0.0051891 1992.65
-1.35525e-20 -0.0164986 0.00547411 1682.12
1.35525e-20 0.0164987 0.0054742 1679.67
0 -0.0168074 0.0044544 256.166
-3.38813e-21 0.0168075 0.00445442 166.394
1.35525e-20 -0.0165401 0.00543882 1680.98
1.35525e-20 0.0165402 0.00543896 1678.56
2.71051e-20 0.0171982 0.00274291 23.0126
-2.71051e-20 -0.0171982 0.00274291 60.9966
0 -0.0165562 0.00551488 1655.86
0 0.0165562 0.0055149 1653.56
0 -0.0171475 0.00343443 62.8531
5.42101e-20 0.0171475 0.00343443 28.2435
0 0.0165954 0.00554259 1721.13
-1.35525e-20 -0.0165954 0.00554261 1723.43
0 0.0166162 0.00550295 1716.89
-1.35525e-20 -0.0166162 0.00550291 1719.19
8.47033e-23 -0.0167942 0.00511228 1071.82
-6.27432e-22 0.0168034 0.00511576 1002.96
0 0.0166838 0.00560512 1757.24
-6.77626e-21 -0.0166839 0.00560521 1759.57
-5.42101e-20 -0.0171381 0.00410853 102.198
0 0.0171382 0.00410853 51.386
6.77626e-21 -0.0176356 5.15747e-05 269.749
-6.77626e-21 0.0176356 5.15594e-05 258.564
0 -0.0176365 -8.88394e-19 269.737
0 0.0176365 -8.80501e-19 258.551
-1.12938e-21 -0.0176257 0.00114318 178.797
0 0.0176257 0.00114318 149.405
-6.77626e-21 0.017701 -1.17471e-20 255.722
0 -0.017701 -1.19998e-20 267.033
0 0.0177564 5.70206e-05 252.999
6.77626e-21 -0.0177564 5.70366e-05 264.422
0 -0.0174948 0.00304299 61.5794
-7.05861e-23 0.0174948 0.003043 24.2001
-2.71051e-20 -0.0171005 0.00478727 249.5
2.71051e-20 0.0171005 0.00478729 152.839
0 0.01776 -9.77488e-21 252.98
0 -0.01776 -9.99454e-21 264.404
-5.64689e-22 -0.0176226 0.00231708 71.4927
0 0.0176226 0.00231708 29.027
6.77626e-21 -0.016865 0.00573336 1622.13
1.35525e-20 0.0168651 0.00573338 1619.86
-1.12938e-21 -0.0169917 0.00554745 1464.35
0 0.0169918 0.00554746 1458.9
0 -0.0175404 0.00368248 73.538
1.12938e-21 0.0175404 0.00368248 33.7337
-5.64689e-22 -0.0174309 0.00445116 139.522
5.64689e-22 0.0174309 0.00445117 76.4026
1.35525e-20 -0.0170276 0.00584842 1665.09
0 0.0170278 0.0058485 1662.42
-3.38813e-21 -0.0173594 0.00515914 520.841
2.25875e-21 0.0173594 0.00515917 448.31
1.35525e-20 -0.0171315 0.00592198 1749.86
0 0.0171316 0.00592202 1746.99
-1.35525e-20 -0.0171628 0.0058861 1725.09
2.71051e-20 0.0171629 0.00588616 1722.23
0 -0.0171821 0.00595789 1528.66
-1.35525e-20 0.0171822 0.00595791 1525.72
2.71051e-20 -0.017769 0.00410415 69.1981
0 0.017769 0.00410415 32.7664
-5.42101e-20 -0.0182634 0.000578943 251.008
-1.0842e-19 0.0182634 0.000578939 238.714
0 0.0173972 0.0056105 1063.89
0 -0.0173983 0.00561199 1104.94
0 -0.0172648 0.00601707 1289.76
0 0.0172648 0.00601705 1286.59
-1.35525e-20 -0.0173077 0.00592609 1331.87
0 0.0173077 0.00592612 1328.76
0 0.0182204 0.00175681 39.3811
5.42101e-20 -0.0182204 0.00175681 88.7259
-5.42101e-20 -0.0177285 0.00478169 137.731
5.42101e-20 0.0177285 0.0047817 69.4464
5.42101e-20 -0.0181282 0.00306192 55.6752
-5.42101e-20 0.0181282 0.00306192 17.5597
9.88205e-22 0.0181211 0.00374048 24.2668
-7.05861e-22 -0.0181211 0.00374048 60.2584
-5.42101e-20 -0.0177324 0.00540771 329.283
2.71051e-20 0.0177325 0.00540772 218.857
-2.71051e-20 -0.0174849 0.00617225 1165.14
1.35525e-20 0.0174849 0.00617229 1161.44
0 -0.0175758 0.00590987 1184.33
0 0.0175758 0.00590988 1180.59
-5.64689e-22 -0.0180729 0.00442473 84.8615
0 0.0180729 0.00442474 40.0842
0 -0.0175826 0.00610029 1186.96
-1.35525e-20 0.0175826 0.00610033 1183.25
0 -0.0175873 0.00624642 1254.68
2.71051e-20 0.0175873 0.00624644 1250.97
-1.12938e-21 -0.018047 0.00508937 176.705
-1.69407e-21 0.018047 0.00508938 102.888
0 0.017673 0.00632955 1191.46
0 -0.017673 0.00632954 1195.27
-2.71051e-20 0.0177235 0.00621993 1207.2
0 -0.0177235 0.00621991 1211
0 0.0188362 3.90693e-05 237.634
-6.77626e-21 -0.0188362 3.90686e-05 250.693
-6.77626e-21 -0.0188376 -1.39629e-21 250.695
6.77626e-21 0.0188376 -1.37533e-21 237.637
-2.71051e-20 0.0184191 0.00406131 21.1358
2.71051e-20 -0.0184191 0.0040613 55.3739
0 -0.0188782 -3.44889e-23 250.646
6.77626e-21 0.0188782 -3.56432e-23 237.527
-5.64689e-22 -0.0188457 0.00115779 171.301
5.64689e-22 0.0188457 0.00115779 139.184
-3.61401e-21 -0.017989 0.00579611 709.287
-2.71051e-21 0.017989 0.00579611 643.863
0 -0.0189173 3.90222e-05 250.525
6.77626e-21 0.0189173 3.90242e-05 237.35
6.77626e-21 -0.0189184 -4.2274e-23 250.525
6.77626e-21 0.0189184 -4.34052e-23 237.35
8.47033e-22 -0.0188016 0.00239367 73.3181
2.82344e-22 0.0188016 0.00239367 27.7152
2.71051e-20 -0.0179168 0.00619826 1253.61
0 0.0179168 0.00619827 1249.87
0 -0.0178342 0.00647803 1217.78
1.35525e-20 0.0178342 0.00647805 1213.84
2.71051e-20 -0.0183812 0.00473969 78.7225
0 0.0183812 0.00473969 37.7056
0 -0.0179161 0.00640623 1237.4
2.71051e-20 0.0179161 0.00640626 1233.45
0 -0.0179071 0.00654735 1369.76
1.35525e-20 0.0179071 0.00654736 1365.85
-1.12938e-21 0.0187899 0.00359346 17.7758
-2.25875e-21 -0.0187899 0.00359346 54.1347
-2.71051e-20 -0.0183614 0.0054084 155.817
2.71051e-20 0.0183614 0.0054084 81.7747
1.35525e-20 0.0179797 0.00661798 1213.3
0 -0.0179797 0.00661798 1217.45
0 0.0180436 0.00652848 1233.53
0 -0.0180436 0.00652847 1237.65
1.41172e-22 -0.0187173 0.00436434 61.0221
-1.27055e-21 0.0187173 0.00436434 24.7818
-1.50584e-21 -0.018177 0.00625308 1008.5
1.50584e-21 0.018177 0.00625308 959.903
0 -0.0181271 0.00676144 1219.7
1.35525e-20 0.0181271 0.00676146 1215.53
2.71051e-20 -0.0183874 0.00602484 411.34
-2.71051e-20 0.0183874 0.00602485 259.535
2.71051e-20 -0.0182481 0.00651393 1267.14
0 0.0182481 0.00651394 1262.85
4.94103e-22 0.0187359 0.00501818 49.779
6.35275e-22 -0.0187359 0.00501817 100.25
-1.35525e-20 -0.0182332 0.00669844 1242.4
0 0.0182332 0.00669846 1238.26
0 -0.018217 0.00684899 1309.66
-2.71051e-20 0.0182171 0.00684899 1305.75
-5.42101e-20 -0.0194643 0.000581954 250.182
-5.42101e-20 0.0194643 0.000581956 236.231
-5.42101e-20 -0.0194401 0.00177497 91.9317
5.42101e-20 0.0194401 0.00177497 38.2558
1.12938e-21 -0.0186825 0.00571617 213.863
1.12938e-21 0.0186825 0.00571618 121.219
2.71051e-20 0.018308 0.00693726 1212.86
1.35525e-20 -0.018308 0.00693726 1216.73
0 0.018365 0.00682515 1236.85
-1.35525e-20 -0.018365 0.00682514 1240.76
0 0.0191534 0.00414674 15.9696
0 -0.0191534 0.00414674 50.1565
0 -0.0194225 0.00303969 55.6331
0 0.0194225 0.00303969 14.8461
0 0.01915 0.0045832 20.9651
0 -0.01915 0.0045832 55.1608
0 -0.0186305 0.00640894 755.414
1.807e-21 0.0186305 0.00640895 679.071
1.05879e-22 0.0193894 0.00369515 14.9865
-5.13514e-20 -0.0193886 0.00369336 51.5136
2.71051e-20 -0.0185455 0.00680231 1260.56
-2.71051e-20 0.0185455 0.00680231 1256.82
0 -0.019012 0.00537772 86.8905
-2.71051e-20 0.019012 0.00537773 41.6034
-1.35525e-20 -0.0184497 0.00707482 1215.95
-2.71051e-20 0.0184497 0.00707483 1212.06
1.35525e-20 -0.018538 0.00700337 1238.3
0 0.018538 0.00700339 1234.38
0 -0.0193613 0.00436274 51.3172
1.35525e-20 0.0193613 0.00436274 16.9749
-1.35525e-20 -0.0185249 0.0071478 1385.24
-1.35525e-20 0.0185249 0.0071478 1381.34
2.71051e-20 -0.0189858 0.00603642 184.874
0 0.0189858 0.00603643 92.4877
0 0.018601 0.00722169 1213.17
-1.35525e-20 -0.018601 0.00722169 1217.33
-1.35525e-20 0.0186688 0.00713006 1235.57
0 -0.0186688 0.00713005 1239.7
0 0.0193578 0.00503068 27.0161
-7.05861e-22 -0.0193578 0.00503068 64.3524
-2.71051e-20 -0.0195829 0.00413333 48.733
-2.71051e-20 0.0195829 0.00413333 13.9004
6.02335e-21 -0.0188026 0.00685908 1014.68
0 0.0188026 0.00685908 965.465
-3.38813e-21 0.0200409 2.97531e-05 235.902
-3.38813e-21 -0.0200409 2.97437e-05 250.625
-3.38813e-21 0.0200414 5.6205e-24 235.902
-6.77626e-21 -0.0200414 5.63319e-24 250.625
-6.77626e-21 -0.020072 -1.60504e-25 250.633
-6.77626e-21 0.020072 -1.56925e-25 235.869
-1.12938e-21 0.0200566 0.00116432 138.205
-1.12938e-21 -0.0200566 0.00116432 173.789
0 -0.0195648 0.00457553 50.5683
0 0.0195648 0.00457553 16.3319
0 -0.020102 2.93804e-05 250.638
-6.77626e-21 0.020102 2.93892e-05 235.835
0 -0.0201024 -1.7309e-25 250.638
-3.38813e-21 0.0201024 -1.69595e-25 235.835
2.71051e-20 -0.0187404 0.00735707 1220.29
0 0.0187404 0.00735708 1216.14
0 -0.0190162 0.00663681 417.205
2.82344e-21 -0.0193208 0.00568921 105.736
1.12938e-21 0.0193208 0.00568921 50.4023
0 0.0190162 0.00663681 262.973
-2.71051e-20 -0.0188683 0.00711623 1265.45
-2.71051e-20 0.0188683 0.00711623 1261.16
5.64689e-22 0.0200437 0.0023892 26.6354
-5.64689e-22 -0.0200437 0.0023892 76.2991
-1.35525e-20 -0.0188522 0.00729488 1245.35
-1.35525e-20 0.0188522 0.0072949 1241.23
1.35525e-20 -0.0188339 0.00744777 1317.86
-2.71051e-20 0.0188339 0.00744777 1313.96
2.25875e-21 -0.0193083 0.00633279 225.571
-5.64689e-22 0.0193083 0.00633279 125.362
0 -0.0196626 0.005336 57.8397
-2.71051e-20 0.0196626 0.005336 23.7121
0 0.0189281 0.00753929 1219.93
-2.71051e-20 -0.0189281 0.0075393 1223.8
1.35525e-20 0.018987 0.00742577 1244.41
0 -0.018987 0.00742576 1248.31
-5.64689e-21 0.0200608 0.00364085 13.3133
2.25875e-21 -0.0200608 0.00364085 51.6394
0 -0.0200043 0.00434223 48.287
0 0.020005 0.00434221 13.6449
-9.03502e-22 -0.0192547 0.00701653 763.034
0 0.0192547 0.00701654 684.955
2.71051e-20 -0.0196313 0.0059969 94.2581
-2.71051e-20 0.0196313 0.0059969 44.0712
2.71051e-20 -0.019165 0.00740556 1273.6
-2.71051e-20 0.019165 0.00740556 1269.9
-1.35525e-20 -0.0190666 0.0076737 1233.16
1.35525e-20 0.0190666 0.00767372 1229.3
-1.35525e-20 -0.0191579 0.00760273 1258.53
-1.35525e-20 0.0191579 0.00760276 1254.64
-1.35525e-20 -0.0191443 0.00774911 1416.39
0 0.0191443 0.00774911 1412.54
2.25875e-21 0.0200588 0.00492596 17.6533
-4.51751e-21 -0.0200588 0.00492596 52.0794
5.42101e-20 0.0206698 0.000582857 235.5
-5.42101e-20 -0.0206698 0.000582861 251.085
0 -0.0196174 0.00664558 189.994
-2.71051e-20 0.0196174 0.00664558 92.4218
5.42101e-20 0.0206614 0.00177612 39.0375
-5.42101e-20 -0.0206614 0.00177612 98.9776
5.64689e-22 -0.0199641 0.0056435 66.6337
-9.88205e-22 0.0199641 0.00564351 28.0962
0 0.0192227 0.00782524 1243.15
0 -0.0192227 0.00782524 1247.27
0 0.019291 0.00773359 1265.45
1.35525e-20 -0.019291 0.00773358 1269.54
-6.02335e-21 -0.0194227 0.0074662 1036.58
0 0.0194227 0.00746621 986.829
0 -0.0206623 0.00301958 57.8898
0 0.0206623 0.00301958 13.9227
-2.71051e-20 -0.0196377 0.00724853 429.47
2.71051e-20 0.0196377 0.00724854 273.968
0 -0.0193612 0.00795969 1261.32
2.71051e-20 0.0193612 0.00795972 1257.22
-2.11758e-22 0.0199857 0.00626967 56.1586
-7.76447e-22 -0.0199857 0.00626967 117.807
-2.71051e-20 -0.0194876 0.00772288 1304.4
0 0.0194876 0.00772289 1300.15
-1.35525e-20 -0.0194741 0.00789919 1289.3
2.71051e-20 0.0194741 0.00789922 1285.24
1.35525e-20 -0.0194568 0.00805247 1367.08
0 0.0194568 0.00805249 1363.3
-5.42101e-20 -0.020646 0.00431688 45.1099
5.42101e-20 0.020646 0.00431688 10.2621
-1.69407e-21 -0.0199324 0.00695123 236.84
0 0.0199324 0.00695124 130.273
0 0.0204014 0.00542818 16.5276
-5.42101e-20 -0.0204014 0.00542818 50.9748
-1.35525e-20 -0.0195522 0.0081451 1272.43
-1.35525e-20 0.0195522 0.0081451 1268.67
-2.71051e-20 -0.0196102 0.00803323 1297.69
0 0.0196102 0.00803325 1293.9
0 -0.0206227 0.00497844 48.0418
0 0.0206227 0.00497844 13.6269
2.71051e-20 0.0203983 0.00584945 22.5658
0 -0.0203983 0.00584945 55.083
2.75286e-21 0.0206336 0.00497828 13.5856
-6.35275e-22 -0.0206336 0.00497828 47.9846
0 0.0212528 2.19599e-05 236.6
0 -0.0212528 2.19439e-05 253.279
3.38813e-21 0.0212529 7.60296e-27 236.6
3.38813e-21 -0.0212529 7.49097e-27 253.279
3.38813e-21 -0.0212756 -1.68764e-27 253.351
0 0.0212756 -1.64263e-27 236.629
4.51751e-22 -0.0198732 0.00763095 796.17
-9.03502e-22 0.0198732 0.00763097 713.073
0 -0.0212981 -1.63401e-27 253.4
0 -0.0212981 2.16273e-05 253.4
0 0.0212981 -1.61625e-27 236.636
3.38813e-21 0.0212981 2.1644e-05 236.636
-5.64689e-22 0.0212738 0.00116378 138.918
5.64689e-22 -0.0212739 0.00116378 177.82
2.71051e-20 -0.0202601 0.00662438 101.574
2.71051e-20 0.0202601 0.00662438 45.01
0 -0.0197861 0.00801629 1332.13
0 0.0197861 0.00801631 1328.55
-1.35525e-20 0.0206092 0.00563621 17.5612
-1.35525e-20 -0.0206092 0.00563621 51.2605
-1.35525e-20 -0.0196952 0.00828391 1298.02
-1.35525e-20 0.0196953 0.00828395 1294.34
-5.64689e-22 0.0212735 0.00238449 26.6858
1.12938e-21 -0.0212735 0.00238449 80.4153