# omega  POINT_DATA 31572
# x  y  z  omega
0.0292381 0 8.09214e-08 1323.34
-0.0292381 0 8.09214e-08 1324.35
0.0292381 -3.38813e-21 0.000233596 1274.61
-0.0292381 3.38813e-21 0.000233441 1275.65
0.029238 -3.38813e-21 0.000431066 1381.29
-0.0292381 0 0.000430751 1382.28
0.029238 -1.35525e-20 0.000664138 1785.9
-0.029238 -6.77626e-21 0.000663676 1786.81
0.029238 -3.38813e-21 0.000908366 2099.77
-0.029238 0 0.000907922 2100.85
-0.029238 -3.38813e-21 0.00111494 2277.5
0.029238 3.38813e-21 0.00111544 2276.44
-0.029238 0 0.00135903 2538.19
0.0292379 0 0.00135951 2537.16
-0.0292379 -3.38813e-21 0.00161391 2678.63
0.0292379 0 0.00161421 2677.4
-0.0292379 3.38813e-21 0.00183185 2488.93
0.0292379 3.38813e-21 0.00183203 2488.09
0.0292379 1.35525e-20 0.002087 1763.02
-0.0292379 -1.35525e-20 0.002087 1762.5
-0.0293159 -1.01644e-20 0.000332812 1307.22
0.0293159 1.69407e-20 0.000333044 1306.17
-0.0293201 -3.38813e-21 0.00100457 2327.97
0.0293201 1.35525e-20 0.00100504 2326.88
-0.0293199 0 0.0017002 2895.44
0.0293199 3.38813e-21 0.00170046 2894.16
-0.0294721 0 0.000122211 1456.11
0.0294722 1.35525e-20 0.000122307 1455.08
-0.0294728 0 7.47975e-08 1460.21
0.0294728 0 7.47971e-08 1459.19
-0.0294797 1.35525e-20 0.000527785 1845.62
0.0294797 -1.35525e-20 0.000528144 1844.67
-0.0294753 -1.35525e-20 0.000796291 2254.39
0.0294753 1.35525e-20 0.000796753 2253.39
-0.0294755 2.03288e-20 0.00118666 2841.02
0.0294755 0 0.00118714 2839.95
-0.0294683 -1.35525e-20 0.00147414 3077.37
0.0294683 -1.35525e-20 0.00147454 3076.2
-0.0294625 -6.77626e-21 0.00186309 2486.83
0.0294626 -6.77626e-21 0.00186328 2486.68
-0.029578 1.35525e-20 6.64178e-08 1434.5
0.029578 0 6.64171e-08 1433.35
-0.0295009 -1.35525e-20 0.00213468 1571.99
0.0295009 6.77626e-21 0.00213468 1573.37
-0.029587 1.35525e-20 0.000650836 1856.27
0.0295871 -2.71051e-20 0.00065131 1849.08
-0.0295378 1.35525e-20 0.00203786 1836.12
0.0295378 1.35525e-20 0.00203793 1837.25
-0.029584 -2.71051e-20 0.00130565 2577.22
0.0295841 0 0.00130618 2564.36
-0.0295849 -1.35525e-20 0.00192058 1952.71
0.0295849 6.77626e-21 0.00192076 1937.89
0.029649 0 0.00216152 1849.41
-0.029649 0 0.00216152 1848.43
-0.0297926 4.51751e-22 0.000963661 2994.92
0.0297927 1.807e-21 0.000964146 2987.4
-0.0298093 -1.35525e-20 7.62609e-08 1729.37
0.0298093 -2.71051e-20 7.62598e-08 1728.33
-0.0298204 9.03502e-22 0.000317447 1695.96
0.0298205 1.12938e-21 0.000317662 1693.86
-0.0297852 -4.51751e-22 0.00156826 3598.86
0.0297852 1.807e-21 0.00156862 3584.53
-0.0297946 5.0822e-21 0.00197115 2007.9
0.0297946 3.38813e-21 0.0019713 2009.23
-0.029885 -3.38813e-21 8.57338e-08 1646.07
0.0298851 -3.38813e-21 8.5738e-08 1644.96
0.0298185 -6.77626e-21 0.00219226 1520.37
-0.0298186 -2.71051e-20 0.00219226 1518.83
-0.0299229 0 0.00221118 1649.98
0.0299229 -1.35525e-20 0.00221118 1650.85
-0.0300582 0 1.01023e-07 1269.45
0.0300583 0 1.01025e-07 1268.37
-0.030042 0 0.00125419 1750.26
0.0300421 -9.03502e-21 0.00125463 1728.5
-0.030023 7.7443e-21 0.00171052 1816.65
0.0300231 -4.84019e-21 0.0017108 1789.7
-0.0300766 0 0.00065666 1412.76
0.0300767 4.51751e-21 0.000657051 1400.78
-0.0301411 -6.77626e-21 0.000117994 1220.86
0.0301411 6.77626e-21 0.000117999 1219.96
-0.030143 0 9.36904e-08 1220.59
0.0301431 0 9.3697e-08 1219.68
-0.0300722 1.35525e-20 0.00223823 1191.21
0.0300722 -1.35525e-20 0.00223824 1191.88
-0.0302709 -1.35525e-20 0.000327812 1110.22
0.0302709 0 0.000327976 1109.47
-0.0302588 0 0.000959195 1371.01
0.0302588 0 0.000959517 1355.93
-0.0302233 -2.25875e-21 0.00199374 1220.74
0.0302233 -1.12938e-21 0.00199386 1221.28
-0.0302513 0 0.00155258 1539.17
0.0302514 0 0.00155284 1522.95
0.0303944 -1.01644e-20 0.00229663 1208.82
-0.0303944 0 0.00229664 1208.46
-0.0305071 -3.38813e-21 4.03686e-05 1013.33
0.0305071 3.38813e-21 4.03653e-05 1012.63
-0.0305084 0 2.78813e-08 1012.86
0.0305085 0 2.78788e-08 1012.15
-0.0305355 0 2.44807e-08 985.098
0.0305355 -3.38813e-21 2.44807e-08 984.387
0.030464 0 0.00230926 1266.96
-0.030464 3.38813e-20 0.00230926 1266.66
0.0305559 -3.38813e-21 2.5605e-08 978.054
-0.0305559 0 2.56056e-08 978.75
0.0305566 0 2.16951e-05 978.034
-0.0305566 0 2.17024e-05 978.73
-0.0305496 7.05861e-23 0.00065626 977.382
0.0305496 -1.41172e-22 0.000656486 971.618
-0.0305132 0 0.00170668 1119.38
0.0305132 3.76459e-22 0.00170684 1111.81
-0.0305476 -1.12938e-22 0.00124506 1032.63
0.0305476 -2.25875e-22 0.00124529 1021.35
-0.030501 -6.77626e-21 0.00231596 1204.53
0.030501 0 0.00231596 1204.77
0.0306237 0 3.57389e-08 975.16
-0.0306238 0 3.5746e-08 975.842
-0.0306099 0 0.0021928 1104.21
0.03061 0 0.00219279 1104.35
-0.0307225 -3.38813e-21 0.00235612 1171.61
0.0307226 0 0.00235614 1171.68
-0.0308383 2.71051e-20 0.000320901 879.64
0.0308383 5.42101e-20 0.000320968 879.023
-0.0308116 -2.25875e-21 0.00198356 891.748
0.0308116 1.12938e-21 0.00198362 890.966
-0.0309907 0 0.0010195 590.612
0.0309907 -2.71051e-21 0.00101961 589.943
-0.0309922 0 0.00150595 594.936
0.0309922 4.51751e-21 0.00150605 592.389
-0.0310394 0 9.17162e-08 904.118
0.0310395 0 9.17132e-08 903.525
-0.0310415 0 0.000119361 901.231
0.0310416 0 0.000119404 900.633
-0.030965 0 0.00240008 1130.41
0.030965 0 0.00240009 1130.28
-0.030982 0 0.00237269 1115.15
0.030982 0 0.00237271 1115.02
0.0310104 6.77626e-21 0.00240832 1130.5
-0.0310104 -6.77626e-21 0.00240832 1130.66
0.0310179 6.77626e-21 0.00233587 1031.64
-0.0310179 6.77626e-21 0.00233584 1033.47
-0.0311223 9.03502e-21 0.000639224 724.806
0.0311223 -9.03502e-21 0.000639291 722.099
0.0310526 6.77626e-21 0.00237692 1094.61
-0.0310526 6.77626e-21 0.00237691 1094.77
-0.0311458 1.35525e-20 9.71539e-08 939.628
0.0311459 0 9.71521e-08 939.082
0.031071 0 0.00241931 1102.33
-0.0310711 6.77626e-21 0.00241931 1102.51
-0.0312091 -2.71051e-20 0.00177609 869.033
0.0312091 -2.71051e-20 0.00177613 858.591
-0.0312491 0 0.00122869 652.663
0.0312491 0 0.00122876 645.66
-0.0312857 0 8.40765e-08 919.414
0.0312858 -1.35525e-20 8.4069e-08 918.879
-0.0312916 0 0.000133791 917.984
0.0312917 1.35525e-20 0.000133817 917.449
-0.0313889 9.03502e-21 0.00201496 776.141
0.0313889 2.25875e-21 0.00201499 770.701
-0.0313958 6.77626e-21 0.00247818 1163.04
0.0313958 0 0.00247818 1162.76
-0.0314932 0 0.00040878 820.267
0.0314932 0 0.000408784 817.253
-0.0315059 0 0.000915866 417.619
0.0315059 -6.77626e-21 0.000915906 398.353
-0.0314281 0 0.00241762 1161.74
0.0314281 0 0.00241764 1161.47
-0.0315016 0 0.00151814 404.629
0.0315016 1.12938e-20 0.00151817 383.891
0.0314986 -1.35525e-20 0.00234883 1036.38
-0.0314986 -1.35525e-20 0.00234879 1040.06
0.0315086 0 0.00249863 1280.94
-0.0315086 2.71051e-20 0.00249863 1281.26
0.0316957 1.35525e-20 0.0001271 862.741
-0.0316957 0 0.000127012 863.306
0.0316993 0 1.28441e-08 862.851
-0.0316993 0 1.28327e-08 863.415
-0.0317724 0 0.000610883 595.355
0.0317724 2.71051e-20 0.000610893 584.615
-0.0317679 0 0.00121729 355.099
0.0317679 0 0.0012173 337.76
-0.0317537 0 0.00187022 711.743
0.0317537 2.71051e-20 0.00187023 693.478
0.0317093 2.71051e-20 0.00253502 1452.19
-0.0317093 -2.71051e-20 0.00253502 1452.46
-0.0318341 -1.35525e-20 3.55262e-10 864.849
0.0318342 1.35525e-20 3.5768e-10 864.265
0.0317532 -1.8823e-22 0.00228382 1364
-0.0317532 -3.76459e-22 0.00228381 1364.39
-0.0319513 -1.35525e-20 4.55429e-10 850.931
0.0319515 1.35525e-20 4.57735e-10 850.308
-0.0319524 1.35525e-20 0.000127633 850.197
0.0319526 0 0.000127717 849.569
-0.0318828 0 0.00256647 1770.91
0.0318828 0 0.00256647 1770.68
-0.0319995 4.51751e-21 0.0009146 323.271
0.0319996 4.51751e-21 0.000914606 298.111
-0.0320112 0 0.000400505 759.562
0.0320112 0 0.0004005 755.85
0.0320267 -2.25875e-21 0.00227705 1460.09
-0.0320267 -1.12938e-21 0.00227704 1458.84
0.0320296 0 0.00251382 2115.12
-0.0320296 -2.71051e-20 0.00251381 2115.32
-0.0320975 2.25875e-21 0.00153739 303.603
0.0320975 -2.25875e-21 0.0015374 274.399
-0.0320427 1.35525e-20 0.00259543 2242.73
0.0320427 -6.77626e-21 0.00259544 2242.52
-0.0321203 -4.51751e-21 0.00203437 652.78
0.0321203 0 0.00203437 652.943
-0.032135 0 0.00238954 2157.42
0.032135 0 0.00238955 2157.26
0.0322923 1.35525e-20 0.000126387 821.75
-0.0322923 1.35525e-20 0.000126365 822.42
0.0323016 1.35525e-20 2.23457e-09 821.631
-0.0323016 -1.35525e-20 2.23356e-09 822.298
-0.0322103 -6.77626e-21 0.00262582 2314.23
0.0322103 1.35525e-20 0.00262583 2313.98
-0.0322717 0 0.00254335 2196.51
0.0322718 -1.35525e-20 0.00254336 2196.24
-0.032418 0 2.33101e-09 828.156
0.032418 -1.35525e-20 2.33195e-09 827.491
-0.0324263 2.25875e-21 0.000612604 523.762
0.0324263 -4.51751e-21 0.000612601 513.243
-0.0324222 -1.807e-20 0.00112452 214.485
0.0324222 -4.51751e-21 0.00112451 193.016
-0.032412 0 0.00187553 547.535
0.0324121 5.42101e-20 0.00187553 529.053
-0.0323801 0 0.0026566 1831.79
0.0323802 -1.35525e-20 0.00265661 1831.4
-0.0324113 1.69407e-21 0.00229689 1385.38
0.0324113 1.12938e-21 0.0022969 1376.72
-0.032547 1.35525e-20 2.20754e-09 836.361
0.032547 -1.35525e-20 2.20837e-09 835.686
-0.0325489 0 0.000125731 836.358
0.0325489 0 0.00012575 835.682
-0.0326035 -6.77626e-21 0.00269705 1962.2
0.0326035 -6.77626e-21 0.00269706 1961.73
-0.032737 2.71051e-20 0.00030837 842.848
0.032737 0 0.000308358 842.16
-0.0327282 -2.25875e-21 0.00154832 231.19
0.0327282 6.77626e-21 0.00154831 216.851
-0.0326737 -9.03502e-21 0.00254228 1842.27
0.0326738 -9.03502e-21 0.00254228 1841.8
-0.0327075 -1.35525e-20 0.00206775 569.582
0.0327075 -4.51751e-21 0.00206775 528.371
-0.032708 -2.71051e-20 0.002716 1914.84
0.0327081 0 0.00271601 1914.32
-0.0328421 -9.03502e-21 0.000917741 241.978
0.0328421 0 0.000917735 232.866
-0.0328866 0 1.93643e-09 853.179
0.0328867 0 1.93682e-09 852.468
-0.032889 0 0.000149427 853.178
0.032889 1.35525e-20 0.000149442 852.467
-0.0329824 -7.7443e-21 0.000542132 631.425
0.0329824 5.80823e-21 0.00054211 626.573
-0.0330371 -2.71051e-20 1.79015e-09 856.254
0.0330372 -1.35525e-20 1.79044e-09 855.522
-0.0329464 0 0.00275916 1450.27
0.0329464 0 0.00275917 1449.69
-0.0329864 3.38813e-22 0.00235373 1166.42
0.0329864 -1.12938e-22 0.00235373 1149.84
-0.0330505 -2.71051e-20 0.00123121 174.467
0.0330505 0 0.00123119 160.353
-0.03302 -2.71051e-20 0.00190069 446.867
0.03302 2.71051e-20 0.00190069 427.118
-0.0332006 -1.35525e-20 2.0216e-09 860.842
0.0332007 -2.71051e-20 2.02177e-09 860.055
-0.0333521 2.25875e-21 0.000302612 797.934
0.0333521 -9.03502e-21 0.000302604 795.449
-0.0333579 9.03502e-21 0.000916469 244.491
0.0333579 2.25875e-21 0.000916441 228.173
0.0332522 6.77626e-21 0.00281453 1675.02
-0.0332522 2.37169e-20 0.00281452 1675.63
-0.0333432 4.51751e-21 0.00156281 193.972
0.0333432 9.03502e-21 0.0015628 171.842
-0.0332953 0 0.00276394 1709.29
0.0332953 0 0.00276393 1708.7
-0.0333121 1.35525e-20 0.00282536 1679.97
0.0333121 0 0.00282536 1679.36
-0.03334 -1.01644e-20 0.00259806 1623.72
0.03334 -1.12938e-21 0.00259806 1622.52
-0.0333776 -1.12938e-20 0.00214892 508.047
0.0333777 2.25875e-21 0.00214893 481.955
-0.0334909 0 2.97205e-09 868.228
0.0334909 -2.71051e-20 2.97158e-09 867.407
-0.0336619 -2.71051e-20 3.2006e-09 872.999
0.0336619 0 3.20002e-09 872.2
0.0336674 -2.71051e-20 0.000602311 518.788
-0.0336674 0 0.000602349 528.811
0.0336288 -2.71051e-20 0.00191753 361.032
-0.0336288 0 0.00191754 380.456
0.0336642 0 0.00123321 138.357
-0.0336642 -2.71051e-20 0.00123324 160.085
-0.0335885 -2.71051e-20 0.00287539 1475.84
0.0335885 0 0.00287539 1475.22
-0.0336882 0 0.0024221 1064.4
0.0336883 0 0.00242211 1055.8
-0.0338384 -1.35525e-20 2.82155e-09 874.067
0.0338384 1.35525e-20 2.82101e-09 873.247
0.0338129 -2.71051e-20 0.00291608 1383.83
-0.033813 -1.35525e-20 0.00291609 1384.52
-0.0339781 9.03502e-21 0.000302701 807.575
0.0339781 9.03502e-21 0.000302675 805.087
-0.0339808 -4.51751e-21 0.000914761 237.046
0.0339808 -4.51751e-21 0.000914701 222.403
0.0339745 -9.03502e-21 0.00155861 138.82
-0.0339745 -4.51751e-21 0.00155866 160.975
-0.0339481 -4.51751e-22 0.00267579 1385.55
0.0339481 4.51751e-22 0.00267579 1384.43
-0.0339879 -4.51751e-21 0.00215835 440.403
0.0339879 9.03502e-21 0.00215833 414.836
-0.0341105 -1.35525e-20 1.81923e-09 878.41
0.0341105 -1.35525e-20 1.81899e-09 877.591
0.0340317 0 0.00295577 1361.03
-0.0340318 0 0.00295579 1361.7
-0.0342884 -2.71051e-20 1.43984e-09 887.009
0.0342884 -2.71051e-20 1.43965e-09 886.211
-0.0342943 -2.71051e-20 0.000598991 532.093
0.0342943 2.71051e-20 0.000598921 525.546
0.0342171 -1.35525e-20 0.00298939 1419.21
-0.0342172 2.71051e-20 0.0029894 1419.82
0.0342949 0 0.00244804 935.91
-0.0342949 -2.71051e-20 0.00244805 946.661
-0.034362 2.12968e-20 0.00129504 129.6
0.034362 -3.87215e-21 0.00129496 112.736
-0.0343655 9.68038e-21 0.00179159 170.39
0.0343655 1.54886e-20 0.00179153 151.795
0.0343352 1.35525e-20 0.00301088 1162.3
-0.0343353 1.35525e-20 0.00301088 1163.06
-0.0344682 1.35525e-20 1.2842e-09 890.737
0.0344682 2.71051e-20 1.284e-09 889.931
-0.0345084 -4.51751e-21 0.000909454 229.318
0.0345084 -4.51751e-21 0.000909369 219.705
-0.034518 -1.807e-20 0.00215838 351.012
0.034518 -1.35525e-20 0.00215835 338.368
-0.0346072 -6.77626e-21 0.000300821 824.426
0.0346072 9.03502e-21 0.000300778 822.566
0.0346152 0 0.00154283 87.2987
-0.0346152 0 0.00154291 103.063
0.034558 -4.51751e-22 0.00272776 967.124
-0.034558 -2.25875e-22 0.00272775 968.213
0.0345977 1.35525e-20 0.00305919 1173.27
-0.0345978 0 0.0030592 1174.08
-0.0347356 0 9.21309e-10 905.132
0.0347357 1.35525e-20 9.21242e-10 904.334
-0.0346831 1.35525e-20 0.00307472 1317.42
0.0346831 6.77626e-21 0.00307474 1316.84
-0.0349165 2.71051e-20 7.6471e-10 925.037
0.0349166 0 7.64643e-10 924.268
-0.0349264 4.51751e-21 0.000691164 400.639
0.0349264 -9.03502e-21 0.000691082 394.383
0.0349292 -2.25875e-21 0.00121438 120.024
-0.0349292 2.03288e-20 0.00121448 133.817
0.0349324 1.12938e-20 0.00185859 137.698
-0.0349324 -4.51751e-21 0.00185866 161.476
0.0348922 1.35525e-20 0.00311391 1530.17
-0.0348922 -3.38813e-21 0.00311391 1530.73
0.0349975 6.77626e-21 0.00246507 697.113
-0.0349975 -9.03502e-21 0.00246508 711.195
-0.0350985 0 7.01007e-10 932.309
0.0350985 1.35525e-20 7.00941e-10 931.505
-0.035002 0 0.00285808 1483.4
0.035002 0 0.00285808 1480.67
-0.0352406 -1.12938e-20 0.000295905 859.254
0.0352407 6.77626e-21 0.000295859 857.469
-0.0352487 0 0.00089372 167.582
0.0352487 -2.71051e-20 0.000893614 157.163
0.0351342 1.69407e-21 0.00315794 2015.59
-0.0351343 0 0.00315795 2016.12
0.0352503 0 0.00152768 77.7803
-0.0352503 0 0.00152777 99.5055
-0.0351477 1.69407e-21 0.00316042 2023.16
0.0351478 -1.69407e-21 0.00316043 2022.68
0.0351794 0 0.00281731 1537.07
-0.0351794 0 0.00281732 1540.08
-0.035153 0 0.00314568 2019.31
0.035153 -1.69407e-21 0.00314559 2018.81
0.0352564 0 0.00217228 163.931
-0.0352564 -2.71051e-20 0.00217232 203.885
-0.0353734 -1.35525e-20 5.21809e-10 949.98
0.0353735 0 5.21779e-10 949.154
-0.0352366 -1.69407e-21 0.0031769 2030.16
0.0352373 -3.38813e-21 0.00317703 2029.73
-0.0353097 0 0.00290011 1770.79
0.0353097 1.35525e-20 0.00290013 1770.61
-0.0355532 0 4.57365e-10 983.813
0.0355533 0 4.57336e-10 983.02
0.0355671 -9.03502e-21 0.00119581 117.863
-0.0355671 -2.25875e-21 0.00119592 133.045
0.0355696 9.03502e-21 0.00184838 110.691
-0.0355696 0 0.00184845 137.505
-0.0356124 2.25875e-21 0.000622322 529.09
0.0356125 2.25875e-21 0.000622242 523.347
0.0355744 -4.51751e-21 0.00250427 582.847
-0.0355744 9.03502e-21 0.00250428 610.468
-0.035529 3.38813e-21 0.0032312 2135.07
0.0355292 -3.38813e-21 0.00323122 2134.42
-0.0355423 0 0.00321267 2109.09
0.0355424 0 0.00321273 2108.49
0.0355811 -9.03502e-21 0.00287218 1435.34
-0.0355811 -9.03502e-21 0.00287218 1447.93
-0.035574 3.38813e-21 0.00316175 1918.17
-0.0355672 0 0.0032382 2017.59
0.0355741 0 0.0031619 1914.46
0.0355673 0 0.00323821 2017.11
-0.0357312 -1.35525e-20 4.06834e-10 988.038
0.0357313 -1.35525e-20 4.06801e-10 987.198
-0.0356064 0 0.00321772 2035.92
0.0356064 0 0.00321777 2035.41
0.0356195 3.38813e-21 0.00324783 2037.47
-0.0356195 3.38813e-21 0.00324784 2038
-0.0358766 0 0.000193571 996.319
0.0358767 0 0.000193555 995.458
-0.035885 0 0.000875629 172.171
0.035885 -2.71051e-20 0.000875535 162.781
-0.0358906 2.71051e-20 0.00150725 89.8713
0.0358906 -2.71051e-20 0.00150716 70.8333
0.0358881 -2.71051e-20 0.00216694 124.096
-0.0358881 -2.71051e-20 0.00216698 149.301
-0.0358664 0 0.00295102 1372.65
0.0358665 1.35525e-20 0.00295103 1352.93
-0.0360201 -1.35525e-20 2.47881e-10 1006.5
0.0360202 2.71051e-20 2.47868e-10 1005.61
-0.036024 6.77626e-21 0.00332287 1773.16
0.0360241 0 0.00332289 1772.31
-0.0361957 0 1.96858e-10 1053.04
0.0361958 0 1.96841e-10 1052.2
-0.0362011 -6.77626e-21 0.000563546 611.662
0.0362011 4.51751e-21 0.000563484 605.594
-0.03606 0 0.0032685 1726.04
0.0360601 -1.35525e-20 0.00326857 1725.24
-0.036206 0 0.00117895 133.733
0.0362061 0 0.00117887 117.415
0.0362045 2.25875e-21 0.00184383 92.1782
-0.0362045 6.77626e-21 0.00184388 117.5
0.0361888 -2.25875e-21 0.00253169 446.037
-0.0361888 -2.25875e-21 0.0025317 481.761
-0.0361316 0 0.00334265 1557.41
0.0361316 -1.35525e-20 0.00334265 1556.66
0.0361687 -6.77626e-21 0.00293434 1138.62
-0.0361687 9.03502e-21 0.00293434 1158.79
0.0361567 6.77626e-21 0.00314741 1391.82
-0.0361567 0 0.00314727 1404.65
-0.0363723 0 1.67562e-10 1038.76
0.0363723 1.35525e-20 1.67547e-10 1037.87
0.0362562 0 0.00328574 1645.36
-0.0362563 2.71051e-20 0.00328569 1646.2
0.0363065 6.77626e-21 0.00337454 1673
-0.0363067 1.35525e-20 0.00337456 1673.91
-0.0365138 0 0.000190564 1043.76
0.0365138 0 0.000190552 1042.84
-0.0365218 2.71051e-20 0.000861999 180.93
0.0365219 2.71051e-20 0.000861929 166.791
-0.0365244 0 0.00149847 88.8827
0.0365244 0 0.00149841 65.9995
0.0365145 0 0.00218148 103.9
-0.0365145 0 0.00218151 137.856
-0.0364788 0 0.00289752 786.504
0.0364788 1.35525e-20 0.00289755 761.366
-0.0366526 0 8.42588e-11 1051.42
0.0366527 0 8.42553e-11 1050.46
-0.036569 -5.42101e-21 0.00323416 1608.2
0.036569 1.35525e-20 0.00323419 1607.3
-0.0365532 0 0.00341957 1728.97
0.0365533 -1.35525e-20 0.00341959 1728.06
-0.0367898 1.35525e-20 0.000598955 576.449
0.0367898 0 0.000598917 566.229
-0.036834 0 5.5588e-11 1107.59
0.0368341 0 5.55862e-11 1106.65
-0.0368407 -4.51751e-21 0.00116968 137.054
0.0368407 4.51751e-21 0.00116963 116.39
0.0368348 -4.51751e-21 0.00184465 80.8124
-0.0368348 6.77626e-21 0.00184468 109.869
0.0368045 1.35525e-20 0.00255346 379.212
-0.0368045 -1.35525e-20 0.00255346 411.216
0.0367777 -2.71051e-20 0.00346047 1591.8
-0.0367777 2.71051e-20 0.00346047 1592.57
-0.0368393 4.51751e-22 0.00303407 1170.06
0.0368393 1.35525e-21 0.00303408 1153.23
-0.0370199 1.35525e-20 4.78303e-11 1068.7
0.0370199 -1.35525e-20 4.78279e-11 1067.65
-0.0371489 -2.25875e-21 0.000281507 978.111
0.0371489 -9.03502e-21 0.000281494 975.181
0.0371548 0 0.000855626 166.424
-0.0371548 -2.71051e-20 0.000855666 188.146
0.0371549 2.71051e-20 0.00149516 62.033
-0.0371549 0 0.00149519 86.6625
0.0371441 0 0.00218077 89.2455
-0.0371441 0 0.00218078 123.923
0.0370564 6.77626e-21 0.00351129 1455.89
-0.0370564 -2.03288e-20 0.0035113 1456.78
0.03727 0 2.98638e-11 1074.55
-0.03727 0 2.9863e-11 1075.68
-0.0371712 2.71051e-20 0.00278261 341.215
0.0371713 0 0.00278261 306.756
-0.0371159 -1.35525e-20 0.00352215 1468.42
0.037116 -1.69407e-20 0.00352218 1467.56
-0.0371348 4.51751e-21 0.00333173 1602.16
0.0371348 0 0.00333177 1601.35
-0.0374605 0 2.22234e-11 1140.03
0.0374605 0 2.22235e-11 1138.93
-0.0374674 0 0.000637841 487.543
0.0374674 1.35525e-20 0.000637823 471.415
0.0374702 -6.77626e-21 0.00116461 115.005
-0.0374702 4.51751e-21 0.00116464 139.275
0.0374665 -1.12938e-21 0.00183966 71.1556
-0.0374665 0 0.00183967 99.7166
-0.0374682 -3.38813e-21 0.00249666 221.874
0.0374682 1.12938e-21 0.00249666 181.319
-0.0374675 4.51751e-21 0.00307365 1035.23
0.0374675 1.88079e-37 0.00307365 1012.55
-0.0374246 2.71051e-20 0.00357844 1603.45
0.0374247 1.35525e-20 0.00357845 1602.55
-0.0376529 -2.71051e-20 1.86806e-11 1086.19
0.0376529 -1.35525e-20 1.86807e-11 1084.99
-0.0377742 1.12938e-20 0.000280154 995.473
0.0377742 6.77626e-21 0.000280151 992.062
-0.0377819 0 0.000851859 191.478
0.0377819 2.71051e-20 0.00085184 166.922
0.0377838 0 0.00149135 59.2899
-0.0377838 5.42101e-20 0.00149136 86.5098
-0.0376598 6.77626e-21 0.00362112 1090.94
0.0376599 1.35525e-20 0.00362114 1089.59
0.0377819 -2.71051e-20 0.00216934 73.4919
-0.0377819 0 0.00216935 101.174
0.0377773 -5.42101e-20 0.00279682 234.055
-0.0377773 -2.71051e-20 0.00279681 299.13
0.0378849 0 1.07538e-11 1092.78
-0.0378849 0 1.07533e-11 1094.03
-0.0377229 -1.35525e-20 0.00353461 1014.92
0.037723 -6.77626e-21 0.00353476 1013.66
-0.0377797 -1.12938e-21 0.00335602 1117.64
0.0377798 0 0.00335605 1112.61
0.0377789 0 0.00364262 1036.41
-0.037779 -6.77626e-21 0.00364263 1037.7
-0.0380777 2.71051e-20 7.23455e-12 1162.65
0.0380777 0 7.23493e-12 1161.46
-0.0380891 9.03502e-21 0.000630694 504.204
0.0380891 0 0.00063069 484.493
-0.0380959 -2.25875e-21 0.00115829 143.343
0.0380959 4.51751e-21 0.00115829 115.167
0.0380968 3.38813e-21 0.0018338 63.4252
-0.0380968 -2.25875e-21 0.0018338 93.8163
-0.0379952 -1.35525e-20 0.00368181 1195.85
0.0379952 1.35525e-20 0.00368182 1194.72
-0.0380943 1.12938e-21 0.00250862 190.254
0.0380943 -2.25875e-21 0.00250862 145.299
-0.0380787 4.51751e-21 0.0030417 699.794
0.0380786 -4.51751e-21 0.00304173 666.959
-0.0382652 -1.35525e-20 6.08684e-12 1111.46
0.0382652 -1.35525e-20 6.08729e-12 1110.22
-0.0381485 0 0.00370958 950.238
0.0381486 6.77626e-21 0.0037096 948.952
-0.0383423 0 0.000233962 1054.42
0.0383424 -4.51751e-21 0.000233961 1051.62
-0.0384028 0 0.000843267 201.977
0.0384028 -2.71051e-20 0.000843267 170.902
0.03841 -2.71051e-20 0.00148247 57.9115
-0.03841 -2.71051e-20 0.00148247 89.1113
0.0384072 0 0.00217116 63.1674
-0.0384072 -5.42101e-20 0.00217116 98.6658
-0.0383453 4.51751e-22 0.00341218 897.745
0.0383454 3.16226e-21 0.0034122 892.381
0.0385067 -1.35525e-20 3.26257e-12 1133
-0.0385067 1.35525e-20 3.26167e-12 1134.28
-0.0384087 2.71051e-20 0.00283718 245.246
0.0384087 0 0.0028372 196.38
0.0383428 6.77626e-21 0.0037445 991.743
-0.0383428 6.77626e-21 0.0037445 993.008
-0.0384723 -1.35525e-20 0.00376794 1204.93
0.0384723 1.35525e-20 0.00376795 1203.85
0.038689 0 2.10859e-12 1215.26
-0.038689 2.71051e-20 2.10763e-12 1216.54
-0.0387011 2.25875e-21 0.000532365 709.205
0.0387011 2.25875e-21 0.000532366 690.403
-0.0387193 1.12938e-21 0.00114082 153.436
0.0387193 -2.25875e-21 0.00114082 119.096
-0.0387249 0 0.00181992 92.0265
0.0387249 0 0.00181992 58.4054
-0.0387232 2.25875e-21 0.00251541 164.852
0.0387232 -3.38813e-21 0.00251542 120.166
-0.0386563 1.35525e-20 0.00380866 1407.18
0.0386563 6.77626e-21 0.00380867 1406.18
0.0388555 1.35525e-20 1.85497e-12 1189.53
-0.0388555 2.71051e-20 1.85378e-12 1190.88
-0.0386905 0 0.00364409 1411.24
0.0386905 1.35525e-20 0.00364412 1410.24
0.0387735 -2.25875e-21 0.00324313 843.348
-0.0387735 -4.51751e-21 0.00324312 867.684
0.0389089 -2.71051e-21 0.000183068 1192.2
-0.038909 1.35525e-20 0.000183055 1193.55
0.0390203 2.71051e-20 0.000818063 184.117
-0.0390203 0 0.000818062 227.04
0.038876 0 0.00384256 1861.81
-0.038876 0 0.00384255 1862.76
-0.0390393 -2.71051e-20 0.00145448 92.397
0.0390393 2.71051e-20 0.00145449 57.9438
0.0390375 0 0.00215195 54.8204
-0.0390375 0 0.00215195 88.3952
-0.038928 0 0.00385208 1896.38
0.038928 -6.77626e-21 0.0038521 1895.47
-0.0389527 3.38813e-21 0.00379162 1880.89
0.0389528 0 0.00379157 1879.96
-0.0390404 -2.71051e-20 0.00284503 213.582
0.0390404 0 0.00284504 154.414
0.0391596 -1.35525e-20 9.066e-13 1281.49
-0.0391598 1.35525e-20 9.04288e-13 1282.84
0.0391706 0 0.000114816 1283.02
-0.0391707 -1.35525e-20 0.000114772 1284.37
-0.0391098 1.12938e-20 0.00361355 1688.97
0.0391098 9.03502e-21 0.00361357 1684.05
0.0393055 1.35525e-20 6.52206e-13 1398.69
-0.0393056 -1.35525e-20 6.49692e-13 1399.96
0.0393117 -4.51751e-21 0.000500429 803.924
-0.0393117 0 0.000500434 832.571
0.0393492 1.12938e-21 0.00108804 133.447
-0.0393492 2.25875e-21 0.00108803 177.96
-0.0393637 1.12938e-21 0.00177645 89.3455
0.0393637 -3.38813e-21 0.00177646 54.9813
0.0394217 1.35525e-20 8.7629e-05 1429.46
-0.0394218 0 8.75788e-05 1430.68
0.0394266 0 6.05533e-13 1425.68
-0.0394266 0 6.03128e-13 1426.89
-0.0393554 -1.12938e-21 0.00249989 136.662
0.0393554 0 0.00249989 94.677
-0.0392461 0 0.0039114 1930.77
0.0392465 1.69407e-21 0.00391149 1929.79
-0.0393554 2.71051e-21 0.00323461 711.381
0.0393554 2.25875e-21 0.00323463 670.204
-0.0393295 0 0.00392838 1965.07
0.0393297 0 0.0039284 1963.95
-0.0393343 0 0.00392289 1955.97
0.0393344 -1.69407e-21 0.00392294 1954.88
-0.039341 0 0.00393113 1933.16
0.0393412 0 0.00393114 1932.14
-0.0393435 8.47033e-21 0.00390909 1905.25
0.0393436 -1.69407e-21 0.00390918 1902.66
-0.0393533 0 0.00392488 1934.82
0.0393533 0 0.00392492 1933.79
-0.0393598 0 0.003936 1935.32
0.0393599 0 0.00393599 1934.28
0.0396051 -2.71051e-20 0.000230835 1513
-0.0396052 0 0.000230845 1514.17
0.0396385 -2.71051e-20 0.000745352 229.144
-0.0396385 0 0.000745355 297.299
0.0396943 -2.71051e-20 0.00136783 60.3508
-0.0396943 0 0.00136783 98.8735
-0.0396774 -2.71051e-20 0.0021149 78.5545
0.0396774 2.71051e-20 0.0021149 47.1657
-0.039584 3.87215e-21 0.00366033 1353.92
0.039584 5.80823e-21 0.00366035 1333.18
-0.0396652 -2.71051e-20 0.0028356 156.543
0.0396652 2.71051e-20 0.0028356 114.302
0.0398974 -7.52918e-21 0.000433584 862.933
-0.0398974 7.52918e-21 0.000433597 884.106
-0.0397723 1.35525e-20 0.00404307 1662.14
0.0397724 1.35525e-20 0.00404309 1660.81
-0.0398261 -1.35525e-20 0.00397859 1586.28
0.0398262 -1.35525e-20 0.00397863 1584.97
-0.0400266 0 5.89696e-14 1180.32
0.0400285 -3.07049e-21 5.87113e-14 1177.27
-0.0400315 0 6.38781e-07 1178.6
-0.0400248 -7.52918e-22 0.000878018 325.632
0.0400248 5.0822e-21 0.000878006 296.006
-0.0400176 -6.58803e-22 0.0017143 95.1925
0.0400177 -5.64689e-22 0.00171429 57.9634
-0.0399832 -2.25875e-21 0.00248314 114.736
0.0399832 -1.12938e-21 0.00248314 75.4369
-0.0399582 0 0.00322758 486.931
0.0399582 0 0.00322761 439.05
-0.0399279 -6.77626e-21 0.00368191 1101.24
0.0399279 -4.51751e-21 0.00368193 1076.26
-0.0399096 -1.35525e-20 0.00407855 1529.92
0.0399096 1.35525e-20 0.00407855 1528.66
0.0400594 1.35525e-20 0.00398559 1404.48
-0.0400595 1.35525e-20 0.00398556 1405.77
0.0403283 2.71051e-20 0.00130595 66.918
-0.0403283 0 0.00130595 110.565
-0.0403037 -5.42101e-20 0.00209219 78.2061
0.0403037 -2.71051e-20 0.0020922 42.4902
-0.0402835 -2.71051e-20 0.00284183 139.524
0.0402835 0 0.00284185 92.0766
-0.0403926 -3.01167e-21 0.000332751 799.473
0.0403926 2.25875e-21 0.00033272 796.694
-0.0402358 0 0.0035945 725.502
0.0402359 0 0.00359453 696.409
-0.0402062 1.10114e-20 0.0041549 1392.38
0.0402063 1.35525e-20 0.00415492 1390.95
-0.0402146 5.0822e-21 0.00414562 1383.69
0.0402147 -1.69407e-21 0.0041457 1382.31
0.0402234 -8.47033e-22 0.00415933 1379.15
-0.0402234 9.31736e-21 0.00415934 1380.5
-0.0403023 -5.42101e-21 0.00393721 1330.55
0.0403024 1.35525e-20 0.00393724 1329.24
0.0405606 0 2.46956e-14 928.332
-0.0405608 -1.35525e-20 2.42881e-14 930.308
0.0406279 5.64689e-22 0.0017081 54.4236
-0.0406279 -9.03502e-22 0.00170811 94.2221
-0.0406701 9.03502e-22 0.000834172 323.11
0.0406701 -9.03502e-22 0.000834157 304.929
-0.0406057 3.38813e-21 0.00247151 104.657
0.0406057 -2.25875e-21 0.00247151 62.7532
-0.0405666 -2.25875e-21 0.0032346 389.927
0.0405666 -2.25875e-21 0.00323462 350.452
0.0407119 1.35525e-20 1.9156e-14 955.573
-0.0407119 1.35525e-20 1.89963e-14 957.792
-0.0404943 -2.71051e-20 0.00422906 1345.8
0.0404943 1.35525e-20 0.00422907 1344.58
-0.0405856 -2.25875e-21 0.00374189 997.134
0.0405857 -4.06576e-21 0.00374191 977.245
-0.0406592 0 0.0042714 1140.97
0.0406593 6.77626e-21 0.00427142 1139.62
-0.0408969 -1.35525e-20 1.55407e-14 884.903
0.040897 0 1.56592e-14 882.802
0.0409487 -2.71051e-20 0.00130362 67.713
-0.0409487 -2.71051e-20 0.00130362 111.584
0.0409201 2.71051e-20 0.00208464 39.0426
-0.0409201 0 0.00208464 74.706
0.0410085 0 0.000322013 759.633
-0.0410086 9.03502e-22 0.000321989 761.824
-0.0409146 -2.71051e-20 0.00282743 122
0.0409146 -2.71051e-20 0.00282743 73.6455
-0.0408446 2.25875e-21 0.00406262 1175.5
0.0408446 4.51751e-21 0.00406268 1174.3
-0.040841 1.35525e-20 0.00431817 1149.48
0.040841 -6.77626e-21 0.00431818 1148.13
-0.0409362 -2.71051e-20 0.00347644 310.607
0.0409362 0 0.00347646 270.296
0.0411092 0 7.77333e-15 872.981
-0.0411094 1.35525e-20 7.71879e-15 875.082
-0.040987 1.35525e-20 0.00435565 1397.75
0.0409871 -2.71051e-20 0.00435568 1396.58
0.0412469 -5.64689e-23 0.00170084 51.7499
-0.0412469 5.0822e-22 0.00170084 91.6464
0.0413011 0 4.35779e-15 946.868
-0.0413012 2.71051e-20 4.34421e-15 949.26
0.0413201 -1.807e-21 0.000890333 292.501
-0.0413202 7.22801e-21 0.000890341 314.507
0.0412697 8.06698e-22 0.00242837 58.3872
-0.0412697 -5.64689e-22 0.00242836 97.6258
-0.0412342 -2.25875e-21 0.00316528 212.351
0.0412342 -2.25875e-21 0.00316529 156.414
-0.0411643 1.35525e-20 0.00440134 1548.5
0.0411643 0 0.00440136 1547.46
-0.041201 -2.71051e-20 0.00424417 1611.76
0.041201 0 0.00424421 1610.74
-0.0412616 3.76459e-22 0.00386067 1081.03
0.0412616 1.12938e-21 0.00386068 1051.28
0.0415153 0 3.78842e-15 823.188
-0.0415153 -6.77626e-21 3.77685e-15 825.606
-0.0416021 1.6134e-22 0.000359044 703.149
0.0416022 1.6134e-22 0.000359349 699.125
0.0413811 3.38813e-21 0.00445724 1954.95
-0.0413812 -3.38813e-21 0.00445724 1955.92
-0.0415425 -2.71051e-20 0.00282179 99.6138
0.0415425 0 0.0028218 61.4014
0.0416466 0 3.23184e-15 818.005
-0.0416468 -2.03288e-20 3.22113e-15 820.425
-0.0414291 3.38813e-21 0.00446959 1978.08
0.0414291 -3.38813e-21 0.00446961 1977.18
0.0416572 5.42101e-20 0.00147066 54.8136
-0.0416573 0 0.00147065 101.865
-0.0414584 3.38813e-21 0.00440893 1977.61
0.0414585 3.38813e-21 0.00440886 1976.72
-0.0415524 0 0.00348653 296.776
0.0415524 -2.71051e-20 0.00348655 199.324
0.0416533 0 0.00196575 41.16
-0.0416533 2.71051e-20 0.00196575 72.6137
-0.0416194 -2.25875e-21 0.00422692 1851.35
0.0416194 -4.51751e-21 0.00422695 1845.5
0.0418804 1.35525e-20 2.72775e-15 909.225
-0.0418805 0 2.71867e-15 911.743
0.0418772 2.82344e-22 0.000883258 301.576
-0.0418773 1.8823e-22 0.000883293 327.212
-0.0416429 -1.69407e-21 0.00452468 1965.57
0.0416433 1.69407e-21 0.00452479 1964.53
0.0418628 0 0.00171408 48.2303