# p  POINT_DATA 31572
# x  y  z  p
0.0292381 0 8.09214e-08 -0.000338715
-0.0292381 0 8.09214e-08 0.0219198
0.0292381 -3.38813e-21 0.000233596 -0.000338717
-0.0292381 3.38813e-21 0.000233441 0.0219198
0.029238 -3.38813e-21 0.000431066 -0.000338716
-0.0292381 0 0.000430751 0.0219202
0.029238 -1.35525e-20 0.000664138 -0.000338718
-0.029238 -6.77626e-21 0.000663676 0.0219201
0.029238 -3.38813e-21 0.000908366 -0.000338717
-0.029238 0 0.000907922 0.021922
-0.029238 -3.38813e-21 0.00111494 0.0219224
0.029238 3.38813e-21 0.00111544 -0.000338715
-0.029238 0 0.00135903 0.0219201
0.0292379 0 0.00135951 -0.000338716
-0.0292379 -3.38813e-21 0.00161391 0.0219212
0.0292379 0 0.00161421 -0.000338708
-0.0292379 3.38813e-21 0.00183185 0.0219211
0.0292379 3.38813e-21 0.00183203 -0.000338706
0.0292379 1.35525e-20 0.002087 -0.000338714
-0.0292379 -1.35525e-20 0.002087 0.021919
-0.0293159 -1.01644e-20 0.000332812 0.0219225
0.0293159 1.69407e-20 0.000333044 -0.000338695
-0.0293201 -3.38813e-21 0.00100457 0.0219252
0.0293201 1.35525e-20 0.00100504 -0.000338695
-0.0293199 0 0.0017002 0.0219235
0.0293199 3.38813e-21 0.00170046 -0.000338686
-0.0294721 0 0.000122211 0.0219279
0.0294722 1.35525e-20 0.000122307 -0.000338648
-0.0294728 0 7.47975e-08 0.0219281
0.0294728 0 7.47971e-08 -0.000338647
-0.0294797 1.35525e-20 0.000527785 0.0219274
0.0294797 -1.35525e-20 0.000528144 -0.000338653
-0.0294753 -1.35525e-20 0.000796291 0.0219282
0.0294753 1.35525e-20 0.000796753 -0.000338656
-0.0294755 2.03288e-20 0.00118666 0.021927
0.0294755 0 0.00118714 -0.000338659
-0.0294683 -1.35525e-20 0.00147414 0.0219261
0.0294683 -1.35525e-20 0.00147454 -0.000338657
-0.0294625 -6.77626e-21 0.00186309 0.0219243
0.0294626 -6.77626e-21 0.00186328 -0.000338663
-0.029578 1.35525e-20 6.64178e-08 0.021932
0.029578 0 6.64171e-08 -0.000338613
-0.0295009 -1.35525e-20 0.00213468 0.0219194
0.0295009 6.77626e-21 0.00213468 -0.000338679
-0.029587 1.35525e-20 0.000650836 0.0219314
0.0295871 -2.71051e-20 0.00065131 -0.000338619
-0.0295378 1.35525e-20 0.00203786 0.021922
0.0295378 1.35525e-20 0.00203793 -0.000338662
-0.029584 -2.71051e-20 0.00130565 0.0219292
0.0295841 0 0.00130618 -0.00033862
-0.0295849 -1.35525e-20 0.00192058 0.0219258
0.0295849 6.77626e-21 0.00192076 -0.00033863
0.029649 0 0.00216152 -0.000338619
-0.029649 0 0.00216152 0.0219291
-0.0297926 4.51751e-22 0.000963661 0.0219349
0.0297927 1.807e-21 0.000964146 -0.00033857
-0.0298093 -1.35525e-20 7.62609e-08 0.0219395
0.0298093 -2.71051e-20 7.62598e-08 -0.000338548
-0.0298204 9.03502e-22 0.000317447 0.0219403
0.0298205 1.12938e-21 0.000317662 -0.000338544
-0.0297852 -4.51751e-22 0.00156826 0.0219313
0.0297852 1.807e-21 0.00156862 -0.000338575
-0.0297946 5.0822e-21 0.00197115 0.0219349
0.0297946 3.38813e-21 0.0019713 -0.000338575
-0.029885 -3.38813e-21 8.57338e-08 0.0219424
0.0298851 -3.38813e-21 8.5738e-08 -0.000338527
0.0298185 -6.77626e-21 0.00219226 -0.000338573
-0.0298186 -2.71051e-20 0.00219226 0.0219361
-0.0299229 0 0.00221118 0.0219409
0.0299229 -1.35525e-20 0.00221118 -0.00033854
-0.0300582 0 1.01023e-07 0.0219493
0.0300583 0 1.01025e-07 -0.000338477
-0.030042 0 0.00125419 0.0219485
0.0300421 -9.03502e-21 0.00125463 -0.000338472
-0.030023 7.7443e-21 0.00171052 0.0219466
0.0300231 -4.84019e-21 0.0017108 -0.000338483
-0.0300766 0 0.00065666 0.0219524
0.0300767 4.51751e-21 0.000657051 -0.000338461
-0.0301411 -6.77626e-21 0.000117994 0.0219531
0.0301411 6.77626e-21 0.000117999 -0.000338447
-0.030143 0 9.36904e-08 0.0219531
0.0301431 0 9.3697e-08 -0.000338448
-0.0300722 1.35525e-20 0.00223823 0.0219525
0.0300722 -1.35525e-20 0.00223824 -0.000338474
-0.0302709 -1.35525e-20 0.000327812 0.0219593
0.0302709 0 0.000327976 -0.000338397
-0.0302588 0 0.000959195 0.021959
0.0302588 0 0.000959517 -0.000338409
-0.0302233 -2.25875e-21 0.00199374 0.0219622
0.0302233 -1.12938e-21 0.00199386 -0.000338409
-0.0302513 0 0.00155258 0.021956
0.0302514 0 0.00155284 -0.000338402
0.0303944 -1.01644e-20 0.00229663 -0.000338389
-0.0303944 0 0.00229664 0.0219636
-0.0305071 -3.38813e-21 4.03686e-05 0.0219664
0.0305071 3.38813e-21 4.03653e-05 -0.000338345
-0.0305084 0 2.78813e-08 0.0219664
0.0305085 0 2.78788e-08 -0.000338345
-0.0305355 0 2.44807e-08 0.0219673
0.0305355 -3.38813e-21 2.44807e-08 -0.000338339
0.030464 0 0.00230926 -0.000338378
-0.030464 3.38813e-20 0.00230926 0.0219648
0.0305559 -3.38813e-21 2.5605e-08 -0.000338335
-0.0305559 0 2.56056e-08 0.0219679
0.0305566 0 2.16951e-05 -0.000338335
-0.0305566 0 2.17024e-05 0.0219679
-0.0305496 7.05861e-23 0.00065626 0.0219681
0.0305496 -1.41172e-22 0.000656486 -0.000338345
-0.0305132 0 0.00170668 0.021969
0.0305132 3.76459e-22 0.00170684 -0.000338352
-0.0305476 -1.12938e-22 0.00124506 0.0219681
0.0305476 -2.25875e-22 0.00124529 -0.000338352
-0.030501 -6.77626e-21 0.00231596 0.0219668
0.030501 0 0.00231596 -0.000338369
0.0306237 0 3.57389e-08 -0.000338319
-0.0306238 0 3.5746e-08 0.0219703
-0.0306099 0 0.0021928 0.0219728
0.03061 0 0.00219279 -0.000338341
-0.0307225 -3.38813e-21 0.00235612 0.0219723
0.0307226 0 0.00235614 -0.000338322
-0.0308383 2.71051e-20 0.000320901 0.0219766
0.0308383 5.42101e-20 0.000320968 -0.000338272
-0.0308116 -2.25875e-21 0.00198356 0.0219816
0.0308116 1.12938e-21 0.00198362 -0.000338302
-0.0309907 0 0.0010195 0.0219845
0.0309907 -2.71051e-21 0.00101961 -0.000338262
-0.0309922 0 0.00150595 0.0219868
0.0309922 4.51751e-21 0.00150605 -0.00033825
-0.0310394 0 9.17162e-08 0.0219846
0.0310395 0 9.17132e-08 -0.000338223
-0.0310415 0 0.000119361 0.0219844
0.0310416 0 0.000119404 -0.000338224
-0.030965 0 0.00240008 0.0219799
0.030965 0 0.00240009 -0.000338269
-0.030982 0 0.00237269 0.0219804
0.030982 0 0.00237271 -0.000338265
0.0310104 6.77626e-21 0.00240832 -0.000338259
-0.0310104 -6.77626e-21 0.00240832 0.0219812
0.0310179 6.77626e-21 0.00233587 -0.000338258
-0.0310179 6.77626e-21 0.00233584 0.0219817
-0.0311223 9.03502e-21 0.000639224 0.0219865
0.0311223 -9.03502e-21 0.000639291 -0.000338225
0.0310526 6.77626e-21 0.00237692 -0.000338251
-0.0310526 6.77626e-21 0.00237691 0.0219816
-0.0311458 1.35525e-20 9.71539e-08 0.0219876
0.0311459 0 9.71521e-08 -0.000338202
0.031071 0 0.00241931 -0.000338246
-0.0310711 6.77626e-21 0.00241931 0.0219817
-0.0312091 -2.71051e-20 0.00177609 0.0219878
0.0312091 -2.71051e-20 0.00177613 -0.000338215
-0.0312491 0 0.00122869 0.0219919
0.0312491 0 0.00122876 -0.000338204
-0.0312857 0 8.40765e-08 0.0219916
0.0312858 -1.35525e-20 8.4069e-08 -0.000338175
-0.0312916 0 0.000133791 0.0219917
0.0312917 1.35525e-20 0.000133817 -0.000338174
-0.0313889 9.03502e-21 0.00201496 0.021989
0.0313889 2.25875e-21 0.00201499 -0.0003382
-0.0313958 6.77626e-21 0.00247818 0.0219914
0.0313958 0 0.00247818 -0.000338191
-0.0314932 0 0.00040878 0.0219975
0.0314932 0 0.000408784 -0.000338143
-0.0315059 0 0.000915866 0.0219973
0.0315059 -6.77626e-21 0.000915906 -0.000338168
-0.0314281 0 0.00241762 0.0219932
0.0314281 0 0.00241764 -0.000338187
-0.0315016 0 0.00151814 0.0219964
0.0315016 1.12938e-20 0.00151817 -0.00033817
0.0314986 -1.35525e-20 0.00234883 -0.000338176
-0.0314986 -1.35525e-20 0.00234879 0.021997
0.0315086 0 0.00249863 -0.000338173
-0.0315086 2.71051e-20 0.00249863 0.0219978
0.0316957 1.35525e-20 0.0001271 -0.000338105
-0.0316957 0 0.000127012 0.0220045
0.0316993 0 1.28441e-08 -0.000338104
-0.0316993 0 1.28327e-08 0.0220047
-0.0317724 0 0.000610883 0.0220073
0.0317724 2.71051e-20 0.000610893 -0.000338103
-0.0317679 0 0.00121729 0.0220049
0.0317679 0 0.0012173 -0.000338111
-0.0317537 0 0.00187022 0.0220035
0.0317537 2.71051e-20 0.00187023 -0.000338122
0.0317093 2.71051e-20 0.00253502 -0.000338143
-0.0317093 -2.71051e-20 0.00253502 0.022012
-0.0318341 -1.35525e-20 3.55262e-10 0.0220094
0.0318342 1.35525e-20 3.5768e-10 -0.00033808
0.0317532 -1.8823e-22 0.00228382 -0.000338141
-0.0317532 -3.76459e-22 0.00228381 0.0220143
-0.0319513 -1.35525e-20 4.55429e-10 0.0220134
0.0319515 1.35525e-20 4.57735e-10 -0.00033806
-0.0319524 1.35525e-20 0.000127633 0.0220135
0.0319526 0 0.000127717 -0.00033806
-0.0318828 0 0.00256647 0.0220108
0.0318828 0 0.00256647 -0.000338104
-0.0319995 4.51751e-21 0.0009146 0.022012
0.0319996 4.51751e-21 0.000914606 -0.000338077
-0.0320112 0 0.000400505 0.0220158
0.0320112 0 0.0004005 -0.000338052
0.0320267 -2.25875e-21 0.00227705 -0.000338076
-0.0320267 -1.12938e-21 0.00227704 0.0220161
0.0320296 0 0.00251382 -0.000338078
-0.0320296 -2.71051e-20 0.00251381 0.0220146
-0.0320975 2.25875e-21 0.00153739 0.0220124
0.0320975 -2.25875e-21 0.0015374 -0.000338062
-0.0320427 1.35525e-20 0.00259543 0.0220146
0.0320427 -6.77626e-21 0.00259544 -0.000338075
-0.0321203 -4.51751e-21 0.00203437 0.0220213
0.0321203 0 0.00203437 -0.00033805
-0.032135 0 0.00238954 0.022014
0.032135 0 0.00238955 -0.000338055
0.0322923 1.35525e-20 0.000126387 -0.000338002
-0.0322923 1.35525e-20 0.000126365 0.0220266
0.0323016 1.35525e-20 2.23457e-09 -0.000338001
-0.0323016 -1.35525e-20 2.23356e-09 0.0220268
-0.0322103 -6.77626e-21 0.00262582 0.0220201
0.0322103 1.35525e-20 0.00262583 -0.000338045
-0.0322717 0 0.00254335 0.0220225
0.0322718 -1.35525e-20 0.00254336 -0.000338035
-0.032418 0 2.33101e-09 0.0220314
0.032418 -1.35525e-20 2.33195e-09 -0.000337982
-0.0324263 2.25875e-21 0.000612604 0.0220311
0.0324263 -4.51751e-21 0.000612601 -0.000337998
-0.0324222 -1.807e-20 0.00112452 0.0220305
0.0324222 -4.51751e-21 0.00112451 -0.000338013
-0.032412 0 0.00187553 0.0220309
0.0324121 5.42101e-20 0.00187553 -0.000338009
-0.0323801 0 0.0026566 0.0220292
0.0323802 -1.35525e-20 0.00265661 -0.000338017
-0.0324113 1.69407e-21 0.00229689 0.0220303
0.0324113 1.12938e-21 0.0022969 -0.00033801
-0.032547 1.35525e-20 2.20754e-09 0.022036
0.032547 -1.35525e-20 2.20837e-09 -0.000337963
-0.0325489 0 0.000125731 0.022036
0.0325489 0 0.00012575 -0.000337963
-0.0326035 -6.77626e-21 0.00269705 0.0220419
0.0326035 -6.77626e-21 0.00269706 -0.000337983
-0.032737 2.71051e-20 0.00030837 0.0220423
0.032737 0 0.000308358 -0.000337937
-0.0327282 -2.25875e-21 0.00154832 0.0220471
0.0327282 6.77626e-21 0.00154831 -0.000337972
-0.0326737 -9.03502e-21 0.00254228 0.0220435
0.0326738 -9.03502e-21 0.00254228 -0.000337971
-0.0327075 -1.35525e-20 0.00206775 0.0220438
0.0327075 -4.51751e-21 0.00206775 -0.000337966
-0.032708 -2.71051e-20 0.002716 0.0220464
0.0327081 0 0.00271601 -0.000337967
-0.0328421 -9.03502e-21 0.000917741 0.0220489
0.0328421 0 0.000917735 -0.000337954
-0.0328866 0 1.93643e-09 0.0220472
0.0328867 0 1.93682e-09 -0.000337922
-0.032889 0 0.000149427 0.0220472
0.032889 1.35525e-20 0.000149442 -0.000337922
-0.0329824 -7.7443e-21 0.000542132 0.0220498
0.0329824 5.80823e-21 0.00054211 -0.000337926
-0.0330371 -2.71051e-20 1.79015e-09 0.0220521
0.0330372 -1.35525e-20 1.79044e-09 -0.000337904
-0.0329464 0 0.00275916 0.0220503
0.0329464 0 0.00275917 -0.000337935
-0.0329864 3.38813e-22 0.00235373 0.022051
0.0329864 -1.12938e-22 0.00235373 -0.000337931
-0.0330505 -2.71051e-20 0.00123121 0.0220558
0.0330505 0 0.00123119 -0.000337934
-0.03302 -2.71051e-20 0.00190069 0.0220537
0.03302 2.71051e-20 0.00190069 -0.000337931
-0.0332006 -1.35525e-20 2.0216e-09 0.0220577
0.0332007 -2.71051e-20 2.02177e-09 -0.000337887
-0.0333521 2.25875e-21 0.000302612 0.0220627
0.0333521 -9.03502e-21 0.000302604 -0.000337876
-0.0333579 9.03502e-21 0.000916469 0.0220643
0.0333579 2.25875e-21 0.000916441 -0.000337899
0.0332522 6.77626e-21 0.00281453 -0.000337899
-0.0332522 2.37169e-20 0.00281452 0.0220607
-0.0333432 4.51751e-21 0.00156281 0.0220665
0.0333432 9.03502e-21 0.0015628 -0.000337901
-0.0332953 0 0.00276394 0.022062
0.0332953 0 0.00276393 -0.000337893
-0.0333121 1.35525e-20 0.00282536 0.0220623
0.0333121 0 0.00282536 -0.000337892
-0.03334 -1.01644e-20 0.00259806 0.022063
0.03334 -1.12938e-21 0.00259806 -0.000337889
-0.0333776 -1.12938e-20 0.00214892 0.0220642
0.0333777 2.25875e-21 0.00214893 -0.000337887
-0.0334909 0 2.97205e-09 0.0220673
0.0334909 -2.71051e-20 2.97158e-09 -0.000337861
-0.0336619 -2.71051e-20 3.2006e-09 0.0220731
0.0336619 0 3.20002e-09 -0.000337845
0.0336674 -2.71051e-20 0.000602311 -0.000337859
-0.0336674 0 0.000602349 0.0220731
0.0336288 -2.71051e-20 0.00191753 -0.000337868
-0.0336288 0 0.00191754 0.0220707
0.0336642 0 0.00123321 -0.000337871
-0.0336642 -2.71051e-20 0.00123324 0.022072
-0.0335885 -2.71051e-20 0.00287539 0.0220694
0.0335885 0 0.00287539 -0.000337871
-0.0336882 0 0.0024221 0.0220734
0.0336883 0 0.00242211 -0.00033786
-0.0338384 -1.35525e-20 2.82155e-09 0.0220793
0.0338384 1.35525e-20 2.82101e-09 -0.00033783
0.0338129 -2.71051e-20 0.00291608 -0.00033785
-0.033813 -1.35525e-20 0.00291609 0.0220776
-0.0339781 9.03502e-21 0.000302701 0.022084
0.0339781 9.03502e-21 0.000302675 -0.000337823
-0.0339808 -4.51751e-21 0.000914761 0.0220831
0.0339808 -4.51751e-21 0.000914701 -0.000337843
0.0339745 -9.03502e-21 0.00155861 -0.000337839
-0.0339745 -4.51751e-21 0.00155866 0.0220792
-0.0339481 -4.51751e-22 0.00267579 0.0220821
0.0339481 4.51751e-22 0.00267579 -0.00033784
-0.0339879 -4.51751e-21 0.00215835 0.0220794
0.0339879 9.03502e-21 0.00215833 -0.000337832
-0.0341105 -1.35525e-20 1.81923e-09 0.0220887
0.0341105 -1.35525e-20 1.81899e-09 -0.000337811
0.0340317 0 0.00295577 -0.000337817
-0.0340318 0 0.00295579 0.0220821
-0.0342884 -2.71051e-20 1.43984e-09 0.0220945
0.0342884 -2.71051e-20 1.43965e-09 -0.000337797
-0.0342943 -2.71051e-20 0.000598991 0.0220944
0.0342943 2.71051e-20 0.000598921 -0.000337811
0.0342171 -1.35525e-20 0.00298939 -0.000337793
-0.0342172 2.71051e-20 0.0029894 0.0220853
0.0342949 0 0.00244804 -0.000337807
-0.0342949 -2.71051e-20 0.00244805 0.0220926
-0.034362 2.12968e-20 0.00129504 0.0220979
0.034362 -3.87215e-21 0.00129496 -0.000337815
-0.0343655 9.68038e-21 0.00179159 0.0220982
0.0343655 1.54886e-20 0.00179153 -0.00033781
0.0343352 1.35525e-20 0.00301088 -0.00033779
-0.0343353 1.35525e-20 0.00301088 0.0220892
-0.0344682 1.35525e-20 1.2842e-09 0.0221005
0.0344682 2.71051e-20 1.284e-09 -0.000337785
-0.0345084 -4.51751e-21 0.000909454 0.0221005
0.0345084 -4.51751e-21 0.000909369 -0.00033781
-0.034518 -1.807e-20 0.00215838 0.0221019
0.034518 -1.35525e-20 0.00215835 -0.0003378
-0.0346072 -6.77626e-21 0.000300821 0.0221052
0.0346072 9.03502e-21 0.000300778 -0.00033778
0.0346152 0 0.00154283 -0.000337802
-0.0346152 0 0.00154291 0.0221087
0.034558 -4.51751e-22 0.00272776 -0.000337793
-0.034558 -2.25875e-22 0.00272775 0.0220982
0.0345977 1.35525e-20 0.00305919 -0.000337789
-0.0345978 0 0.0030592 0.0221027
-0.0347356 0 9.21309e-10 0.0221095
0.0347357 1.35525e-20 9.21242e-10 -0.000337769
-0.0346831 1.35525e-20 0.00307472 0.0221069
0.0346831 6.77626e-21 0.00307474 -0.000337785
-0.0349165 2.71051e-20 7.6471e-10 0.0221154
0.0349166 0 7.64643e-10 -0.000337757
-0.0349264 4.51751e-21 0.000691164 0.022115
0.0349264 -9.03502e-21 0.000691082 -0.000337782
0.0349292 -2.25875e-21 0.00121438 -0.00033779
-0.0349292 2.03288e-20 0.00121448 0.0221154
0.0349324 1.12938e-20 0.00185859 -0.000337782
-0.0349324 -4.51751e-21 0.00185866 0.0221146
0.0348922 1.35525e-20 0.00311391 -0.000337826
-0.0348922 -3.38813e-21 0.00311391 0.0221247
0.0349975 6.77626e-21 0.00246507 -0.000337774
-0.0349975 -9.03502e-21 0.00246508 0.0221175
-0.0350985 0 7.01007e-10 0.0221216
0.0350985 1.35525e-20 7.00941e-10 -0.000337748
-0.035002 0 0.00285808 0.0221222
0.035002 0 0.00285808 -0.000337796
-0.0352406 -1.12938e-20 0.000295905 0.0221266
0.0352407 6.77626e-21 0.000295859 -0.000337746
-0.0352487 0 0.00089372 0.0221246
0.0352487 -2.71051e-20 0.000893614 -0.000337779
0.0351342 1.69407e-21 0.00315794 -0.000337764
-0.0351343 0 0.00315795 0.0221217
0.0352503 0 0.00152768 -0.000337772
-0.0352503 0 0.00152777 0.0221236
-0.0351477 1.69407e-21 0.00316042 0.0221216
0.0351478 -1.69407e-21 0.00316043 -0.000337761
0.0351794 0 0.00281731 -0.000337749
-0.0351794 0 0.00281732 0.0221217
-0.035153 0 0.00314568 0.0221215
0.035153 -1.69407e-21 0.00314559 -0.00033776
0.0352564 0 0.00217228 -0.000337759
-0.0352564 -2.71051e-20 0.00217232 0.0221196
-0.0353734 -1.35525e-20 5.21809e-10 0.0221313
0.0353735 0 5.21779e-10 -0.000337736
-0.0352366 -1.69407e-21 0.0031769 0.0221254
0.0352373 -3.38813e-21 0.00317703 -0.000337757
-0.0353097 0 0.00290011 0.0221213
0.0353097 1.35525e-20 0.00290013 -0.000337721
-0.0355532 0 4.57365e-10 0.022138
0.0355533 0 4.57336e-10 -0.00033773
0.0355671 -9.03502e-21 0.00119581 -0.000337776
-0.0355671 -2.25875e-21 0.00119592 0.0221383
0.0355696 9.03502e-21 0.00184838 -0.000337769
-0.0355696 0 0.00184845 0.0221396
-0.0356124 2.25875e-21 0.000622322 0.0221398
0.0356125 2.25875e-21 0.000622242 -0.000337757
0.0355744 -4.51751e-21 0.00250427 -0.000337754
-0.0355744 9.03502e-21 0.00250428 0.0221417
-0.035529 3.38813e-21 0.0032312 0.0221359
0.0355292 -3.38813e-21 0.00323122 -0.000337733
-0.0355423 0 0.00321267 0.0221365
0.0355424 0 0.00321273 -0.000337733
0.0355811 -9.03502e-21 0.00287218 -0.000337731
-0.0355811 -9.03502e-21 0.00287218 0.0221387
-0.035574 3.38813e-21 0.00316175 0.0221386
-0.0355672 0 0.0032382 0.0221383
0.0355741 0 0.0031619 -0.000337732
0.0355673 0 0.00323821 -0.000337733
-0.0357312 -1.35525e-20 4.06834e-10 0.0221454
0.0357313 -1.35525e-20 4.06801e-10 -0.000337723
-0.0356064 0 0.00321772 0.0221407
0.0356064 0 0.00321777 -0.000337735
0.0356195 3.38813e-21 0.00324783 -0.000337736
-0.0356195 3.38813e-21 0.00324784 0.022142
-0.0358766 0 0.000193571 0.0221508
0.0358767 0 0.000193555 -0.00033772
-0.035885 0 0.000875629 0.0221509
0.035885 -2.71051e-20 0.000875535 -0.000337782
-0.0358906 2.71051e-20 0.00150725 0.0221546
0.0358906 -2.71051e-20 0.00150716 -0.000337773
0.0358881 -2.71051e-20 0.00216694 -0.000337773
-0.0358881 -2.71051e-20 0.00216698 0.0221616
-0.0358664 0 0.00295102 0.0221546
0.0358665 1.35525e-20 0.00295103 -0.000337728
-0.0360201 -1.35525e-20 2.47881e-10 0.022156
0.0360202 2.71051e-20 2.47868e-10 -0.000337717
-0.036024 6.77626e-21 0.00332287 0.0221602
0.0360241 0 0.00332289 -0.00033774
-0.0361957 0 1.96858e-10 0.0221619
0.0361958 0 1.96841e-10 -0.000337712
-0.0362011 -6.77626e-21 0.000563546 0.022163
0.0362011 4.51751e-21 0.000563484 -0.000337755
-0.03606 0 0.0032685 0.0221605
0.0360601 -1.35525e-20 0.00326857 -0.000337737
-0.036206 0 0.00117895 0.0221644
0.0362061 0 0.00117887 -0.000337794
0.0362045 2.25875e-21 0.00184383 -0.000337784
-0.0362045 6.77626e-21 0.00184388 0.0221678
0.0361888 -2.25875e-21 0.00253169 -0.000337758
-0.0361888 -2.25875e-21 0.0025317 0.0221653
-0.0361316 0 0.00334265 0.0221609
0.0361316 -1.35525e-20 0.00334265 -0.000337733
0.0361687 -6.77626e-21 0.00293434 -0.000337729
-0.0361687 9.03502e-21 0.00293434 0.0221607
0.0361567 6.77626e-21 0.00314741 -0.000337731
-0.0361567 0 0.00314727 0.0221611
-0.0363723 0 1.67562e-10 0.0221688
0.0363723 1.35525e-20 1.67547e-10 -0.000337702
0.0362562 0 0.00328574 -0.000337739
-0.0362563 2.71051e-20 0.00328569 0.0221644
0.0363065 6.77626e-21 0.00337454 -0.000337744
-0.0363067 1.35525e-20 0.00337456 0.0221663
-0.0365138 0 0.000190564 0.0221738
0.0365138 0 0.000190552 -0.0003377
-0.0365218 2.71051e-20 0.000861999 0.0221761
0.0365219 2.71051e-20 0.000861929 -0.000337822
-0.0365244 0 0.00149847 0.0221762
0.0365244 0 0.00149841 -0.000337799
0.0365145 0 0.00218148 -0.000337795
-0.0365145 0 0.00218151 0.0221795
-0.0364788 0 0.00289752 0.0221648
0.0364788 1.35525e-20 0.00289755 -0.000337714
-0.0366526 0 8.42588e-11 0.0221786
0.0366527 0 8.42553e-11 -0.000337697
-0.036569 -5.42101e-21 0.00323416 0.0221721
0.036569 1.35525e-20 0.00323419 -0.000337751
-0.0365532 0 0.00341957 0.0221745
0.0365533 -1.35525e-20 0.00341959 -0.000337767
-0.0367898 1.35525e-20 0.000598955 0.0221846
0.0367898 0 0.000598917 -0.000337775
-0.036834 0 5.5588e-11 0.0221832
0.0368341 0 5.55862e-11 -0.000337683
-0.0368407 -4.51751e-21 0.00116968 0.0221864
0.0368407 4.51751e-21 0.00116963 -0.000337826
0.0368348 -4.51751e-21 0.00184465 -0.000337807
-0.0368348 6.77626e-21 0.00184468 0.0221833
0.0368045 1.35525e-20 0.00255346 -0.000337786
-0.0368045 -1.35525e-20 0.00255346 0.02218
0.0367777 -2.71051e-20 0.00346047 -0.000337775
-0.0367777 2.71051e-20 0.00346047 0.0221807
-0.0368393 4.51751e-22 0.00303407 0.0221822
0.0368393 1.35525e-21 0.00303408 -0.00033778
-0.0370199 1.35525e-20 4.78303e-11 0.0221906
0.0370199 -1.35525e-20 4.78279e-11 -0.000337675
-0.0371489 -2.25875e-21 0.000281507 0.0221953
0.0371489 -9.03502e-21 0.000281494 -0.000337695
0.0371548 0 0.000855626 -0.000337854
-0.0371548 -2.71051e-20 0.000855666 0.0221983
0.0371549 2.71051e-20 0.00149516 -0.000337829
-0.0371549 0 0.00149519 0.0221952
0.0371441 0 0.00218077 -0.000337808
-0.0371441 0 0.00218078 0.0221827
0.0370564 6.77626e-21 0.00351129 -0.000337797
-0.0370564 -2.03288e-20 0.0035113 0.0221924
0.03727 0 2.98638e-11 -0.000337678
-0.03727 0 2.9863e-11 0.022199
-0.0371712 2.71051e-20 0.00278261 0.0221912
0.0371713 0 0.00278261 -0.000337795
-0.0371159 -1.35525e-20 0.00352215 0.022195
0.037116 -1.69407e-20 0.00352218 -0.000337802
-0.0371348 4.51751e-21 0.00333173 0.0221948
0.0371348 0 0.00333177 -0.000337804
-0.0374605 0 2.22234e-11 0.0222031
0.0374605 0 2.22235e-11 -0.000337666
-0.0374674 0 0.000637841 0.0222085
0.0374674 1.35525e-20 0.000637823 -0.000337815
0.0374702 -6.77626e-21 0.00116461 -0.000337865
-0.0374702 4.51751e-21 0.00116464 0.0222085
0.0374665 -1.12938e-21 0.00183966 -0.000337849
-0.0374665 0 0.00183967 0.0222047
-0.0374682 -3.38813e-21 0.00249666 0.0222046
0.0374682 1.12938e-21 0.00249666 -0.000337827
-0.0374675 4.51751e-21 0.00307365 0.0222089
0.0374675 1.88079e-37 0.00307365 -0.000337826
-0.0374246 2.71051e-20 0.00357844 0.022206
0.0374247 1.35525e-20 0.00357845 -0.000337801
-0.0376529 -2.71051e-20 1.86806e-11 0.0222117
0.0376529 -1.35525e-20 1.86807e-11 -0.000337683
-0.0377742 1.12938e-20 0.000280154 0.0222159
0.0377742 6.77626e-21 0.000280151 -0.000337713
-0.0377819 0 0.000851859 0.0222215
0.0377819 2.71051e-20 0.00085184 -0.000337895
0.0377838 0 0.00149135 -0.000337881
-0.0377838 5.42101e-20 0.00149136 0.0222191
-0.0376598 6.77626e-21 0.00362112 0.0222239
0.0376599 1.35525e-20 0.00362114 -0.000337855
0.0377819 -2.71051e-20 0.00216934 -0.000337878
-0.0377819 0 0.00216935 0.0222224
0.0377773 -5.42101e-20 0.00279682 -0.000337828
-0.0377773 -2.71051e-20 0.00279681 0.0222214
0.0378849 0 1.07538e-11 -0.0003377
-0.0378849 0 1.07533e-11 0.0222189
-0.0377229 -1.35525e-20 0.00353461 0.0222291
0.037723 -6.77626e-21 0.00353476 -0.000337875
-0.0377797 -1.12938e-21 0.00335602 0.0222281
0.0377798 0 0.00335605 -0.000337875
0.0377789 0 0.00364262 -0.000337854
-0.037779 -6.77626e-21 0.00364263 0.0222273
-0.0380777 2.71051e-20 7.23455e-12 0.0222215
0.0380777 0 7.23493e-12 -0.000337698
-0.0380891 9.03502e-21 0.000630694 0.0222279
0.0380891 0 0.00063069 -0.000337853
-0.0380959 -2.25875e-21 0.00115829 0.0222277
0.0380959 4.51751e-21 0.00115829 -0.000337913
0.0380968 3.38813e-21 0.0018338 -0.000337911
-0.0380968 -2.25875e-21 0.0018338 0.0222275
-0.0379952 -1.35525e-20 0.00368181 0.0222247
0.0379952 1.35525e-20 0.00368182 -0.000337822
-0.0380943 1.12938e-21 0.00250862 0.022229
0.0380943 -2.25875e-21 0.00250862 -0.000337887
-0.0380787 4.51751e-21 0.0030417 0.0222291
0.0380786 -4.51751e-21 0.00304173 -0.000337868
-0.0382652 -1.35525e-20 6.08684e-12 0.0222286
0.0382652 -1.35525e-20 6.08729e-12 -0.000337729
-0.0381485 0 0.00370958 0.0222239
0.0381486 6.77626e-21 0.0037096 -0.000337834
-0.0383423 0 0.000233962 0.0222314
0.0383424 -4.51751e-21 0.000233961 -0.000337757
-0.0384028 0 0.000843267 0.0222378
0.0384028 -2.71051e-20 0.000843267 -0.000337935
0.03841 -2.71051e-20 0.00148247 -0.00033794
-0.03841 -2.71051e-20 0.00148247 0.0222331
0.0384072 0 0.00217116 -0.000337944
-0.0384072 -5.42101e-20 0.00217116 0.0222363
-0.0383453 4.51751e-22 0.00341218 0.0222287
0.0383454 3.16226e-21 0.0034122 -0.00033788
0.0385067 -1.35525e-20 3.26257e-12 -0.000337768
-0.0385067 1.35525e-20 3.26167e-12 0.0222357
-0.0384087 2.71051e-20 0.00283718 0.0222356
0.0384087 0 0.0028372 -0.000337898
0.0383428 6.77626e-21 0.0037445 -0.000337868
-0.0383428 6.77626e-21 0.0037445 0.0222303
-0.0384723 -1.35525e-20 0.00376794 0.0222371
0.0384723 1.35525e-20 0.00376795 -0.000337891
0.038689 0 2.10859e-12 -0.000337797
-0.038689 2.71051e-20 2.10763e-12 0.0222389
-0.0387011 2.25875e-21 0.000532365 0.02224
0.0387011 2.25875e-21 0.000532366 -0.000337884
-0.0387193 1.12938e-21 0.00114082 0.0222403
0.0387193 -2.25875e-21 0.00114082 -0.000337966
-0.0387249 0 0.00181992 0.022242
0.0387249 0 0.00181992 -0.000337978
-0.0387232 2.25875e-21 0.00251541 0.0222401
0.0387232 -3.38813e-21 0.00251542 -0.000337954
-0.0386563 1.35525e-20 0.00380866 0.0222551
0.0386563 6.77626e-21 0.00380867 -0.000338022
0.0388555 1.35525e-20 1.85497e-12 -0.000337855
-0.0388555 2.71051e-20 1.85378e-12 0.0222457
-0.0386905 0 0.00364409 0.0222524
0.0386905 1.35525e-20 0.00364412 -0.000338004
0.0387735 -2.25875e-21 0.00324313 -0.000337949
-0.0387735 -4.51751e-21 0.00324312 0.022245
0.0389089 -2.71051e-21 0.000183068 -0.000337868
-0.038909 1.35525e-20 0.000183055 0.0222473
0.0390203 2.71051e-20 0.000818063 -0.000337977
-0.0390203 0 0.000818062 0.0222402
0.038876 0 0.00384256 -0.000337931
-0.038876 0 0.00384255 0.0222451
-0.0390393 -2.71051e-20 0.00145448 0.02225
0.0390393 2.71051e-20 0.00145449 -0.000338009
0.0390375 0 0.00215195 -0.000338017
-0.0390375 0 0.00215195 0.0222488
-0.038928 0 0.00385208 0.0222436
0.038928 -6.77626e-21 0.0038521 -0.000337921
-0.0389527 3.38813e-21 0.00379162 0.0222426
0.0389528 0 0.00379157 -0.000337915
-0.0390404 -2.71051e-20 0.00284503 0.02224
0.0390404 0 0.00284504 -0.000337959
0.0391596 -1.35525e-20 9.066e-13 -0.000337914
-0.0391598 1.35525e-20 9.04288e-13 0.0222587
0.0391706 0 0.000114816 -0.000337917
-0.0391707 -1.35525e-20 0.000114772 0.0222593
-0.0391098 1.12938e-20 0.00361355 0.0222422
0.0391098 9.03502e-21 0.00361357 -0.000337906
0.0393055 1.35525e-20 6.52206e-13 -0.000337928
-0.0393056 -1.35525e-20 6.49692e-13 0.0222661
0.0393117 -4.51751e-21 0.000500429 -0.000337953
-0.0393117 0 0.000500434 0.022255
0.0393492 1.12938e-21 0.00108804 -0.000338045
-0.0393492 2.25875e-21 0.00108803 0.0222603
-0.0393637 1.12938e-21 0.00177645 0.0222766
0.0393637 -3.38813e-21 0.00177646 -0.00033809
0.0394217 1.35525e-20 8.7629e-05 -0.000337934
-0.0394218 0 8.75788e-05 0.0222756
0.0394266 0 6.05533e-13 -0.000337935
-0.0394266 0 6.03128e-13 0.0222754
-0.0393554 -1.12938e-21 0.00249989 0.0222734
0.0393554 0 0.00249989 -0.000338055
-0.0392461 0 0.0039114 0.0222604
0.0392465 1.69407e-21 0.00391149 -0.000337959
-0.0393554 2.71051e-21 0.00323461 0.02227
0.0393554 2.25875e-21 0.00323463 -0.000338014
-0.0393295 0 0.00392838 0.0222636
0.0393297 0 0.0039284 -0.000337963
-0.0393343 0 0.00392289 0.0222639
0.0393344 -1.69407e-21 0.00392294 -0.000337964
-0.039341 0 0.00393113 0.0222645
0.0393412 0 0.00393114 -0.000337966
-0.0393435 8.47033e-21 0.00390909 0.0222647
0.0393436 -1.69407e-21 0.00390918 -0.000337967
-0.0393533 0 0.00392488 0.0222657
0.0393533 0 0.00392492 -0.000337972
-0.0393598 0 0.003936 0.0222665
0.0393599 0 0.00393599 -0.000337976
0.0396051 -2.71051e-20 0.000230835 -0.00033797
-0.0396052 0 0.000230845 0.0222857
0.0396385 -2.71051e-20 0.000745352 -0.000337989
-0.0396385 0 0.000745355 0.0222455
0.0396943 -2.71051e-20 0.00136783 -0.000338192
-0.0396943 0 0.00136783 0.0223028
-0.0396774 -2.71051e-20 0.0021149 0.0223057
0.0396774 2.71051e-20 0.0021149 -0.000338146
-0.039584 3.87215e-21 0.00366033 0.0222833
0.039584 5.80823e-21 0.00366035 -0.000338022
-0.0396652 -2.71051e-20 0.0028356 0.0223001
0.0396652 2.71051e-20 0.0028356 -0.0003381
0.0398974 -7.52918e-21 0.000433584 -0.000337955
-0.0398974 7.52918e-21 0.000433597 0.0222863
-0.0397723 1.35525e-20 0.00404307 0.022297
0.0397724 1.35525e-20 0.00404309 -0.000338103
-0.0398261 -1.35525e-20 0.00397859 0.0222979
0.0398262 -1.35525e-20 0.00397863 -0.000338104
-0.0400266 0 5.89696e-14 0.0223047
0.0400285 -3.07049e-21 5.87113e-14 -0.000338027
-0.0400315 0 6.38781e-07 0.022305
-0.0400248 -7.52918e-22 0.000878018 0.0222976
0.0400248 5.0822e-21 0.000878006 -0.000338119
-0.0400176 -6.58803e-22 0.0017143 0.0223058
0.0400177 -5.64689e-22 0.00171429 -0.000338212
-0.0399832 -2.25875e-21 0.00248314 0.0223098
0.0399832 -1.12938e-21 0.00248314 -0.000338187
-0.0399582 0 0.00322758 0.0223019
0.0399582 0 0.00322761 -0.00033812
-0.0399279 -6.77626e-21 0.00368191 0.0222969
0.0399279 -4.51751e-21 0.00368193 -0.000338084
-0.0399096 -1.35525e-20 0.00407855 0.0222973
0.0399096 1.35525e-20 0.00407855 -0.000338083
0.0400594 1.35525e-20 0.00398559 -0.000338179
-0.0400595 1.35525e-20 0.00398556 0.0223089
0.0403283 2.71051e-20 0.00130595 -0.000338231
-0.0403283 0 0.00130595 0.0223044
-0.0403037 -5.42101e-20 0.00209219 0.022311
0.0403037 -2.71051e-20 0.0020922 -0.00033826
-0.0402835 -2.71051e-20 0.00284183 0.0223229
0.0402835 0 0.00284185 -0.000338243
-0.0403926 -3.01167e-21 0.000332751 0.0223393
0.0403926 2.25875e-21 0.00033272 -0.000339241
-0.0402358 0 0.0035945 0.0223021
0.0402359 0 0.00359453 -0.000338069
-0.0402062 1.10114e-20 0.0041549 0.0223196
0.0402063 1.35525e-20 0.00415492 -0.000338268
-0.0402146 5.0822e-21 0.00414562 0.0223203
0.0402147 -1.69407e-21 0.0041457 -0.000338274
0.0402234 -8.47033e-22 0.00415933 -0.000338268
-0.0402234 9.31736e-21 0.00415934 0.0223198
-0.0403023 -5.42101e-21 0.00393721 0.0223151
0.0403024 1.35525e-20 0.00393724 -0.000338226
0.0405606 0 2.46956e-14 -0.000339212
-0.0405608 -1.35525e-20 2.42881e-14 0.0223394
0.0406279 5.64689e-22 0.0017081 -0.000338318
-0.0406279 -9.03502e-22 0.00170811 0.0223057
-0.0406701 9.03502e-22 0.000834172 0.0223317
0.0406701 -9.03502e-22 0.000834157 -0.000338537
-0.0406057 3.38813e-21 0.00247151 0.0223011
0.0406057 -2.25875e-21 0.00247151 -0.000338297
-0.0405666 -2.25875e-21 0.0032346 0.022313
0.0405666 -2.25875e-21 0.00323462 -0.000338267
0.0407119 1.35525e-20 1.9156e-14 -0.000338833
-0.0407119 1.35525e-20 1.89963e-14 0.0223342
-0.0404943 -2.71051e-20 0.00422906 0.0223101
0.0404943 1.35525e-20 0.00422907 -0.00033817
-0.0405856 -2.25875e-21 0.00374189 0.0223135
0.0405857 -4.06576e-21 0.00374191 -0.000338255
-0.0406592 0 0.0042714 0.0223063
0.0406593 6.77626e-21 0.00427142 -0.000338195
-0.0408969 -1.35525e-20 1.55407e-14 0.022339
0.040897 0 1.56592e-14 -0.000339436