# pMean  POINT_DATA 14060
# x  y  z  pMean
4.06576e-20 0.0106418 6.54156e-08 -0.00105968
-4.06576e-20 -0.0106418 6.54156e-08 0.0199332
0 -0.0106418 0.000314253 0.0199326
1.69407e-21 0.0106418 0.000314436 -0.00105967
-1.01644e-20 -0.0106418 0.000346253 0.0199327
-3.38813e-21 0.0106418 0.000346447 -0.00105967
0 -0.0106418 0.000664285 0.019934
2.71051e-20 0.0106418 0.000664666 -0.00105968
-1.69407e-21 0.0106696 0.000329843 -0.00105966
0 -0.0106696 0.000329653 0.0199322
-5.0822e-21 -0.0106418 0.000994701 0.0199333
-1.69407e-21 0.0106418 0.000995075 -0.00105968
-1.69407e-21 -0.0106418 0.00102868 0.0199333
1.69407e-21 0.0106418 0.00102909 -0.00105968
-1.35525e-20 -0.0106651 0.00100858 0.0199328
1.86347e-20 0.0106651 0.00100897 -0.00105967
0 -0.0106418 0.00135925 0.0199344
-1.35525e-20 0.0106418 0.00135964 -0.00105968
-3.38813e-21 -0.0106418 0.00170831 0.0199337
0 0.0106418 0.00170849 -0.00105967
-6.77626e-21 -0.0106418 0.00174299 0.0199337
2.20229e-20 0.0106418 0.0017432 -0.00105967
0 -0.0106634 0.00171659 0.0199332
6.77626e-21 0.0106634 0.00171678 -0.00105966
0 0.0106417 0.002087 -0.00105969
0 -0.0106417 0.002087 0.0199352
1.35525e-20 0.0108523 6.905e-08 -0.00105963
2.71051e-20 -0.0108523 6.90492e-08 0.01993
4.51751e-21 -0.0108537 0.000983441 0.01993
0 0.0108538 0.000983846 -0.00105963
-7.90564e-21 0.0109302 0.000328664 -0.00105962
-5.64689e-21 -0.0109302 0.000328466 0.019929
-9.03502e-21 -0.010876 0.00165246 0.01993
-2.25875e-21 0.010876 0.0016527 -0.00105962
-1.35525e-20 0.0110233 5.24961e-08 -0.00105961
-2.03288e-20 -0.0110233 5.24971e-08 0.0199284
0 -0.0108444 0.00218791 0.0199354
-3.38813e-21 0.0108444 0.00218791 -0.00105966
-6.77626e-21 0.010932 0.00223158 -0.00105965
3.38813e-21 -0.010932 0.00223159 0.0199344
3.38813e-21 -0.0109511 0.00214941 0.0199342
-6.77626e-21 0.0109511 0.00214943 -0.00105964
0 0.0111742 4.69561e-08 -0.00105959
0 -0.0111743 4.69564e-08 0.0199277
-2.25875e-21 -0.0111377 0.00125157 0.0199283
-9.03502e-21 0.0111378 0.00125193 -0.0010596
-6.77626e-21 -0.0111894 0.000675227 0.0199278
-1.01644e-20 0.0111894 0.00067554 -0.00105959
1.35525e-20 0.0112788 0.000114381 -0.00105956
-1.35525e-20 -0.0112788 0.000114338 0.0199265
0 0.0112886 3.37067e-08 -0.00105956
1.35525e-20 -0.0112886 3.37059e-08 0.0199267
-6.77626e-21 -0.0111945 0.00167214 0.0199291
0 0.0111945 0.00167239 -0.0010596
2.25875e-21 -0.011163 0.00198697 0.0199295
-5.64689e-21 0.011163 0.00198709 -0.0010596
-2.71051e-20 0.011131 0.00233069 -0.0010596
0 -0.011131 0.00233069 0.0199287
0 0.0114369 0.00031708 -0.00105953
0 -0.0114369 0.00031693 0.0199251
-2.71051e-20 -0.011421 0.000929732 0.0199271
-2.71051e-20 0.011421 0.000930046 -0.00105957
-2.71051e-20 -0.0114038 0.0015068 0.0199258
-2.71051e-20 0.0114039 0.00150708 -0.00105956
-1.35525e-20 -0.0113457 0.00243752 0.0199181
1.35525e-20 0.0113457 0.00243753 -0.00105949
-1.35525e-20 -0.0116364 1.34784e-08 0.0199219
-1.35525e-20 0.0116364 1.34759e-08 -0.00105951
0 -0.0116375 9.54413e-05 0.0199217
0 0.0116376 9.54576e-05 -0.00105951
0 -0.0114303 0.0024797 0.0199162
-6.77626e-21 0.0114304 0.00247971 -0.00105947
5.64689e-21 -0.0115074 0.00225281 0.0199157
4.51751e-21 0.0115075 0.00225288 -0.00105947
-1.35525e-20 -0.0117301 3.25942e-09 0.0199202
0 0.0117301 3.26008e-09 -0.0010595
0 -0.0117195 0.000610229 0.0199205
-6.77626e-21 0.0117195 0.000610449 -0.00105951
4.51751e-21 -0.0117028 0.00122422 0.0199207
-9.03502e-21 0.0117028 0.00122449 -0.00105952
0 0.0118194 8.97007e-05 -0.00105949
-1.35525e-20 -0.0118195 8.9705e-05 0.0199189
0 0.01182 3.03178e-09 -0.00105949
0 -0.01182 3.03111e-09 0.019919
-4.51751e-21 -0.0116772 0.0018372 0.0199204
2.25875e-21 0.0116772 0.00183735 -0.00105951
0 -0.0116033 0.00256579 0.0199154
2.71051e-20 0.0116033 0.00256582 -0.00105949
-2.71051e-20 0.0120204 0.00030712 -0.00105946
-2.71051e-20 -0.0120205 0.000307029 0.0199153
0 -0.0117485 0.00263815 0.0199148
-1.35525e-20 0.0117486 0.00263817 -0.00105947
0 -0.0120156 0.000917001 0.0199154
0 0.0120156 0.000917181 -0.00105947
1.50584e-21 -0.0118318 0.00229966 0.0199142
0 0.0118319 0.00229972 -0.00105946
0 -0.0117786 0.00256188 0.0199139
0 0.0117787 0.00256192 -0.00105946
0 -0.0119886 0.00155401 0.0199162
2.71051e-20 0.0119887 0.00155417 -0.00105947
0 -0.012032 0.00210267 0.0199176
0 0.012032 0.00210275 -0.00105949
0 0.0122392 1.95024e-09 -0.00105943
-1.35525e-20 -0.0122393 1.95023e-09 0.0199126
1.35525e-20 0.0122409 8.16763e-05 -0.00105943
-1.35525e-20 -0.012241 8.16705e-05 0.0199125
0 -0.011987 0.00253932 0.0199127
-2.71051e-20 0.0119871 0.00253936 -0.00105945
0 0.012321 1.74247e-09 -0.00105941
0 -0.0123211 1.74247e-09 0.0199113
0 -0.0120123 0.00276923 0.0199129
0 0.0120124 0.00276924 -0.00105945
4.51751e-21 -0.0123328 0.00060351 0.0199113
0 0.0123328 0.000603616 -0.00105942
0 -0.0120725 0.00270714 0.0199118
-1.35525e-20 0.0120726 0.00270715 -0.00105944
4.51751e-21 -0.0123288 0.00123239 0.0199108
2.25875e-21 0.0123288 0.00123252 -0.00105942
1.35525e-20 0.0124027 1.58608e-09 -0.0010594
-1.35525e-20 -0.0124029 1.58605e-09 0.0199104
0 0.012405 7.77949e-05 -0.0010594
1.35525e-20 -0.0124051 7.77972e-05 0.0199104
9.03502e-21 -0.0123346 0.00185417 0.0199104
-1.12938e-21 0.0123346 0.00185426 -0.00105942
0 -0.0121505 0.00283802 0.0199096
-1.35525e-20 0.0121505 0.00283803 -0.00105943
-1.12938e-21 -0.0123063 0.00240165 0.0199089
3.38813e-21 0.0123064 0.00240169 -0.00105941
-1.35525e-20 -0.0122683 0.00289782 0.019906
-1.35525e-20 0.0122684 0.00289784 -0.0010594
1.35525e-20 -0.0123167 0.00277203 0.0199056
-1.35525e-20 0.0123167 0.00277205 -0.00105939
0 0.0126427 0.000300471 -0.00105937
0 -0.0126428 0.000300435 0.0199076
2.71051e-20 -0.0126591 0.000913392 0.0199068
-2.71051e-20 0.012659 0.000913471 -0.00105938
2.71051e-20 -0.0126618 0.00155274 0.019905
0 0.0126618 0.00155281 -0.00105936
2.71051e-20 -0.0125263 0.00271731 0.0199027
0 0.0125263 0.00271734 -0.00105936
2.71051e-20 0.0124665 0.00299812 -0.00105935
-1.35525e-20 -0.0124665 0.00299814 0.0199011
0 -0.0126643 0.00218644 0.0199031
2.71051e-20 0.0126643 0.00218649 -0.00105936
6.77626e-21 0.0128706 4.59712e-10 -0.00105932
-6.77626e-21 -0.0128707 4.59687e-10 0.0199046
0 0.0128741 6.76249e-05 -0.00105932
-6.77626e-21 -0.0128742 6.76189e-05 0.0199046
-2.71051e-20 0.0125733 0.00289917 -0.00105933
1.35525e-20 -0.0125733 0.00289922 0.0198992
1.35525e-20 0.0129417 3.22177e-10 -0.00105931
0 -0.0129418 3.22144e-10 0.0199036
-1.35525e-20 0.0125996 0.00306574 -0.00105934
0 -0.0125996 0.00306572 0.0199004
-1.12938e-21 0.0129729 0.000593308 -0.00105932
-2.25875e-21 -0.0129729 0.000593273 0.0199036
0 0.0130097 3.00406e-10 -0.00105929
-6.77626e-21 -0.0130097 3.00375e-10 0.0199028
0 0.0130126 6.19331e-05 -0.00105929
0 -0.0130126 6.19352e-05 0.0199028
1.12938e-21 -0.0129928 0.00122118 0.0199022
1.12938e-21 0.0129928 0.00122123 -0.00105932
0 -0.0127131 0.00312274 0.0198954
0 0.0127131 0.00312278 -0.00105928
-1.35525e-20 -0.0127497 0.00301636 0.0198949
-1.35525e-20 0.0127497 0.00301635 -0.00105927
-2.25875e-21 -0.0129973 0.00187881 0.019901
-2.25875e-21 0.0129973 0.00187885 -0.00105931
-4.96926e-21 -0.0129622 0.00258487 0.0198986
-9.03502e-22 0.0129622 0.0025849 -0.0010593
2.71051e-20 -0.0129338 0.00296499 0.019889
2.71051e-20 0.0129338 0.00296502 -0.00105922
0 0.0132745 0.000290697 -0.00105924
2.71051e-20 -0.0132746 0.000290697 0.0198995
0 0.0133097 0.000892132 -0.00105928
0 -0.0133098 0.000892103 0.0199008
-6.77626e-21 -0.0129628 0.00324855 0.0198918
6.77626e-21 0.0129628 0.00324857 -0.00105924
0 -0.0130138 0.00319442 0.0198911
6.77626e-21 0.0130138 0.00319445 -0.00105924
0 -0.0133311 0.00153426 0.0198962
5.42101e-20 0.0133311 0.0015343 -0.00105926
-1.35525e-20 -0.0130334 0.00328409 0.0198923
0 0.0130335 0.00328412 -0.00105926
0 -0.0133253 0.00221294 0.0199
-2.71051e-20 0.0133254 0.00221295 -0.00105927
6.77626e-21 -0.0130971 0.00331595 0.0198927
-6.77626e-21 0.0130971 0.00331598 -0.00105925
1.35525e-20 -0.0131128 0.00327452 0.0198922
0 0.0131128 0.00327455 -0.00105925
0 0.0135215 4.37567e-11 -0.00105916
-6.77626e-21 -0.0135215 4.37417e-11 0.0198973
6.77626e-21 0.013525 4.46982e-05 -0.00105916
0 -0.013525 4.46896e-05 0.0198972
7.52918e-22 -0.01322 0.00300113 0.0198935
2.25875e-21 0.01322 0.00300115 -0.00105925
0 -0.0135708 2.7414e-11 0.0198966
0 0.0135708 2.74242e-11 -0.00105914
0 -0.0136156 2.60779e-11 0.0198964
6.77626e-21 0.0136156 2.60872e-11 -0.00105912
6.77626e-21 -0.0136174 3.86816e-05 0.0198963
0 0.0136174 3.86925e-05 -0.00105912
-2.25875e-21 0.013613 0.000567026 -0.00105919
0 -0.0136131 0.000567017 0.019898
-2.71051e-20 -0.0133842 0.00278357 0.0199012
2.71051e-20 0.0133842 0.00278359 -0.0010593
-2.25875e-21 0.0136535 0.00118312 -0.00105923
-5.64689e-22 -0.0136536 0.00118311 0.0198968
2.71051e-20 -0.0133578 0.00322878 0.0198916
-5.42101e-20 0.0133579 0.00322881 -0.00105924
-2.25875e-21 -0.0136671 0.00185452 0.0198931
-4.51751e-21 0.0136672 0.00185453 -0.00105922
1.35525e-20 -0.0134202 0.00347787 0.0198915
0 0.0134203 0.00347791 -0.00105923
0 -0.0134522 0.00343713 0.0198909
0 0.0134523 0.00343717 -0.00105922
0 0.0139 0.000270267 -0.00105903
-2.71051e-20 -0.0139 0.000270258 0.0198937
5.64689e-22 -0.0136756 0.0025133 0.0198916
0 0.0136756 0.00251332 -0.00105922
0 -0.0134921 0.00351385 0.0198895
-1.35525e-20 0.0134922 0.00351387 -0.00105922
-2.71051e-20 0.0139532 0.000842554 -0.00105919
-5.42101e-20 -0.0139532 0.000842545 0.0198982
5.64689e-22 -0.0136462 0.00307161 0.0198892
-5.64689e-22 0.0136463 0.00307162 -0.00105921
0 -0.0135602 0.00354792 0.0198873
-6.77626e-21 0.0135603 0.00354795 -0.00105919
0 -0.0135939 0.00346713 0.019887
-1.35525e-20 0.013594 0.00346717 -0.00105919
-2.71051e-20 0.0139954 0.00147861 -0.00105916
0 -0.0139954 0.00147861 0.0198922
5.42101e-20 -0.0139994 0.00216676 0.0198847
0 0.0139994 0.00216678 -0.00105917
0 0.0141777 1.4792e-12 -0.00105901
-1.69407e-21 -0.0141778 1.47682e-12 0.019884
0 0.0141787 1.2541e-05 -0.00105901
0 -0.0141789 1.25123e-05 0.019884
-1.69407e-21 0.0141923 1.02466e-12 -0.00105901
1.69407e-21 -0.0141924 1.02347e-12 0.0198834
0 0.0142041 9.50757e-06 -0.001059
0 -0.0142042 9.48552e-06 0.019883
0 0.0142051 1.0097e-12 -0.001059
-1.69407e-21 -0.0142052 1.00857e-12 0.019883
-1.69407e-22 0.0142399 0.000510993 -0.0010591
5.64689e-23 -0.01424 0.000510997 0.019891
0 -0.0138494 0.00338134 0.0198834
0 0.0138495 0.00338137 -0.00105915
-2.71051e-20 -0.0139915 0.00283632 0.019881
5.42101e-20 0.0139915 0.00283633 -0.00105914
0 -0.0138215 0.00367867 0.0198799
-1.35525e-20 0.0138216 0.0036787 -0.00105912
0 0.0143091 0.00109617 -0.00105914
2.82344e-22 -0.0143102 0.00109467 0.0198898
-1.35525e-20 -0.013893 0.00360484 0.0198786
0 0.0138931 0.00360489 -0.0010591
0 -0.0143537 7.6488e-13 0.0198832
-1.69407e-21 0.0143541 7.64998e-13 -0.00105904
-1.35525e-20 -0.0139056 0.00372066 0.0198801
0 0.0139057 0.00372068 -0.00105911
1.41172e-21 -0.0143405 0.00177729 0.0198808
-8.47033e-22 0.0143405 0.0017773 -0.0010591
-2.71051e-20 0.014476 0.000224599 -0.00105898
-5.42101e-20 -0.0144761 0.000224598 0.0198732
0 -0.0139819 0.00376071 0.0198769
0 0.013982 0.00376072 -0.00105906
0 -0.0140112 0.00368366 0.0198764
1.35525e-20 0.0140113 0.0036837 -0.00105905
1.12938e-21 -0.0143223 0.00249857 0.0198802
1.69407e-21 0.0143224 0.00249858 -0.00105912
-2.71051e-20 0.014582 0.000746675 -0.00105921
2.71051e-20 -0.0145821 0.000746673 0.0199009
1.807e-21 -0.0142718 0.00323775 0.0198785
-4.51751e-22 0.0142719 0.00323777 -0.00105909
0 -0.0142272 0.00361841 0.019868
2.71051e-20 0.0142272 0.00361844 -0.00105899
0 0.0146963 0.000425145 -0.00105915
3.01167e-21 -0.0146964 0.000425144 0.0198883
0 0.0146847 0.00134648 -0.00105899
0 -0.0146847 0.00134648 0.0198677
0 0.014768 2.53725e-05 -0.00105912
0 -0.0147681 2.54118e-05 0.0198815
0 0.0147706 9.09601e-14 -0.00105912
0 -0.0147706 9.09569e-14 0.0198815
-6.77626e-21 0.0148059 6.69883e-15 -0.00105914
0 -0.014806 6.66559e-15 0.0198831
0 -0.014659 0.00210816 0.019877
0 0.014659 0.00210816 -0.00105909
-6.77626e-21 -0.0142865 0.00391553 0.0198737
0 0.0142866 0.00391558 -0.00105903
0 -0.0143135 0.00388585 0.0198733
-6.77626e-21 0.0143136 0.00388592 -0.00105902
0 0.0148347 4.54511e-05 -0.00105913
0 -0.0148348 4.55279e-05 0.019884
0 0.0148461 5.76636e-15 -0.00105913
0 -0.0148463 5.73764e-15 0.019884
0 -0.0143216 0.00393365 0.0198741
0 0.0143217 0.00393369 -0.00105904
-6.77626e-21 -0.0143519 0.00395506 0.0198757
6.77626e-21 0.0143519 0.00395508 -0.00105905
0 -0.014364 0.00393203 0.0198751
0 0.0143641 0.00393207 -0.00105905
-2.71051e-20 -0.014635 0.00283843 0.0198779
0 0.014635 0.00283845 -0.00105908
8.47033e-21 0.0144995 0.00366943 -0.00105904
8.47033e-22 0.0145102 0.00366649 -0.00105905
5.64689e-22 -0.0145197 0.00367384 0.0198754
2.71051e-20 0.0150122 0.000330156 -0.00105925
0 -0.0150123 0.000330152 0.0198917
1.69407e-21 0.0145873 0.00370018 -0.00105904
-2.71051e-20 -0.0146766 0.00345532 0.0198848
5.42101e-20 0.0146766 0.00345534 -0.0010591
1.69407e-22 0.0150077 0.00170828 -0.001059
-5.64689e-22 -0.0150077 0.00170827 0.0198641
6.32451e-21 0.0150925 0.000854694 -0.00105902
9.93852e-21 -0.0150925 0.000854681 0.0198862
5.42101e-20 -0.0146272 0.00391091 0.0198756
0 0.0146272 0.00391095 -0.00105904
1.01644e-21 -0.0149891 0.00242097 0.0198576
-1.24231e-21 0.0149891 0.00242099 -0.001059
8.47033e-22 -0.0149586 0.00315962 0.0198675
-3.76459e-22 0.0149587 0.00315962 -0.00105901
-6.77626e-21 -0.014702 0.00420283 0.0198756
0 0.0147021 0.00420291 -0.00105905
-6.77626e-21 -0.0152975 8.17222e-05 0.0198835
-6.77626e-21 0.0152978 8.14897e-05 -0.00105901
-6.77626e-21 -0.0147323 0.00417569 0.0198747
0 0.0147325 0.0041758 -0.00105905
1.35525e-20 -0.015314 2.16441e-15 0.0198836
1.35525e-20 0.0153142 2.17317e-15 -0.00105901
0 -0.0147475 0.004235 0.0198718
0 0.0147476 0.00423506 -0.00105902
0 -0.014778 0.00425658 0.0198668
-6.77626e-21 0.0147781 0.00425663 -0.001059
0 -0.014793 0.00422587 0.0198669
6.77626e-21 0.0147931 0.00422594 -0.001059
0 0.0153882 1.38149e-16 -0.00105899
0 -0.0153882 1.36928e-16 0.019883
1.35525e-20 0.0154217 0.000114547 -0.00105889
-6.77626e-21 -0.0154218 0.000114884 0.0198781
0 -0.0149638 0.00384024 0.0198697
-9.41148e-22 0.0149638 0.00384027 -0.001059
-6.77626e-21 0.0154552 2.28099e-16 -0.00105888
-6.77626e-21 -0.0154554 2.28503e-16 0.0198779
0 -0.0148468 0.00430527 0.0198695
6.77626e-21 0.0148469 0.00430529 -0.00105901
0 0.0154606 0.00140664 -0.00105905
-2.71051e-20 -0.0154606 0.00140663 0.0199033
2.71051e-20 -0.0152777 0.00281385 0.019853
0 0.0152777 0.00281386 -0.00105893
2.71051e-20 0.0154333 0.00193355 -0.00105891
-2.71051e-20 -0.0154333 0.00193355 0.0198167
0 0.0156222 0.00048004 -0.00105861
-2.71051e-20 -0.0156222 0.000480036 0.0198686
2.71051e-20 -0.0152555 0.00350076 0.0198561
2.71051e-20 0.0152556 0.00350079 -0.00105892
-1.35525e-20 -0.0150546 0.00445233 0.0198836
6.77626e-21 0.0150547 0.00445239 -0.00105912
0 0.0157269 1.65675e-16 -0.00105877
6.77626e-21 -0.0157276 1.66089e-16 0.0198676
8.47033e-22 -0.0151604 0.00422301 0.0198869
2.82344e-22 0.0151605 0.00422311 -0.00105914
1.35525e-20 0.0156637 0.00166709 -0.00105888
1.35525e-20 -0.0156637 0.00166709 0.0198466
-3.38813e-22 -0.015616 0.00242546 0.0198306
3.38813e-22 0.015616 0.00242547 -0.00105884
-5.64689e-22 0.0157781 0.000921737 -0.00105875
7.52918e-22 -0.0157782 0.000921692 0.0198689
5.64689e-22 -0.0155828 0.00315318 0.0198507
-5.64689e-22 0.0155828 0.00315319 -0.00105887
6.77626e-21 -0.0152441 0.00458644 0.019867
0 0.0152443 0.00458654 -0.00105894
-6.77626e-21 0.0159533 3.83645e-05 -0.00105863
-6.77626e-21 -0.0159534 3.82981e-05 0.0198591
2.71051e-20 0.015843 0.00192285 -0.00105881
2.71051e-20 -0.015843 0.00192286 0.0198137
0 0.0159594 2.87839e-17 -0.00105863
-6.77626e-21 -0.0159594 2.84889e-17 0.0198591
-2.71051e-20 0.0159064 0.00142308 -0.00105883
2.71051e-20 -0.0159064 0.00142306 0.0198637
-1.12938e-21 -0.0155142 0.00388452 0.0198619
0 0.0155142 0.00388456 -0.0010589
-1.35525e-20 -0.0153266 0.00464478 0.0198645
0 0.0153267 0.00464485 -0.0010589
0 -0.01535 0.0046163 0.0198645
-1.35525e-20 0.0153501 0.00461639 -0.0010589
0 -0.0153665 0.00467306 0.0198679
-1.35525e-20 0.0153666 0.00467311 -0.00105892
-2.71051e-20 0.0160927 0.000505085 -0.00105865
0 -0.0160928 0.000505072 0.019851
-6.77626e-21 -0.0154309 0.00471863 0.0198619
1.35525e-20 0.015431 0.00471864 -0.00105887
6.77626e-21 -0.0161373 9.11538e-18 0.0198578
0 0.0161376 9.31637e-18 -0.00105864
-1.35525e-20 -0.0154622 0.00464659 0.0198625
0 0.0154622 0.00464666 -0.00105887
-7.05861e-22 -0.0155558 0.00433293 0.0198659
2.82344e-22 0.0155559 0.00433296 -0.00105891
0 -0.0159329 0.00276854 0.0198341
0 0.0159329 0.00276855 -0.00105878
5.42101e-20 -0.015876 0.00349495 0.0198579
0 0.015876 0.00349497 -0.00105885
2.82344e-22 -0.0163022 0.00169287 0.0198364
1.41172e-22 0.0163022 0.00169287 -0.00105875
5.42101e-20 -0.0158805 0.00413133 0.0198565
-2.71051e-20 0.0158806 0.00413135 -0.00105883
-2.71051e-20 -0.0157464 0.00463062 0.0198602
2.71051e-20 0.0157465 0.00463067 -0.00105885
-1.35525e-20 -0.0156844 0.004898 0.0198526
-1.35525e-20 0.0156845 0.0048981 -0.00105879
0 -0.0164403 0.000192195 0.019852
0 0.0164404 0.000192073 -0.00105866
-1.35525e-20 -0.0164599 2.18737e-18 0.0198518
1.35525e-20 0.0164599 2.23707e-18 -0.00105866
1.12938e-21 -0.0163055 0.00229239 0.0198363
0 0.0163055 0.00229239 -0.00105876
0 -0.0157621 0.0048391 0.0198518
1.35525e-20 0.0157621 0.00483922 -0.00105878
0 -0.0164587 0.00103727 0.0198548
6.77626e-21 0.0164587 0.00103728 -0.00105872
1.12938e-22 -0.0162201 0.00310503 0.0198512
3.38813e-22 0.0162201 0.00310505 -0.00105879
-2.71051e-20 -0.0157673 0.00495663 0.0198576
0 0.0157673 0.00495668 -0.0010588
1.35525e-20 0.0165552 1.89118e-18 -0.00105871
1.35525e-20 -0.0165552 1.82985e-18 0.0198604
1.35525e-20 0.0158425 0.00500991 -0.00105872
-1.35525e-20 -0.0158425 0.00500989 0.0198533
0 0.0158774 0.00492677 -0.00105872
0 -0.0158775 0.00492671 0.0198526
-2.25875e-21 -0.0161858 0.00381853 0.0198605
5.64689e-22 0.0161859 0.00381855 -0.0010588
0 0.0166929 0.000101665 -0.00105868
1.35525e-20 -0.0166931 0.000101735 0.0198551
-1.35525e-20 0.0166941 -1.9757e-18 -0.00105868
1.35525e-20 -0.0166943 -1.99904e-18 0.0198552
9.03502e-22 -0.0161388 0.00451629 0.0198582
-1.12938e-21 0.0161388 0.00451633 -0.00105878
0 -0.0165511 0.0027628 0.0198538
0 0.0165511 0.0027628 -0.00105877
2.71051e-20 -0.0160804 0.00488839 0.0198411
0 0.0160804 0.00488844 -0.00105864
-5.42101e-20 -0.0165195 0.00345964 0.0198625
-2.71051e-20 0.0165195 0.00345965 -0.00105878
0 -0.0160927 0.00518691 0.0198527
0 0.0160929 0.00518705 -0.0010587
0 -0.0161328 0.00514885 0.0198522
0 0.0161329 0.00514907 -0.0010587
6.77626e-21 -0.0161376 0.0052187 0.019855
6.77626e-21 0.0161377 0.00521878 -0.00105874
-2.71051e-20 -0.0164852 0.00415081 0.019865
0 0.0164853 0.00415084 -0.00105876
-6.77626e-21 -0.0161812 0.00524952 0.0198597
-6.77626e-21 0.0161812 0.00524953 -0.00105876
-6.77626e-21 -0.0162 0.00521518 0.0198583
0 0.0162 0.00521526 -0.00105876
0 0.0169483 0.00175217 -0.00105872
-5.42101e-20 -0.0169483 0.00175217 0.0198472
-1.41172e-22 0.0168946 0.00247379 -0.0010587
-2.82344e-22 -0.0168959 0.00247492 0.0198386
0 0.0170685 0.000542394 -0.00105872
-5.42101e-20 -0.0170686 0.000542393 0.01986
-5.64689e-22 -0.016348 0.00494369 0.0198576
1.41172e-22 0.0163681 0.00495112 -0.00105875
8.47033e-22 -0.0168537 0.00309992 0.0198501
-2.82344e-22 0.0168537 0.00309993 -0.00105872
0 -0.0165271 0.00473647 0.0198723
-2.71051e-20 0.0165271 0.0047365 -0.00105883
5.64689e-22 -0.0168198 0.00379489 0.0198571
0 0.0168198 0.00379489 -0.00105874
0 -0.0164532 0.00518907 0.0198626
0 0.0164532 0.0051891 -0.00105877
-1.35525e-20 -0.0164986 0.00547411 0.0198645
1.35525e-20 0.0164987 0.0054742 -0.00105878
0 -0.0168074 0.0044544 0.019852
-3.38813e-21 0.0168075 0.00445442 -0.00105873
1.35525e-20 -0.0165401 0.00543882 0.0198629
1.35525e-20 0.0165402 0.00543896 -0.00105877
2.71051e-20 0.0171982 0.00274291 -0.00105861
-2.71051e-20 -0.0171982 0.00274291 0.019817
0 -0.0165562 0.00551488 0.0198566
0 0.0165562 0.0055149 -0.00105874
0 -0.0171475 0.00343443 0.0198664
5.42101e-20 0.0171475 0.00343443 -0.00105873
0 0.0165954 0.00554259 -0.0010587
-1.35525e-20 -0.0165954 0.00554261 0.0198445
0 0.0166162 0.00550295 -0.0010587
-1.35525e-20 -0.0166162 0.00550291 0.0198452
8.47033e-23 -0.0167942 0.00511228 0.0198556
-6.27432e-22 0.0168034 0.00511576 -0.00105873
0 0.0166838 0.00560512 -0.00105872
-6.77626e-21 -0.0166839 0.00560521 0.0198512
-5.42101e-20 -0.0171381 0.00410853 0.0198359
0 0.0171382 0.00410853 -0.00105868
6.77626e-21 -0.0176356 5.15747e-05 0.0198467
-6.77626e-21 0.0176356 5.15594e-05 -0.00105859
0 -0.0176365 -8.88394e-19 0.0198467
0 0.0176365 -8.80501e-19 -0.00105859
-1.12938e-21 -0.0176257 0.00114318 0.0198424
0 0.0176257 0.00114318 -0.00105859
-6.77626e-21 0.017701 -1.17471e-20 -0.00105857
0 -0.017701 -1.19998e-20 0.019845
0 0.0177564 5.70206e-05 -0.00105855
6.77626e-21 -0.0177564 5.70366e-05 0.0198436
0 -0.0174948 0.00304299 0.0198402
-7.05861e-23 0.0174948 0.003043 -0.00105864
-2.71051e-20 -0.0171005 0.00478727 0.0198343
2.71051e-20 0.0171005 0.00478729 -0.00105863
0 0.01776 -9.77488e-21 -0.00105855
0 -0.01776 -9.99454e-21 0.0198435
-5.64689e-22 -0.0176226 0.00231708 0.0198326
0 0.0176226 0.00231708 -0.0010586
6.77626e-21 -0.016865 0.00573336 0.019877
1.35525e-20 0.0168651 0.00573338 -0.00105882
-1.12938e-21 -0.0169917 0.00554745 0.0198898
0 0.0169918 0.00554746 -0.00105886
0 -0.0175404 0.00368248 0.0198464
1.12938e-21 0.0175404 0.00368248 -0.00105864
-5.64689e-22 -0.0174309 0.00445116 0.0198355
5.64689e-22 0.0174309 0.00445117 -0.00105861
1.35525e-20 -0.0170276 0.00584842 0.0198508
0 0.0170278 0.0058485 -0.00105865
-3.38813e-21 -0.0173594 0.00515914 0.0198461
2.25875e-21 0.0173594 0.00515917 -0.00105862
1.35525e-20 -0.0171315 0.00592198 0.019845
0 0.0171316 0.00592202 -0.0010586
-1.35525e-20 -0.0171628 0.0058861 0.0198456
2.71051e-20 0.0171629 0.00588616 -0.0010586
0 -0.0171821 0.00595789 0.019855
-1.35525e-20 0.0171822 0.00595791 -0.00105861
2.71051e-20 -0.017769 0.00410415 0.0198368
0 0.017769 0.00410415 -0.00105857
-5.42101e-20 -0.0182634 0.000578943 0.0198305
-1.0842e-19 0.0182634 0.000578939 -0.00105842
0 0.0173972 0.0056105 -0.00105861
0 -0.0173983 0.00561199 0.019852
0 -0.0172648 0.00601707 0.0198358
0 0.0172648 0.00601705 -0.00105854
-1.35525e-20 -0.0173077 0.00592609 0.0198394
0 0.0173077 0.00592612 -0.00105855
0 0.0182204 0.00175681 -0.00105852
5.42101e-20 -0.0182204 0.00175681 0.0198315
-5.42101e-20 -0.0177285 0.00478169 0.0198343
5.42101e-20 0.0177285 0.0047817 -0.00105857
5.42101e-20 -0.0181282 0.00306192 0.0198433
-5.42101e-20 0.0181282 0.00306192 -0.00105855
9.88205e-22 0.0181211 0.00374048 -0.00105852
-7.05861e-22 -0.0181211 0.00374048 0.0198324
-5.42101e-20 -0.0177324 0.00540771 0.0198391
2.71051e-20 0.0177325 0.00540772 -0.00105853
-2.71051e-20 -0.0174849 0.00617225 0.0198268
1.35525e-20 0.0174849 0.00617229 -0.00105845
0 -0.0175758 0.00590987 0.0198413
0 0.0175758 0.00590988 -0.00105854
-5.64689e-22 -0.0180729 0.00442473 0.0198352
0 0.0180729 0.00442474 -0.00105853
0 -0.0175826 0.00610029 0.019829
-1.35525e-20 0.0175826 0.00610033 -0.00105843
0 -0.0175873 0.00624642 0.0198419
2.71051e-20 0.0175873 0.00624644 -0.00105844
-1.12938e-21 -0.018047 0.00508937 0.0198481
-1.69407e-21 0.018047 0.00508938 -0.00105854
0 0.017673 0.00632955 -0.00105827
0 -0.017673 0.00632954 0.0198129
-2.71051e-20 0.0177235 0.00621993 -0.00105829
0 -0.0177235 0.00621991 0.019818
0 0.0188362 3.90693e-05 -0.00105835
-6.77626e-21 -0.0188362 3.90686e-05 0.0198201
-6.77626e-21 -0.0188376 -1.39629e-21 0.0198201
6.77626e-21 0.0188376 -1.37533e-21 -0.00105835
-2.71051e-20 0.0184191 0.00406131 -0.00105846
2.71051e-20 -0.0184191 0.0040613 0.0198215
0 -0.0188782 -3.44889e-23 0.0198197
6.77626e-21 0.0188782 -3.56432e-23 -0.00105835
-5.64689e-22 -0.0188457 0.00115779 0.0198206
5.64689e-22 0.0188457 0.00115779 -0.0010584
-3.61401e-21 -0.017989 0.00579611 0.0198454
-2.71051e-21 0.017989 0.00579611 -0.00105845
0 -0.0189173 3.90222e-05 0.019819
6.77626e-21 0.0189173 3.90242e-05 -0.00105834
6.77626e-21 -0.0189184 -4.2274e-23 0.0198189
6.77626e-21 0.0189184 -4.34052e-23 -0.00105834
8.47033e-22 -0.0188016 0.00239367 0.0198225
2.82344e-22 0.0188016 0.00239367 -0.00105846
2.71051e-20 -0.0179168 0.00619826 0.0198134
0 0.0179168 0.00619827 -0.00105819
0 -0.0178342 0.00647803 0.0198182
1.35525e-20 0.0178342 0.00647805 -0.00105825
2.71051e-20 -0.0183812 0.00473969 0.0198468
0 0.0183812 0.00473969 -0.00105851
0 -0.0179161 0.00640623 0.0198241
2.71051e-20 0.0179161 0.00640626 -0.00105827
0 -0.0179071 0.00654735 0.0198496
1.35525e-20 0.0179071 0.00654736 -0.0010584
-1.12938e-21 0.0187899 0.00359346 -0.00105842
-2.25875e-21 -0.0187899 0.00359346 0.0198372
-2.71051e-20 -0.0183614 0.0054084 0.0198712
2.71051e-20 0.0183614 0.0054084 -0.00105854
1.35525e-20 0.0179797 0.00661798 -0.0010584
0 -0.0179797 0.00661798 0.0198416
0 0.0180436 0.00652848 -0.00105838
0 -0.0180436 0.00652847 0.0198425
1.41172e-22 -0.0187173 0.00436434 0.0198362
-1.27055e-21 0.0187173 0.00436434 -0.00105843
-1.50584e-21 -0.018177 0.00625308 0.0198456
1.50584e-21 0.018177 0.00625308 -0.00105836
0 -0.0181271 0.00676144 0.0198407
1.35525e-20 0.0181271 0.00676146 -0.00105837
2.71051e-20 -0.0183874 0.00602484 0.0198585
-2.71051e-20 0.0183874 0.00602485 -0.00105842
2.71051e-20 -0.0182481 0.00651393 0.0198612
0 0.0182481 0.00651394 -0.00105846
4.94103e-22 0.0187359 0.00501818 -0.00105844
6.35275e-22 -0.0187359 0.00501817 0.019841
-1.35525e-20 -0.0182332 0.00669844 0.0198415
0 0.0182332 0.00669846 -0.00105835
0 -0.018217 0.00684899 0.0198443
-2.71051e-20 0.0182171 0.00684899 -0.00105832
-5.42101e-20 -0.0194643 0.000581954 0.019809
-5.42101e-20 0.0194643 0.000581956 -0.00105827
-5.42101e-20 -0.0194401 0.00177497 0.0198112
5.42101e-20 0.0194401 0.00177497 -0.0010584
1.12938e-21 -0.0186825 0.00571617 0.0198652
1.12938e-21 0.0186825 0.00571618 -0.00105843
2.71051e-20 0.018308 0.00693726 -0.00105813
1.35525e-20 -0.018308 0.00693726 0.0198121
0 0.018365 0.00682515 -0.00105816
-1.35525e-20 -0.018365 0.00682514 0.019819
0 0.0191534 0.00414674 -0.00105835
0 -0.0191534 0.00414674 0.0198772
0 -0.0194225 0.00303969 0.0198038
0 0.0194225 0.00303969 -0.00105836
0 0.01915 0.0045832 -0.0010584
0 -0.01915 0.0045832 0.019805
0 -0.0186305 0.00640894 0.0198531
1.807e-21 0.0186305 0.00640895 -0.00105832
1.05879e-22 0.0193894 0.00369515 -0.00105828
-5.13514e-20 -0.0193886 0.00369336 0.0198284
2.71051e-20 -0.0185455 0.00680231 0.0198066
-2.71051e-20 0.0185455 0.00680231 -0.00105805
0 -0.019012 0.00537772 0.0198449
-2.71051e-20 0.019012 0.00537773 -0.00105837
-1.35525e-20 -0.0184497 0.00707482 0.0198109
-2.71051e-20 0.0184497 0.00707483 -0.0010581
1.35525e-20 -0.018538 0.00700337 0.019817
0 0.018538 0.00700339 -0.00105812
0 -0.0193613 0.00436274 0.0198146
1.35525e-20 0.0193613 0.00436274 -0.0010583
-1.35525e-20 -0.0185249 0.0071478 0.0198406
-1.35525e-20 0.0185249 0.0071478 -0.00105825
2.71051e-20 -0.0189858 0.00603642 0.019885
0 0.0189858 0.00603643 -0.00105839
0 0.018601 0.00722169 -0.00105825
-1.35525e-20 -0.018601 0.00722169 0.0198347
-1.35525e-20 0.0186688 0.00713006 -0.00105823
0 -0.0186688 0.00713005 0.0198356
0 0.0193578 0.00503068 -0.0010583
-7.05861e-22 -0.0193578 0.00503068 0.0198059
-2.71051e-20 -0.0195829 0.00413333 0.0198052
-2.71051e-20 0.0195829 0.00413333 -0.00105824
6.02335e-21 -0.0188026 0.00685908 0.0198389
0 0.0188026 0.00685908 -0.00105821
-3.38813e-21 0.0200409 2.97531e-05 -0.00105823
-3.38813e-21 -0.0200409 2.97437e-05 0.019799
-3.38813e-21 0.0200414 5.6205e-24 -0.00105823
-6.77626e-21 -0.0200414 5.63319e-24 0.0197989
-6.77626e-21 -0.020072 -1.60504e-25 0.0197985
-6.77626e-21 0.020072 -1.56925e-25 -0.00105823
-1.12938e-21 0.0200566 0.00116432 -0.00105829
-1.12938e-21 -0.0200566 0.00116432 0.0198001
0 -0.0195648 0.00457553 0.0197767
0 0.0195648 0.00457553 -0.00105829
0 -0.020102 2.93804e-05 0.019798
-6.77626e-21 0.020102 2.93892e-05 -0.00105823
0 -0.0201024 -1.7309e-25 0.019798
-3.38813e-21 0.0201024 -1.69595e-25 -0.00105822
2.71051e-20 -0.0187404 0.00735707 0.0198323
0 0.0187404 0.00735708 -0.00105822
0 -0.0190162 0.00663681 0.0198528
2.82344e-21 -0.0193208 0.00568921 0.0198475
1.12938e-21 0.0193208 0.00568921 -0.00105832
0 0.0190162 0.00663681 -0.00105826
-2.71051e-20 -0.0188683 0.00711623 0.0198537
-2.71051e-20 0.0188683 0.00711623 -0.00105831
5.64689e-22 0.0200437 0.0023892 -0.00105834
-5.64689e-22 -0.0200437 0.0023892 0.0198004
-1.35525e-20 -0.0188522 0.00729488 0.0198326
-1.35525e-20 0.0188522 0.0072949 -0.00105819
1.35525e-20 -0.0188339 0.00744777 0.0198338
-2.71051e-20 0.0188339 0.00744777 -0.00105816
2.25875e-21 -0.0193083 0.00633279 0.0198692
-5.64689e-22 0.0193083 0.00633279 -0.00105829
0 -0.0196626 0.005336 0.0197991
-2.71051e-20 0.0196626 0.005336 -0.00105825
0 0.0189281 0.00753929 -0.00105797
-2.71051e-20 -0.0189281 0.0075393 0.019799
1.35525e-20 0.018987 0.00742577 -0.001058
0 -0.018987 0.00742576 0.0198064
-5.64689e-21 0.0200608 0.00364085 -0.00105826
2.25875e-21 -0.0200608 0.00364085 0.0197979
0 -0.0200043 0.00434223 0.0197861
0 0.020005 0.00434221 -0.00105821
-9.03502e-22 -0.0192547 0.00701653 0.0198439
0 0.0192547 0.00701654 -0.00105817
2.71051e-20 -0.0196313 0.0059969 0.0198594
-2.71051e-20 0.0196313 0.0059969 -0.00105826
2.71051e-20 -0.019165 0.00740556 0.0197923
-2.71051e-20 0.019165 0.00740556 -0.00105789
-1.35525e-20 -0.0190666 0.0076737 0.0197961
1.35525e-20 0.0190666 0.00767372 -0.00105793
-1.35525e-20 -0.0191579 0.00760273 0.0198022
-1.35525e-20 0.0191579 0.00760276 -0.00105795
-1.35525e-20 -0.0191443 0.00774911 0.0198255
0 0.0191443 0.00774911 -0.00105808
2.25875e-21 0.0200588 0.00492596 -0.00105817
-4.51751e-21 -0.0200588 0.00492596 0.0197947
5.42101e-20 0.0206698 0.000582857 -0.00105818
-5.42101e-20 -0.0206698 0.000582861 0.0197881
0 -0.0196174 0.00664558 0.0198798
-2.71051e-20 0.0196174 0.00664558 -0.00105826
5.42101e-20 0.0206614 0.00177612 -0.00105831
-5.42101e-20 -0.0206614 0.00177612 0.019792
5.64689e-22 -0.0199641 0.0056435 0.0198171
-9.88205e-22 0.0199641 0.00564351 -0.00105816
0 0.0192227 0.00782524 -0.00105809
0 -0.0192227 0.00782524 0.0198199
0 0.019291 0.00773359 -0.00105807