# U  POINT_DATA 14060
# x  y  z  U_x  U_y  U_z
4.06576e-20 0.0106418 6.54156e-08 0 0 0
-4.06576e-20 -0.0106418 6.54156e-08 0 0 0
0 -0.0106418 0.000314253 0 0 0
1.69407e-21 0.0106418 0.000314436 0 0 0
-1.01644e-20 -0.0106418 0.000346253 0 0 0
-3.38813e-21 0.0106418 0.000346447 0 0 0
0 -0.0106418 0.000664285 0 0 0
2.71051e-20 0.0106418 0.000664666 0 0 0
-1.69407e-21 0.0106696 0.000329843 -1.16285e-06 5.23371e-07 5.96119e-08
0 -0.0106696 0.000329653 0.000380451 -0.000149069 2.87378e-06
-5.0822e-21 -0.0106418 0.000994701 0 0 0
-1.69407e-21 0.0106418 0.000995075 0 0 0
-1.69407e-21 -0.0106418 0.00102868 0 0 0
1.69407e-21 0.0106418 0.00102909 0 0 0
-1.35525e-20 -0.0106651 0.00100858 0.000646634 -0.000246227 2.1239e-06
1.86347e-20 0.0106651 0.00100897 -1.29974e-05 5.09298e-06 4.76058e-08
0 -0.0106418 0.00135925 0 0 0
-1.35525e-20 0.0106418 0.00135964 0 0 0
-3.38813e-21 -0.0106418 0.00170831 0 0 0
0 0.0106418 0.00170849 0 0 0
-6.77626e-21 -0.0106418 0.00174299 0 0 0
2.20229e-20 0.0106418 0.0017432 0 0 0
0 -0.0106634 0.00171659 0.000560075 -0.000218197 1.39404e-05
6.77626e-21 0.0106634 0.00171678 -1.28334e-05 5.19156e-06 2.68199e-07
0 0.0106417 0.002087 0 0 0
0 -0.0106417 0.002087 0 0 0
1.35525e-20 0.0108523 6.905e-08 0 0 0
2.71051e-20 -0.0108523 6.90492e-08 0 0 0
4.51751e-21 -0.0108537 0.000983441 0.00566445 -0.00215546 1.53287e-05
0 0.0108538 0.000983846 -0.000113801 4.44147e-05 2.8977e-07
-7.90564e-21 0.0109302 0.000328664 -2.02842e-05 8.00577e-06 3.28027e-07
-5.64689e-21 -0.0109302 0.000328466 0.0034855 -0.00134195 1.50111e-05
-9.03502e-21 -0.010876 0.00165246 0.00601316 -0.00231094 0.000118879
-2.25875e-21 0.010876 0.0016527 -0.000136996 5.39757e-05 2.01274e-06
-1.35525e-20 0.0110233 5.24961e-08 0 0 0
-2.03288e-20 -0.0110233 5.24971e-08 0 0 0
0 -0.0108444 0.00218791 0 0 0
-3.38813e-21 0.0108444 0.00218791 0 0 0
-6.77626e-21 0.010932 0.00223158 0 0 0
3.38813e-21 -0.010932 0.00223159 0 0 0
3.38813e-21 -0.0109511 0.00214941 0.00226029 -0.000766919 4.41317e-05
-6.77626e-21 0.0109511 0.00214943 -4.8928e-05 1.7369e-05 2.97261e-07
0 0.0111742 4.69561e-08 0 0 0
0 -0.0111743 4.69564e-08 0 0 0
-2.25875e-21 -0.0111377 0.00125157 0.0114818 -0.00423331 1.59343e-05
-9.03502e-21 0.0111378 0.00125193 -0.000241946 8.76461e-05 -1.39459e-07
-6.77626e-21 -0.0111894 0.000675227 0.00905901 -0.00332498 -3.09275e-05
-1.01644e-20 0.0111894 0.00067554 -0.000130864 4.71977e-05 -4.44516e-07
1.35525e-20 0.0112788 0.000114381 -2.71819e-06 8.87172e-07 1.74049e-07
-1.35525e-20 -0.0112788 0.000114338 0.00267628 -0.000962869 -3.42584e-05
0 0.0112886 3.37067e-08 0 0 0
1.35525e-20 -0.0112886 3.37059e-08 0 0 0
-6.77626e-21 -0.0111945 0.00167214 0.012165 -0.00443907 4.5365e-05
0 0.0111945 0.00167239 -0.000273371 9.72454e-05 -1.42374e-09
2.25875e-21 -0.011163 0.00198697 0.00842976 -0.00294414 0.00012809
-5.64689e-21 0.011163 0.00198709 -0.000185465 6.6448e-05 7.73854e-07
-2.71051e-20 0.011131 0.00233069 0 0 0
0 -0.011131 0.00233069 0 0 0
0 0.0114369 0.00031708 -7.59694e-06 2.43154e-06 1.94152e-07
0 -0.0114369 0.00031693 0.0071797 -0.00257225 -5.53394e-05
-2.71051e-20 -0.011421 0.000929732 0.0162412 -0.00585602 -5.8558e-05
-2.71051e-20 0.011421 0.000930046 -0.000309968 0.000107449 -1.4281e-06
-2.71051e-20 -0.0114038 0.0015068 0.0169293 -0.00613159 -2.10852e-05
-2.71051e-20 0.0114039 0.00150708 -0.000383074 0.000134277 -1.28022e-06
-1.35525e-20 -0.0113457 0.00243752 0 0 0
1.35525e-20 0.0113457 0.00243753 0 0 0
-1.35525e-20 -0.0116364 1.34784e-08 0 0 0
-1.35525e-20 0.0116364 1.34759e-08 0 0 0
0 -0.0116375 9.54413e-05 0.00223434 -0.000803867 -2.86012e-05
0 0.0116376 9.54576e-05 -2.26885e-06 7.40517e-07 1.45277e-07
0 -0.0114303 0.0024797 0 0 0
-6.77626e-21 0.0114304 0.00247971 0 0 0
5.64689e-21 -0.0115074 0.00225281 0.00807213 -0.00306629 0.000221165
4.51751e-21 0.0115075 0.00225288 -0.000197967 8.04118e-05 4.32568e-06
-1.35525e-20 -0.0117301 3.25942e-09 0 0 0
0 0.0117301 3.26008e-09 0 0 0
0 -0.0117195 0.000610229 0.0140461 -0.00511299 -3.01672e-05
-6.77626e-21 0.0117195 0.000610449 -0.000189174 6.73064e-05 6.59387e-08
4.51751e-21 -0.0117028 0.00122422 0.0209716 -0.00762791 -3.53058e-05
-9.03502e-21 0.0117028 0.00122449 -0.000432713 0.000154793 -1.72669e-07
0 0.0118194 8.97007e-05 -2.19575e-06 8.25203e-07 -2.2085e-08
-1.35525e-20 -0.0118195 8.9705e-05 0.00279038 -0.00102833 -1.36539e-05
0 0.01182 3.03178e-09 0 0 0
0 -0.01182 3.03111e-09 0 0 0
-4.51751e-21 -0.0116772 0.0018372 0.0175927 -0.00646671 5.91521e-05
2.25875e-21 0.0116772 0.00183735 -0.000402779 0.000145804 1.4634e-06
0 -0.0116033 0.00256579 0 0 0
2.71051e-20 0.0116033 0.00256582 0 0 0
-2.71051e-20 0.0120204 0.00030712 -7.44958e-06 2.83973e-06 -6.67977e-09
-2.71051e-20 -0.0120205 0.000307029 0.0092973 -0.00344343 -4.42893e-06
0 -0.0117485 0.00263815 0 0 0
-1.35525e-20 0.0117486 0.00263817 0 0 0
0 -0.0120156 0.000917001 0.0239527 -0.00875439 -1.20013e-05
0 0.0120156 0.000917181 -0.000445124 0.000161079 1.38408e-06
1.50584e-21 -0.0118318 0.00229966 0.0125246 -0.00471444 0.000156242
0 0.0118319 0.00229972 -0.000301498 0.000111246 3.32183e-06
0 -0.0117786 0.00256188 0.00386943 -0.00148083 -3.34007e-08
0 0.0117787 0.00256192 -9.07117e-05 3.1951e-05 -2.52894e-07
0 -0.0119886 0.00155401 0.0271685 -0.00990671 -4.99296e-05
2.71051e-20 0.0119887 0.00155417 -0.000600138 0.000218726 7.60481e-07
0 -0.012032 0.00210267 0.0206853 -0.00763854 2.61359e-05
0 0.012032 0.00210275 -0.000491487 0.000173734 3.61548e-06
0 0.0122392 1.95024e-09 0 0 0
-1.35525e-20 -0.0122393 1.95023e-09 0 0 0
1.35525e-20 0.0122409 8.16763e-05 -1.99935e-06 7.5139e-07 -2.01095e-08
-1.35525e-20 -0.012241 8.16705e-05 0.00254048 -0.00093624 -1.24311e-05
0 -0.011987 0.00253932 0.0088927 -0.0033503 9.1838e-05
-2.71051e-20 0.0119871 0.00253936 -0.00020875 7.30204e-05 8.46818e-07
0 0.012321 1.74247e-09 0 0 0
0 -0.0123211 1.74247e-09 0 0 0
0 -0.0120123 0.00276923 0 0 0
0 0.0120124 0.00276924 0 0 0
4.51751e-21 -0.0123328 0.00060351 0.0184144 -0.00675411 1.93349e-06
0 0.0123328 0.000603616 -0.000251323 8.96165e-05 9.37463e-07
0 -0.0120725 0.00270714 0.00390023 -0.00149261 -3.36665e-08
-1.35525e-20 0.0120726 0.00270715 -9.14464e-05 3.22098e-05 -2.54942e-07
4.51751e-21 -0.0123288 0.00123239 0.0295825 -0.0108168 -3.72383e-05
2.25875e-21 0.0123288 0.00123252 -0.000602827 0.000216632 2.47514e-06
1.35525e-20 0.0124027 1.58608e-09 0 0 0
-1.35525e-20 -0.0124029 1.58605e-09 0 0 0
0 0.012405 7.77949e-05 -1.98406e-06 7.30189e-07 -2.73187e-08
1.35525e-20 -0.0124051 7.77972e-05 0.00281455 -0.00103987 4.69675e-06
9.03502e-21 -0.0123346 0.00185417 0.0289248 -0.0105783 -5.30669e-05
-1.12938e-21 0.0123346 0.00185426 -0.00065651 0.000236582 3.65339e-06
0 -0.0121505 0.00283802 0 0 0
-1.35525e-20 0.0121505 0.00283803 0 0 0
-1.12938e-21 -0.0123063 0.00240165 0.0183095 -0.0067201 3.85295e-05
3.38813e-21 0.0123064 0.00240169 -0.00043187 0.000156185 3.09804e-06
-1.35525e-20 -0.0122683 0.00289782 0 0 0
-1.35525e-20 0.0122684 0.00289784 0 0 0
1.35525e-20 -0.0123167 0.00277203 0.00676683 -0.00239481 4.79744e-05
-1.35525e-20 0.0123167 0.00277205 -0.000162283 6.02129e-05 1.62069e-06
0 0.0126427 0.000300471 -7.62794e-06 2.77657e-06 -4.51607e-08
0 -0.0126428 0.000300435 0.0106669 -0.00393467 2.64453e-05
2.71051e-20 -0.0126591 0.000913392 0.0302188 -0.0110571 -7.60835e-06
-2.71051e-20 0.012659 0.000913471 -0.000558551 0.000196507 2.40953e-06
2.71051e-20 -0.0126618 0.00155274 0.0371922 -0.0136217 -7.9872e-05
0 0.0126618 0.00155281 -0.000812984 0.000292116 5.40789e-06
2.71051e-20 -0.0125263 0.00271731 0.0139908 -0.00508873 0.000122798
0 0.0125263 0.00271734 -0.000331596 0.000124874 3.16235e-06
2.71051e-20 0.0124665 0.00299812 0 0 0
-1.35525e-20 -0.0124665 0.00299814 0 0 0
0 -0.0126643 0.00218644 0.0314171 -0.0114178 -0.000113584
2.71051e-20 0.0126643 0.00218649 -0.000737113 0.000267724 4.96591e-06
6.77626e-21 0.0128706 4.59712e-10 0 0 0
-6.77626e-21 -0.0128707 4.59687e-10 0 0 0
0 0.0128741 6.76249e-05 -1.72471e-06 6.34741e-07 -2.37477e-08
-6.77626e-21 -0.0128742 6.76189e-05 0.00244635 -0.000903836 4.08232e-06
-2.71051e-20 0.0125733 0.00289917 -0.000165277 6.13235e-05 1.65059e-06
1.35525e-20 -0.0125733 0.00289922 0.00688901 -0.00243805 4.88406e-05
1.35525e-20 0.0129417 3.22177e-10 0 0 0
0 -0.0129418 3.22144e-10 0 0 0
-1.35525e-20 0.0125996 0.00306574 0 0 0
0 -0.0125996 0.00306572 0 0 0
-1.12938e-21 0.0129729 0.000593308 -0.000300381 0.000104025 8.84719e-07
-2.25875e-21 -0.0129729 0.000593273 0.021608 -0.00793979 1.35579e-05
0 0.0130097 3.00406e-10 0 0 0
-6.77626e-21 -0.0130097 3.00375e-10 0 0 0
0 0.0130126 6.19331e-05 -1.67382e-06 6.63649e-07 4.89389e-08
0 -0.0130126 6.19352e-05 0.00248003 -0.000919742 5.73233e-06
1.12938e-21 -0.0129928 0.00122118 0.0367958 -0.0134849 -5.61126e-05
1.12938e-21 0.0129928 0.00122123 -0.000752972 0.000266022 4.11037e-06
0 -0.0127131 0.00312274 0 0 0
0 0.0127131 0.00312278 0 0 0
-1.35525e-20 -0.0127497 0.00301636 0.00594737 -0.00216834 0.000103347
-1.35525e-20 0.0127497 0.00301635 -0.000154345 6.28155e-05 3.3046e-06
-2.25875e-21 -0.0129973 0.00187881 0.0391359 -0.014256 -0.000144935
-2.25875e-21 0.0129973 0.00187885 -0.000890227 0.000320939 5.48052e-06
-4.96926e-21 -0.0129622 0.00258487 0.024969 -0.00907584 3.01211e-05
-9.03502e-22 0.0129622 0.0025849 -0.000604515 0.000222118 4.93639e-06
2.71051e-20 -0.0129338 0.00296499 0.012392 -0.00450355 0.000278626
2.71051e-20 0.0129338 0.00296502 -0.000325789 0.000128838 6.54281e-06
0 0.0132745 0.000290697 -7.84191e-06 3.01469e-06 2.85334e-07
2.71051e-20 -0.0132746 0.000290697 0.0114553 -0.00422319 1.13563e-05
0 0.0133097 0.000892132 -0.000642142 0.000218781 8.56455e-07
0 -0.0133098 0.000892103 0.0346201 -0.012738 2.21782e-05
-6.77626e-21 -0.0129628 0.00324855 0 0 0
6.77626e-21 0.0129628 0.00324857 0 0 0
0 -0.0130138 0.00319442 0.00380303 -0.00138654 6.60851e-05
6.77626e-21 0.0130138 0.00319445 -9.86503e-05 4.01489e-05 2.11215e-06
0 -0.0133311 0.00153426 0.0452879 -0.016573 -0.000162307
5.42101e-20 0.0133311 0.0015343 -0.00100298 0.000358426 7.77322e-06
-1.35525e-20 -0.0130334 0.00328409 0 0 0
0 0.0130335 0.00328412 0 0 0
0 -0.0133253 0.00221294 0.0429683 -0.0155287 -0.000225726
-2.71051e-20 0.0133254 0.00221295 -0.0010138 0.000367465 3.77517e-06
6.77626e-21 -0.0130971 0.00331595 0 0 0
-6.77626e-21 0.0130971 0.00331598 0 0 0
1.35525e-20 -0.0131128 0.00327452 0.00275436 -0.00102714 -2.07798e-05
0 0.0131128 0.00327455 -6.72217e-05 2.37844e-05 -1.1896e-07
0 0.0135215 4.37567e-11 0 0 0
-6.77626e-21 -0.0135215 4.37417e-11 0 0 0
6.77626e-21 0.013525 4.46982e-05 -1.20803e-06 4.78968e-07 3.53202e-08
0 -0.013525 4.46896e-05 0.00178948 -0.000663646 4.1362e-06
7.52918e-22 -0.01322 0.00300113 0.01746 -0.00636392 0.000137078
2.25875e-21 0.01322 0.00300115 -0.000441065 0.000161434 5.31234e-06
0 -0.0135708 2.7414e-11 0 0 0
0 0.0135708 2.74242e-11 0 0 0
0 -0.0136156 2.60779e-11 0 0 0
6.77626e-21 0.0136156 2.60872e-11 0 0 0
6.77626e-21 -0.0136174 3.86816e-05 0.0016239 -0.000680155 -2.16155e-05
0 0.0136174 3.86925e-05 -1.16925e-06 4.47545e-07 8.59653e-08
-2.25875e-21 0.013613 0.000567026 -0.000329954 0.000107692 5.84923e-07
0 -0.0136131 0.000567017 0.0233904 -0.00874994 -3.7461e-05
-2.71051e-20 -0.0133842 0.00278357 0.0287644 -0.0105055 1.4082e-05
2.71051e-20 0.0133842 0.00278359 -0.000721775 0.000258697 6.57769e-06
-2.25875e-21 0.0136535 0.00118312 -0.000869023 0.000301357 5.16258e-06
-5.64689e-22 -0.0136536 0.00118311 0.0421402 -0.0155192 -0.000109425
2.71051e-20 -0.0133578 0.00322878 0.0117569 -0.00428001 0.000109278
-5.42101e-20 0.0133579 0.00322881 -0.000288168 0.000101501 3.12021e-06
-2.25875e-21 -0.0136671 0.00185452 0.0487432 -0.0177396 -0.000241707
-4.51751e-21 0.0136672 0.00185453 -0.00112005 0.000403874 7.1109e-06
1.35525e-20 -0.0134202 0.00347787 0 0 0
0 0.0134203 0.00347791 0 0 0
0 -0.0134522 0.00343713 0.00316877 -0.00118169 -2.39062e-05
0 0.0134523 0.00343717 -7.73316e-05 2.73615e-05 -1.36851e-07
0 0.0139 0.000270267 -8.2032e-06 2.80501e-06 7.73687e-07
-2.71051e-20 -0.0139 0.000270258 0.0112088 -0.00466991 -0.000171304
5.64689e-22 -0.0136756 0.0025133 0.0418127 -0.0150923 -0.000196932
0 0.0136756 0.00251332 -0.00101222 0.000366254 5.04927e-06
0 -0.0134921 0.00351385 0 0 0
-1.35525e-20 0.0134922 0.00351387 0 0 0
-2.71051e-20 0.0139532 0.000842554 -0.000679153 0.000211949 3.58852e-07
-5.42101e-20 -0.0139532 0.000842545 0.036931 -0.0135932 -7.18112e-06
5.64689e-22 -0.0136462 0.00307161 0.0244981 -0.00884503 -3.07603e-05
-5.64689e-22 0.0136463 0.00307162 -0.000608189 0.000221092 4.35978e-06
0 -0.0135602 0.00354792 0 0 0
-6.77626e-21 0.0135603 0.00354795 0 0 0
0 -0.0135939 0.00346713 0.00555233 -0.00188154 -1.03131e-05
-1.35525e-20 0.013594 0.00346717 -0.000141643 5.17309e-05 7.5854e-07
-2.71051e-20 0.0139954 0.00147861 -0.00115765 0.000418609 1.17377e-05
0 -0.0139954 0.00147861 0.0518783 -0.0192287 -0.000292736
5.42101e-20 -0.0139994 0.00216676 0.0547832 -0.0196212 -0.00028618
0 0.0139994 0.00216678 -0.00130367 0.000470318 5.3147e-06
0 0.0141777 1.4792e-12 0 0 0
-1.69407e-21 -0.0141778 1.47682e-12 0 0 0
0 0.0141787 1.2541e-05 -3.78978e-07 1.45059e-07 2.78631e-08
0 -0.0141789 1.25123e-05 0.000525283 -0.00022001 -6.99197e-06
-1.69407e-21 0.0141923 1.02466e-12 0 0 0
1.69407e-21 -0.0141924 1.02347e-12 0 0 0
0 0.0142041 9.50757e-06 -1.88899e-07 -1.35883e-08 7.66756e-08
0 -0.0142042 9.48552e-06 0.00039369 -0.000146772 -3.08081e-05
0 0.0142051 1.0097e-12 0 0 0
-1.69407e-21 -0.0142052 1.00857e-12 0 0 0
-1.69407e-22 0.0142399 0.000510993 -0.000315075 8.79517e-05 5.95535e-06
5.64689e-23 -0.01424 0.000510997 0.0228815 -0.00859447 -0.000233873
0 -0.0138494 0.00338134 0.0177199 -0.00623266 2.15426e-05
0 0.0138495 0.00338137 -0.000443509 0.00016629 3.44318e-06
-2.71051e-20 -0.0139915 0.00283632 0.0424339 -0.0153056 -0.000310193
5.42101e-20 0.0139915 0.00283633 -0.00104707 0.000382014 4.42611e-06
0 -0.0138215 0.00367867 0 0 0
-1.35525e-20 0.0138216 0.0036787 0 0 0
0 0.0143091 0.00109617 -0.000914412 0.000297628 1.1266e-05
2.82344e-22 -0.0143102 0.00109467 0.0445327 -0.0164888 -0.000159904
-1.35525e-20 -0.013893 0.00360484 0.00623371 -0.00211245 -1.15787e-05
0 0.0138931 0.00360489 -0.000159015 5.80752e-05 8.51567e-07
0 -0.0143537 7.6488e-13 0 0 0
-1.69407e-21 0.0143541 7.64998e-13 0 0 0
-1.35525e-20 -0.0139056 0.00372066 0 0 0
0 0.0139057 0.00372068 0 0 0
1.41172e-21 -0.0143405 0.00177729 0.0570684 -0.0207948 -0.00038888
-8.47033e-22 0.0143405 0.0017773 -0.00131845 0.000470298 5.07344e-06
-2.71051e-20 0.014476 0.000224599 -4.42578e-06 5.6074e-07 1.57861e-06
-5.42101e-20 -0.0144761 0.000224598 0.00917144 -0.00337464 -0.000706517
0 -0.0139819 0.00376071 0 0 0
0 0.013982 0.00376072 0 0 0
0 -0.0140112 0.00368366 0.00553489 -0.0019052 2.71332e-05
1.35525e-20 0.0140113 0.0036837 -0.000151668 6.00149e-05 1.3894e-06
1.12938e-21 -0.0143223 0.00249857 0.0552354 -0.0198657 -0.000396655
1.69407e-21 0.0143224 0.00249858 -0.00133464 0.000483382 -1.26187e-06
-2.71051e-20 0.014582 0.000746675 -0.000617701 0.000152651 2.10224e-05
2.71051e-20 -0.0145821 0.000746673 0.0359044 -0.0133737 4.73986e-06
1.807e-21 -0.0142718 0.00323775 0.0326812 -0.0116474 -0.000169173
-4.51751e-22 0.0142719 0.00323777 -0.000832901 0.000304837 9.58022e-07
0 -0.0142272 0.00361841 0.0154868 -0.00530948 0.000185901
2.71051e-20 0.0142272 0.00361844 -0.000431602 0.000167038 5.31403e-06
0 0.0146963 0.000425145 -0.000198686 4.83485e-05 3.98704e-06
3.01167e-21 -0.0146964 0.000425144 0.0207968 -0.0077877 -0.000338555
0 0.0146847 0.00134648 -0.00123649 0.000423027 1.16805e-05
0 -0.0146847 0.00134648 0.0543545 -0.0201014 -0.000355768
0 0.014768 2.53725e-05 -4.95972e-07 1.59664e-07 1.52912e-07
0 -0.0147681 2.54118e-05 0.00102124 -0.000370811 -7.74266e-05
0 0.0147706 9.09601e-14 0 0 0
0 -0.0147706 9.09569e-14 0 0 0
-6.77626e-21 0.0148059 6.69883e-15 0 0 0
0 -0.014806 6.66559e-15 0 0 0
0 -0.014659 0.00210816 0.0667202 -0.0240296 -0.000602776
0 0.014659 0.00210816 -0.00156499 0.000563872 -7.86439e-06
-6.77626e-21 -0.0142865 0.00391553 0 0 0
0 0.0142866 0.00391558 0 0 0
0 -0.0143135 0.00388585 0.00261306 -0.00089946 1.28098e-05
-6.77626e-21 0.0143136 0.00388592 -7.15723e-05 2.8321e-05 6.55657e-07
0 0.0148347 4.54511e-05 -2.34362e-07 -1.19017e-06 -1.45577e-06
0 -0.0148348 4.55279e-05 0.00248786 -0.000953516 -3.27722e-05
0 0.0148461 5.76636e-15 0 0 0
0 -0.0148463 5.73764e-15 0 0 0
0 -0.0143216 0.00393365 0 0 0
0 0.0143217 0.00393369 0 0 0
-6.77626e-21 -0.0143519 0.00395506 0 0 0
6.77626e-21 0.0143519 0.00395508 0 0 0
0 -0.014364 0.00393203 0.00199711 -0.000738855 -2.25922e-05
0 0.0143641 0.00393207 -4.98179e-05 1.80567e-05 -5.78573e-07
-2.71051e-20 -0.014635 0.00283843 0.0576187 -0.0207285 -0.000399344
0 0.014635 0.00283845 -0.00143464 0.000521549 -7.30188e-06
8.47033e-21 0.0144995 0.00366943 -0.000586884 0.000213324 2.18633e-06
8.47033e-22 0.0145102 0.00366649 -0.000592443 0.000214955 1.96251e-06
5.64689e-22 -0.0145197 0.00367384 0.0224965 -0.00797029 -4.11201e-05
2.71051e-20 0.0150122 0.000330156 -1.14122e-06 -2.33281e-06 -9.53925e-06
0 -0.0150123 0.000330152 0.0183231 -0.006998 -0.000287245
1.69407e-21 0.0145873 0.00370018 -0.000621165 0.000223543 1.1994e-06
-2.71051e-20 -0.0146766 0.00345532 0.0367967 -0.0130536 -0.000449523
5.42101e-20 0.0146766 0.00345534 -0.000967872 0.000343047 -2.06107e-06
1.69407e-22 0.0150077 0.00170828 -0.00146899 0.00052211 -2.09121e-05
-5.64689e-22 -0.0150077 0.00170827 0.0627645 -0.0229798 -0.000391708
6.32451e-21 0.0150925 0.000854694 -0.000625495 0.000206878 -9.94108e-07
9.93852e-21 -0.0150925 0.000854681 0.0377503 -0.0141505 -0.000235244
5.42101e-20 -0.0146272 0.00391091 0.0148295 -0.00542296 0.000151221
0 0.0146272 0.00391095 -0.000380877 0.000136061 3.18897e-06
1.01644e-21 -0.0149891 0.00242097 0.0658742 -0.0238884 -0.000500402
-1.24231e-21 0.0149891 0.00242099 -0.00161569 0.00058262 -1.91848e-05
8.47033e-22 -0.0149586 0.00315962 0.0540967 -0.0193943 -0.00055789
-3.76459e-22 0.0149587 0.00315962 -0.00137764 0.000492907 -1.30105e-05
-6.77626e-21 -0.014702 0.00420283 0 0 0
0 0.0147021 0.00420291 0 0 0
-6.77626e-21 -0.0152975 8.17222e-05 0.00446569 -0.00171155 -5.88258e-05
-6.77626e-21 0.0152978 8.14897e-05 -4.2019e-07 -2.13386e-06 -2.61006e-06
-6.77626e-21 -0.0147323 0.00417569 0.00306993 -0.00113576 -3.47283e-05
0 0.0147325 0.0041758 -7.65816e-05 2.77573e-05 -8.89401e-07
1.35525e-20 -0.015314 2.16441e-15 0 0 0
1.35525e-20 0.0153142 2.17317e-15 0 0 0
0 -0.0147475 0.004235 0 0 0
0 0.0147476 0.00423506 0 0 0
0 -0.014778 0.00425658 0 0 0
-6.77626e-21 0.0147781 0.00425663 0 0 0
0 -0.014793 0.00422587 0.00213159 -0.000745356 3.40386e-05
6.77626e-21 0.0147931 0.00422594 -6.5755e-05 2.34972e-05 4.71433e-07
0 0.0153882 1.38149e-16 0 0 0
0 -0.0153882 1.36928e-16 0 0 0
1.35525e-20 0.0154217 0.000114547 -1.66488e-05 8.95885e-06 1.09592e-05
-6.77626e-21 -0.0154218 0.000114884 0.005649 -0.00233523 -0.000113746
0 -0.0149638 0.00384024 0.0281613 -0.00991244 -0.000226296
-9.41148e-22 0.0149638 0.00384027 -0.000749328 0.000261725 -3.38848e-06
-6.77626e-21 0.0154552 2.28099e-16 0 0 0
-6.77626e-21 -0.0154554 2.28503e-16 0 0 0
0 -0.0148468 0.00430527 0 0 0
6.77626e-21 0.0148469 0.00430529 0 0 0
0 0.0154606 0.00140664 -0.0014276 0.000511439 -6.63857e-05
-2.71051e-20 -0.0154606 0.00140663 0.0620879 -0.0228348 -0.000210768
2.71051e-20 -0.0152777 0.00281385 0.0718286 -0.0260736 -0.000629741
0 0.0152777 0.00281386 -0.00181079 0.000648779 -2.44679e-05
2.71051e-20 0.0154333 0.00193355 -0.00177774 0.000639101 -4.91227e-05
-2.71051e-20 -0.0154333 0.00193355 0.0718348 -0.0264829 -0.000347929
0 0.0156222 0.00048004 -5.18234e-05 2.77449e-05 3.57529e-05
-2.71051e-20 -0.0156222 0.000480036 0.0247445 -0.00995949 -0.000422268
2.71051e-20 -0.0152555 0.00350076 0.0546115 -0.0193132 -0.000836028
2.71051e-20 0.0152556 0.00350079 -0.00141606 0.000500983 -1.94398e-05
-1.35525e-20 -0.0150546 0.00445233 0 0 0
6.77626e-21 0.0150547 0.00445239 0 0 0
0 0.0157269 1.65675e-16 0 0 0
6.77626e-21 -0.0157276 1.66089e-16 0 0 0
8.47033e-22 -0.0151604 0.00422301 0.0185799 -0.0063819 9.32051e-05
2.82344e-22 0.0151605 0.00422311 -0.000509975 0.000163748 4.02347e-06
1.35525e-20 0.0156637 0.00166709 -0.0016512 0.000597967 -6.00047e-05
1.35525e-20 -0.0156637 0.00166709 0.0680368 -0.0250914 -0.000282818
-3.38813e-22 -0.015616 0.00242546 0.0754793 -0.0275554 -0.000558184
3.38813e-22 0.015616 0.00242547 -0.00194437 0.000692818 -3.99717e-05
-5.64689e-22 0.0157781 0.000921737 -0.000706684 0.000261306 -1.97644e-05
7.52918e-22 -0.0157782 0.000921692 0.0424015 -0.0160667 -0.000249333
5.64689e-22 -0.0155828 0.00315318 0.0703226 -0.0252819 -0.000812291
-5.64689e-22 0.0155828 0.00315319 -0.00183704 0.000647187 -2.96394e-05
6.77626e-21 -0.0152441 0.00458644 0 0 0
0 0.0152443 0.00458654 0 0 0
-6.77626e-21 0.0159533 3.83645e-05 -5.52888e-07 2.57831e-07 8.22832e-07
-6.77626e-21 -0.0159534 3.82981e-05 0.00220191 -0.000834898 -2.31014e-05
2.71051e-20 0.015843 0.00192285 -0.00191478 0.000687698 -5.75251e-05
2.71051e-20 -0.015843 0.00192286 0.0742522 -0.0272394 -0.000416176
0 0.0159594 2.87839e-17 0 0 0
-6.77626e-21 -0.0159594 2.84889e-17 0 0 0
-2.71051e-20 0.0159064 0.00142308 -0.00150003 0.000556327 -6.58824e-05
2.71051e-20 -0.0159064 0.00142306 0.0641013 -0.0238705 -0.000192243
-1.12938e-21 -0.0155142 0.00388452 0.0455905 -0.016003 -0.000589393
0 0.0155142 0.00388456 -0.00121217 0.000421708 -1.49971e-05
-1.35525e-20 -0.0153266 0.00464478 0 0 0
0 0.0153267 0.00464485 0 0 0
0 -0.01535 0.0046163 0.00289374 -0.00105647 7.47288e-05
-1.35525e-20 0.0153501 0.00461639 -7.70788e-05 2.69312e-05 1.92887e-06
0 -0.0153665 0.00467306 0 0 0
-1.35525e-20 0.0153666 0.00467311 0 0 0
-2.71051e-20 0.0160927 0.000505085 -2.93467e-05 8.8244e-06 1.94285e-05
0 -0.0160928 0.000505072 0.0278178 -0.0110403 -0.000320484
-6.77626e-21 -0.0154309 0.00471863 0 0 0
1.35525e-20 0.015431 0.00471864 0 0 0
6.77626e-21 -0.0161373 9.11538e-18 0 0 0
0 0.0161376 9.31637e-18 0 0 0
-1.35525e-20 -0.0154622 0.00464659 0.00613333 -0.00195193 -0.000115524
0 0.0154622 0.00464666 -0.000166324 5.54416e-05 -3.04769e-06
-7.05861e-22 -0.0155558 0.00433293 0.0279541 -0.00966755 -0.000235273
2.82344e-22 0.0155559 0.00433296 -0.000749274 0.00025822 -5.6016e-06
0 -0.0159329 0.00276854 0.0826704 -0.0301143 -0.000749802
0 0.0159329 0.00276855 -0.00220991 0.000774581 -4.38253e-05
5.42101e-20 -0.015876 0.00349495 0.0725392 -0.0257796 -0.00102944
0 0.015876 0.00349497 -0.00192343 0.000668553 -3.16553e-05
2.82344e-22 -0.0163022 0.00169287 0.0708821 -0.026245 -0.000231878
1.41172e-22 0.0163022 0.00169287 -0.00184294 0.000669227 -4.8437e-05
5.42101e-20 -0.0158805 0.00413133 0.051135 -0.017887 -0.000793052
-2.71051e-20 0.0158806 0.00413135 -0.00134717 0.000470213 -2.28318e-05
-2.71051e-20 -0.0157464 0.00463062 0.0207745 -0.00686477 -0.000300052
2.71051e-20 0.0157465 0.00463067 -0.000545049 0.000185739 -8.63326e-06
-1.35525e-20 -0.0156844 0.004898 0 0 0
-1.35525e-20 0.0156845 0.0048981 0 0 0
0 -0.0164403 0.000192195 0.0104215 -0.00420516 -0.000124079
0 0.0164404 0.000192073 -1.41236e-05 4.08498e-06 8.54264e-06
-1.35525e-20 -0.0164599 2.18737e-18 0 0 0
1.35525e-20 0.0164599 2.23707e-18 0 0 0
1.12938e-21 -0.0163055 0.00229239 0.0812376 -0.0297626 -0.000503778
0 0.0163055 0.00229239 -0.00222518 0.000786815 -4.1938e-05
0 -0.0157621 0.0048391 0.007418 -0.00236077 -0.000139721
1.35525e-20 0.0157621 0.00483922 -0.000201179 6.70602e-05 -3.68638e-06
0 -0.0164587 0.00103727 0.0486873 -0.0184562 -0.000174217
6.77626e-21 0.0164587 0.00103728 -0.000886553 0.000321142 -1.80755e-05
1.12938e-22 -0.0162201 0.00310503 0.0830866 -0.0299992 -0.000751872
3.38813e-22 0.0162201 0.00310505 -0.00228358 0.000795393 -4.0097e-05
-2.71051e-20 -0.0157673 0.00495663 0 0 0
0 0.0157673 0.00495668 0 0 0
1.35525e-20 0.0165552 1.89118e-18 0 0 0
1.35525e-20 -0.0165552 1.82985e-18 0 0 0
1.35525e-20 0.0158425 0.00500991 0 0 0
-1.35525e-20 -0.0158425 0.00500989 0 0 0
0 0.0158774 0.00492677 -0.00020305 7.47907e-05 -1.26069e-06
0 -0.0158775 0.00492671 0.0073697 -0.00236428 -6.8211e-05
-2.25875e-21 -0.0161858 0.00381853 0.0708033 -0.0250766 -0.000827258
5.64689e-22 0.0161859 0.00381855 -0.00190603 0.0006581 -3.23307e-05
0 0.0166929 0.000101665 -1.28205e-06 -8.85023e-08 -4.31947e-07
1.35525e-20 -0.0166931 0.000101735 0.00605886 -0.00242399 7.78097e-06
-1.35525e-20 0.0166941 -1.9757e-18 0 0 0
1.35525e-20 -0.0166943 -1.99904e-18 0 0 0
9.03502e-22 -0.0161388 0.00451629 0.0408123 -0.0140856 -0.000444191
-1.12938e-21 0.0161388 0.00451633 -0.00108636 0.000373788 -1.56714e-05
0 -0.0165511 0.0027628 0.0898183 -0.032817 -0.000548283
0 0.0165511 0.0027628 -0.00255713 0.000894483 -3.99547e-05
2.71051e-20 -0.0160804 0.00488839 0.0188562 -0.0059501 -2.25041e-05
0 0.0160804 0.00488844 -0.000534003 0.000191761 -1.6724e-06
-5.42101e-20 -0.0165195 0.00345964 0.087407 -0.0312172 -0.000745813
-2.71051e-20 0.0165195 0.00345965 -0.00244712 0.000842613 -4.41428e-05
0 -0.0160927 0.00518691 0 0 0
0 0.0160929 0.00518705 0 0 0
0 -0.0161328 0.00514885 0.00453645 -0.00145534 -4.19876e-05
0 0.0161329 0.00514907 -0.00012482 4.59757e-05 -7.74975e-07
6.77626e-21 -0.0161376 0.0052187 0 0 0
6.77626e-21 0.0161377 0.00521878 0 0 0
-2.71051e-20 -0.0164852 0.00415081 0.0734706 -0.0259146 -0.00073768
0 0.0164853 0.00415084 -0.00194844 0.000665284 -3.15339e-05
-6.77626e-21 -0.0161812 0.00524952 0 0 0
-6.77626e-21 0.0161812 0.00524953 0 0 0
-6.77626e-21 -0.0162 0.00521518 0.00396513 -0.00145697 -3.23542e-05
0 0.0162 0.00521526 -9.27943e-05 3.21145e-05 -1.72667e-06
0 0.0169483 0.00175217 -0.00215395 0.000772123 -1.91478e-05
-5.42101e-20 -0.0169483 0.00175217 0.07483 -0.027809 -0.000138586
-1.41172e-22 0.0168946 0.00247379 -0.00261882 0.000922629 -3.8982e-05
-2.82344e-22 -0.0168959 0.00247492 0.087775 -0.0321423 -0.000367776
0 0.0170685 0.000542394 -8.79414e-05 2.17848e-05 -2.54097e-06
-5.42101e-20 -0.0170686 0.000542393 0.0327482 -0.0128382 -4.43456e-05
-5.64689e-22 -0.016348 0.00494369 0.0288791 -0.00995775 -0.000103686
1.41172e-22 0.0163681 0.00495112 -0.000789362 0.00026956 -7.09246e-06
8.47033e-22 -0.0168537 0.00309992 0.0919067 -0.0332368 -0.000470941
-2.82344e-22 0.0168537 0.00309993 -0.00271944 0.000946489 -4.80948e-05
0 -0.0165271 0.00473647 0.0483694 -0.0168778 -0.000523354
-2.71051e-20 0.0165271 0.0047365 -0.00128261 0.000431312 -1.77065e-05
5.64689e-22 -0.0168198 0.00379489 0.0875743 -0.0312247 -0.000488014
0 0.0168198 0.00379489 -0.00248927 0.000854609 -4.63941e-05
0 -0.0164532 0.00518907 0.0201323 -0.00732405 0.000212469
0 0.0164532 0.0051891 -0.000490887 0.000167873 -9.17345e-08
-1.35525e-20 -0.0164986 0.00547411 0 0 0
1.35525e-20 0.0164987 0.0054742 0 0 0
0 -0.0168074 0.0044544 0.0709885 -0.0251133 -0.00049858
-3.38813e-21 0.0168075 0.00445442 -0.00191753 0.000651194 -3.39018e-05
1.35525e-20 -0.0165401 0.00543882 0.00537744 -0.00197591 -4.38782e-05
1.35525e-20 0.0165402 0.00543896 -0.000125925 4.35805e-05 -2.34314e-06
2.71051e-20 0.0171982 0.00274291 -0.00293295 0.00103305 -4.83889e-05
-2.71051e-20 -0.0171982 0.00274291 0.0928624 -0.0338947 -0.000316924
0 -0.0165562 0.00551488 0 0 0
0 0.0165562 0.0055149 0 0 0
0 -0.0171475 0.00343443 0.0972896 -0.0349239 -0.000285334
5.42101e-20 0.0171475 0.00343443 -0.00293444 0.0010138 -5.97041e-05
0 0.0165954 0.00554259 0 0 0
-1.35525e-20 -0.0165954 0.00554261 0 0 0
0 0.0166162 0.00550295 -0.000109294 3.67747e-05 -1.94101e-07
-1.35525e-20 -0.0166162 0.00550291 0.00363513 -0.00122176 0.000102753
8.47033e-23 -0.0167942 0.00511228 0.03894 -0.0137019 -2.27975e-05
-6.27432e-22 0.0168034 0.00511576 -0.00103868 0.000345398 -1.27185e-05
0 0.0166838 0.00560512 0 0 0
-6.77626e-21 -0.0166839 0.00560521 0 0 0
-5.42101e-20 -0.0171381 0.00410853 0.0918923 -0.0327544 -0.000189078
0 0.0171382 0.00410853 -0.00262114 0.000894813 -5.01188e-05
6.77626e-21 -0.0176356 5.15747e-05 0.00307156 -0.00122885 3.94459e-06
-6.77626e-21 0.0176356 5.15594e-05 -6.50192e-07 -4.48841e-08 -2.19062e-07
0 -0.0176365 -8.88394e-19 0 0 0
0 0.0176365 -8.80501e-19 0 0 0
-1.12938e-21 -0.0176257 0.00114318 0.0549835 -0.0206225 -2.67058e-05
0 0.0176257 0.00114318 -0.00128567 0.000466942 -1.05495e-05
-6.77626e-21 0.017701 -1.17471e-20 0 0 0
0 -0.017701 -1.19998e-20 0 0 0
0 0.0177564 5.70206e-05 -3.21368e-05 1.33437e-05 1.17884e-06
6.77626e-21 -0.0177564 5.70366e-05 0.00356776 -0.00139845 6.9606e-07
0 -0.0174948 0.00304299 0.0951323 -0.0343748 -2.72635e-05
-7.05861e-23 0.0174948 0.003043 -0.00306927 0.00107534 -5.60126e-05
-2.71051e-20 -0.0171005 0.00478727 0.0732445 -0.0260049 -0.000516901
2.71051e-20 0.0171005 0.00478729 -0.00190993 0.000644772 -3.83725e-05
0 0.01776 -9.77488e-21 0 0 0
0 -0.01776 -9.99454e-21 0 0 0
-5.64689e-22 -0.0176226 0.00231708 0.086878 -0.031667 5.5077e-05
0 0.0176226 0.00231708 -0.00283241 0.00100716 -4.17782e-05
6.77626e-21 -0.016865 0.00573336 0 0 0
1.35525e-20 0.0168651 0.00573338 0 0 0
-1.12938e-21 -0.0169917 0.00554745 0.0242712 -0.00850316 0.000565297
0 0.0169918 0.00554746 -0.000629968 0.00019151 3.23887e-06
0 -0.0175404 0.00368248 0.0981739 -0.0351638 0.000165172
1.12938e-21 0.0175404 0.00368248 -0.00304338 0.00104806 -6.12501e-05
-5.64689e-22 -0.0174309 0.00445116 0.0910122 -0.032489 6.50954e-05
5.64689e-22 0.0174309 0.00445117 -0.00259584 0.000880326 -5.28291e-05
1.35525e-20 -0.0170276 0.00584842 0 0 0
0 0.0170278 0.0058485 0 0 0
-3.38813e-21 -0.0173594 0.00515914 0.0623353 -0.0221882 8.90572e-05
2.25875e-21 0.0173594 0.00515917 -0.00166149 0.000553574 -3.06563e-05
1.35525e-20 -0.0171315 0.00592198 0 0 0
0 0.0171316 0.00592202 0 0 0
-1.35525e-20 -0.0171628 0.0058861 0.00529384 -0.00201614 0.000267201
2.71051e-20 0.0171629 0.00588616 -0.000128737 4.36177e-05 3.28774e-06
0 -0.0171821 0.00595789 0 0 0
-1.35525e-20 0.0171822 0.00595791 0 0 0
2.71051e-20 -0.017769 0.00410415 0.103682 -0.0372194 0.000576179
0 0.017769 0.00410415 -0.00320614 0.00109296 -6.75214e-05
-5.42101e-20 -0.0182634 0.000578943 0.0365349 -0.0141677 -2.68777e-05
-1.0842e-19 0.0182634 0.000578939 -0.000382989 0.000157587 5.49488e-06
0 0.0173972 0.0056105 -0.00102073 0.000337402 -1.40917e-05
0 -0.0173983 0.00561199 0.039778 -0.0142838 0.000376553
0 -0.0172648 0.00601707 0 0 0
0 0.0172648 0.00601705 0 0 0
-1.35525e-20 -0.0173077 0.00592609 0.0113525 -0.00412275 0.000237065