# U  POINT_DATA 31572
# x  y  z  U_x  U_y  U_z
0.0292381 0 8.09214e-08 0 0 0
-0.0292381 0 8.09214e-08 0 0 0
0.0292381 -3.38813e-21 0.000233596 0 0 0
-0.0292381 3.38813e-21 0.000233441 0 0 0
0.029238 -3.38813e-21 0.000431066 0 0 0
-0.0292381 0 0.000430751 0 0 0
0.029238 -1.35525e-20 0.000664138 0 0 0
-0.029238 -6.77626e-21 0.000663676 0 0 0
0.029238 -3.38813e-21 0.000908366 0 0 0
-0.029238 0 0.000907922 0 0 0
-0.029238 -3.38813e-21 0.00111494 0 0 0
0.029238 3.38813e-21 0.00111544 0 0 0
-0.029238 0 0.00135903 0 0 0
0.0292379 0 0.00135951 0 0 0
-0.0292379 -3.38813e-21 0.00161391 0 0 0
0.0292379 0 0.00161421 0 0 0
-0.0292379 3.38813e-21 0.00183185 0 0 0
0.0292379 3.38813e-21 0.00183203 0 0 0
0.0292379 1.35525e-20 0.002087 0 0 0
-0.0292379 -1.35525e-20 0.002087 0 0 0
-0.0293159 -1.01644e-20 0.000332812 0.00042159 -0.000154098 -1.11997e-07
0.0293159 1.69407e-20 0.000333044 -1.35997e-06 4.17685e-07 5.2951e-08
-0.0293201 -3.38813e-21 0.00100457 0.000904013 -0.000355125 6.41164e-06
0.0293201 1.35525e-20 0.00100504 -6.073e-06 2.25353e-06 -6.7648e-08
-0.0293199 0 0.0017002 0.000846732 -0.000341124 4.12209e-05
0.0293199 3.38813e-21 0.00170046 -6.1199e-06 2.24152e-06 1.16317e-07
-0.0294721 0 0.000122211 0.00126745 -0.000463273 -3.36704e-07
0.0294722 1.35525e-20 0.000122307 -4.08853e-06 1.2557e-06 1.59189e-07
-0.0294728 0 7.47975e-08 0 0 0
0.0294728 0 7.47971e-08 0 0 0
-0.0294797 1.35525e-20 0.000527785 0.00130794 -0.000478071 -3.4746e-07
0.0294797 -1.35525e-20 0.000528144 -4.21921e-06 1.29584e-06 1.64277e-07
-0.0294753 -1.35525e-20 0.000796291 0.00261095 -0.00102566 1.8518e-05
0.0294753 1.35525e-20 0.000796753 -1.75374e-05 6.50766e-06 -1.95352e-07
-0.0294755 2.03288e-20 0.00118666 0.00261487 -0.00102721 1.85458e-05
0.0294755 0 0.00118714 -1.7564e-05 6.51753e-06 -1.95648e-07
-0.0294683 -1.35525e-20 0.00147414 0.0023799 -0.000958791 0.000115859
0.0294683 -1.35525e-20 0.00147454 -1.71998e-05 6.29973e-06 3.26906e-07
-0.0294625 -6.77626e-21 0.00186309 0.00232063 -0.000934913 0.000112974
0.0294626 -6.77626e-21 0.00186328 -1.67709e-05 6.14265e-06 3.18755e-07
-0.029578 1.35525e-20 6.64178e-08 0 0 0
0.029578 0 6.64171e-08 0 0 0
-0.0295009 -1.35525e-20 0.00213468 0 0 0
0.0295009 6.77626e-21 0.00213468 0 0 0
-0.029587 1.35525e-20 0.000650836 0.00270233 -0.00100889 2.48509e-05
0.0295871 -2.71051e-20 0.00065131 -1.34579e-05 4.83318e-06 -7.57982e-08
-0.0295378 1.35525e-20 0.00203786 0.00185921 -0.000819759 8.65796e-05
0.0295378 1.35525e-20 0.00203793 -1.32108e-05 5.43769e-06 9.43056e-07
-0.029584 -2.71051e-20 0.00130565 0.0037608 -0.00143095 4.76421e-05
0.0295841 0 0.00130618 -2.54599e-05 8.58293e-06 -9.53533e-08
-0.0295849 -1.35525e-20 0.00192058 0.00319682 -0.00123736 4.93618e-05
0.0295849 6.77626e-21 0.00192076 -2.23177e-05 7.79659e-06 4.43129e-07
0.029649 0 0.00216152 0 0 0
-0.029649 0 0.00216152 0 0 0
-0.0297926 4.51751e-22 0.000963661 0.00560569 -0.00196121 0.000119284
0.0297927 1.807e-21 0.000964146 -3.61263e-05 1.20079e-05 2.49004e-07
-0.0298093 -1.35525e-20 7.62609e-08 0 0 0
0.0298093 -2.71051e-20 7.62598e-08 0 0 0
-0.0298204 9.03502e-22 0.000317447 0.00296819 -0.00103745 4.27431e-05
0.0298205 1.12938e-21 0.000317662 -1.07766e-05 3.72736e-06 2.39747e-07
-0.0297852 -4.51751e-22 0.00156826 0.00532154 -0.00189012 -1.81657e-05
0.0297852 1.807e-21 0.00156862 -3.71858e-05 1.22727e-05 1.39006e-07
-0.0297946 5.0822e-21 0.00197115 0.00360627 -0.00131779 -6.26093e-06
0.0297946 3.38813e-21 0.0019713 -2.4227e-05 8.42754e-06 5.79386e-07
-0.029885 -3.38813e-21 8.57338e-08 0 0 0
0.0298851 -3.38813e-21 8.5738e-08 0 0 0
0.0298185 -6.77626e-21 0.00219226 0 0 0
-0.0298186 -2.71051e-20 0.00219226 0 0 0
-0.0299229 0 0.00221118 0 0 0
0.0299229 -1.35525e-20 0.00221118 0 0 0
-0.0300582 0 1.01023e-07 0 0 0
0.0300583 0 1.01025e-07 0 0 0
-0.030042 0 0.00125419 0.00784284 -0.00287264 2.25046e-06
0.0300421 -9.03502e-21 0.00125463 -5.07979e-05 1.6578e-05 -3.44308e-07
-0.030023 7.7443e-21 0.00171052 0.00690925 -0.00250313 -6.02157e-05
0.0300231 -4.84019e-21 0.0017108 -4.68407e-05 1.52123e-05 -3.28687e-07
-0.0300766 0 0.00065666 0.00634074 -0.00225231 3.01513e-05
0.0300767 4.51751e-21 0.000657051 -3.15091e-05 1.04374e-05 1.39333e-07
-0.0301411 -6.77626e-21 0.000117994 0.00115999 -0.00043435 -1.42739e-05
0.0301411 6.77626e-21 0.000117999 -3.47514e-06 1.21501e-06 -3.7874e-09
-0.030143 0 9.36904e-08 0 0 0
0.0301431 0 9.3697e-08 0 0 0
-0.0300722 1.35525e-20 0.00223823 0 0 0
0.0300722 -1.35525e-20 0.00223824 0 0 0
-0.0302709 -1.35525e-20 0.000327812 0.00433417 -0.00158241 -2.19477e-05
0.0302709 0 0.000327976 -9.03317e-06 3.00343e-06 -5.70933e-08
-0.0302588 0 0.000959195 0.00876508 -0.00324075 -4.62585e-05
0.0302588 0 0.000959517 -5.12701e-05 1.62215e-05 -1.66685e-07
-0.0302233 -2.25875e-21 0.00199374 0.00560972 -0.00220023 -4.23052e-05
0.0302233 -1.12938e-21 0.00199386 -3.67974e-05 1.03946e-05 -8.89329e-07
-0.0302513 0 0.00155258 0.00857852 -0.00319123 -5.89012e-05
0.0302514 0 0.00155284 -5.74788e-05 1.73949e-05 -1.29633e-06
0.0303944 -1.01644e-20 0.00229663 0 0 0
-0.0303944 0 0.00229664 0 0 0
-0.0305071 -3.38813e-21 4.03686e-05 0.000396903 -0.000148617 -4.88395e-06
0.0305071 3.38813e-21 4.03653e-05 -1.1889e-06 4.15675e-07 -1.29573e-09
-0.0305084 0 2.78813e-08 0 0 0
0.0305085 0 2.78788e-08 0 0 0
-0.0305355 0 2.44807e-08 0 0 0
0.0305355 -3.38813e-21 2.44807e-08 0 0 0
0.030464 0 0.00230926 0 0 0
-0.030464 3.38813e-20 0.00230926 0 0 0
0.0305559 -3.38813e-21 2.5605e-08 0 0 0
-0.0305559 0 2.56056e-08 0 0 0
0.0305566 0 2.16951e-05 -6.08994e-07 2.36522e-07 3.62488e-08
-0.0305566 0 2.17024e-05 0.000240552 -9.38097e-05 3.478e-07
-0.0305496 7.05861e-23 0.00065626 0.00786724 -0.00288573 -4.19886e-05
0.0305496 -1.41172e-22 0.000656486 -3.31779e-05 1.03439e-05 2.46934e-07
-0.0305132 0 0.00170668 0.00925195 -0.00341601 4.23499e-06
0.0305132 3.76459e-22 0.00170684 -5.61078e-05 1.65797e-05 -1.35712e-06
-0.0305476 -1.12938e-22 0.00124506 0.0107285 -0.00392935 -3.66812e-05
0.0305476 -2.25875e-22 0.00124529 -6.13107e-05 1.85326e-05 -5.99741e-07
-0.030501 -6.77626e-21 0.00231596 0 0 0
0.030501 0 0.00231596 0 0 0
0.0306237 0 3.57389e-08 0 0 0
-0.0306238 0 3.5746e-08 0 0 0
-0.0306099 0 0.0021928 0.00332793 -0.00120037 7.62772e-05
0.03061 0 0.00219279 -1.76425e-05 5.23269e-06 -5.43058e-07
-0.0307225 -3.38813e-21 0.00235612 0 0 0
0.0307226 0 0.00235614 0 0 0
-0.0308383 2.71051e-20 0.000320901 0.00556464 -0.00205146 -5.61795e-05
0.0308383 5.42101e-20 0.000320968 -8.14944e-06 2.64124e-06 3.96547e-07
-0.0308116 -2.25875e-21 0.00198356 0.00855633 -0.00311651 0.000142998
0.0308116 1.12938e-21 0.00198362 -4.71405e-05 1.33827e-05 -1.55584e-06
-0.0309907 0 0.0010195 0.0134895 -0.00496056 -3.47973e-05
0.0309907 -2.71051e-21 0.00101961 -6.42322e-05 1.82562e-05 6.66288e-07
-0.0309922 0 0.00150595 0.0139602 -0.00512247 5.55228e-05
0.0309922 4.51751e-21 0.00150605 -7.40394e-05 2.00014e-05 -1.87785e-06
-0.0310394 0 9.17162e-08 0 0 0
0.0310395 0 9.17132e-08 0 0 0
-0.0310415 0 0.000119361 0.00262896 -0.000947972 -3.80318e-05
0.0310416 0 0.000119404 -2.7868e-06 7.4109e-07 1.08208e-07
-0.030965 0 0.00240008 0 0 0
0.030965 0 0.00240009 0 0 0
-0.030982 0 0.00237269 0.000930811 -0.000358337 2.28981e-05
0.030982 0 0.00237271 -6.1398e-06 1.60881e-06 -3.64643e-07
0.0310104 6.77626e-21 0.00240832 0 0 0
-0.0310104 -6.77626e-21 0.00240832 0 0 0
0.0310179 6.77626e-21 0.00233587 -9.47897e-06 1.93447e-06 -5.3389e-07
-0.0310179 6.77626e-21 0.00233584 0.00174393 -0.000638291 7.05099e-06
-0.0311223 9.03502e-21 0.000639224 0.0102493 -0.00386206 -2.8312e-05
0.0311223 -9.03502e-21 0.000639291 -3.68865e-05 1.03569e-05 5.39831e-07
0.0310526 6.77626e-21 0.00237692 -7.06623e-06 1.62924e-06 -4.94896e-07
-0.0310526 6.77626e-21 0.00237691 0.00129999 -0.000492883 2.1895e-05
-0.0311458 1.35525e-20 9.71539e-08 0 0 0
0.0311459 0 9.71521e-08 0 0 0
0.031071 0 0.00241931 0 0 0
-0.0310711 6.77626e-21 0.00241931 0 0 0
-0.0312091 -2.71051e-20 0.00177609 0.0125967 -0.00478157 0.000161735
0.0312091 -2.71051e-20 0.00177613 -6.40201e-05 1.52853e-05 -2.30775e-06
-0.0312491 0 0.00122869 0.0150889 -0.00570679 6.92542e-05
0.0312491 0 0.00122876 -7.074e-05 1.74637e-05 -9.2044e-07
-0.0312857 0 8.40765e-08 0 0 0
0.0312858 -1.35525e-20 8.4069e-08 0 0 0
-0.0312916 0 0.000133791 0.00330705 -0.00125172 2.31365e-05
0.0312917 1.35525e-20 0.000133817 -3.27059e-06 8.22897e-07 1.15648e-07
-0.0313889 9.03502e-21 0.00201496 0.0115887 -0.00414313 0.000117108
0.0313889 2.25875e-21 0.00201499 -5.60048e-05 1.254e-05 -2.41618e-06
-0.0313958 6.77626e-21 0.00247818 0 0 0
0.0313958 0 0.00247818 0 0 0
-0.0314932 0 0.00040878 0.00825915 -0.00314871 4.85354e-05
0.0314932 0 0.000408784 -1.70028e-05 4.80657e-06 2.56255e-07
-0.0315059 0 0.000915866 0.0153925 -0.00577638 7.7581e-05
0.0315059 -6.77626e-21 0.000915906 -6.34116e-05 1.60288e-05 1.28483e-06
-0.0314281 0 0.00241762 0.00221016 -0.000837971 3.72246e-05
0.0314281 0 0.00241764 -1.2014e-05 2.77004e-06 -8.41424e-07
-0.0315016 0 0.00151814 0.0169739 -0.00633187 1.95016e-05
0.0315016 1.12938e-20 0.00151817 -7.97024e-05 1.89162e-05 -2.94255e-06
0.0314986 -1.35525e-20 0.00234883 -1.70744e-05 2.32326e-06 -1.26963e-06
-0.0314986 -1.35525e-20 0.00234879 0.00371807 -0.00135947 -3.85463e-07
0.0315086 0 0.00249863 0 0 0
-0.0315086 2.71051e-20 0.00249863 0 0 0
0.0316957 1.35525e-20 0.0001271 -3.10803e-06 7.81997e-07 1.099e-07
-0.0316957 0 0.000127012 0.0031411 -0.00118891 2.19754e-05
0.0316993 0 1.28441e-08 0 0 0
-0.0316993 0 1.28327e-08 0 0 0
-0.0317724 0 0.000610883 0.0121998 -0.00454951 6.12239e-05
0.0317724 2.71051e-20 0.000610893 -3.71902e-05 9.03007e-06 4.68688e-07
-0.0317679 0 0.00121729 0.017731 -0.00663627 4.35344e-05
0.0317679 0 0.0012173 -7.27607e-05 1.56429e-05 -1.55977e-06
-0.0317537 0 0.00187022 0.0147464 -0.00548646 4.45429e-05
0.0317537 2.71051e-20 0.00187023 -6.53535e-05 1.19179e-05 -3.55801e-06
0.0317093 2.71051e-20 0.00253502 0 0 0
-0.0317093 -2.71051e-20 0.00253502 0 0 0
-0.0318341 -1.35525e-20 3.55262e-10 0 0 0
0.0318342 1.35525e-20 3.5768e-10 0 0 0
0.0317532 -1.8823e-22 0.00228382 -4.20855e-05 6.7735e-06 -2.49944e-06
-0.0317532 -3.76459e-22 0.00228381 0.0088399 -0.00309521 0.00012396
-0.0319513 -1.35525e-20 4.55429e-10 0 0 0
0.0319515 1.35525e-20 4.57735e-10 0 0 0
-0.0319524 1.35525e-20 0.000127633 0.00355073 -0.00134655 2.42275e-05
0.0319526 0 0.000127717 -3.13052e-06 7.43746e-07 1.25635e-07
-0.0318828 0 0.00256647 0 0 0
0.0318828 0 0.00256647 0 0 0
-0.0319995 4.51751e-21 0.0009146 0.0177345 -0.00657338 3.56897e-05
0.0319996 4.51751e-21 0.000914606 -6.27859e-05 1.44031e-05 5.41412e-07
-0.0320112 0 0.000400505 0.00906856 -0.00340787 5.65799e-05
0.0320112 0 0.0004005 -1.54966e-05 4.13245e-06 2.96753e-07
0.0320267 -2.25875e-21 0.00227705 -4.31793e-05 5.75192e-06 -3.54449e-06
-0.0320267 -1.12938e-21 0.00227704 0.00984479 -0.0036042 0.000115454
0.0320296 0 0.00251382 -1.22992e-05 8.74178e-07 -1.42065e-06
-0.0320296 -2.71051e-20 0.00251381 0.00298023 -0.00100458 3.15121e-05
-0.0320975 2.25875e-21 0.00153739 0.0203749 -0.0075259 -9.78519e-05
0.0320975 -2.25875e-21 0.0015374 -7.99914e-05 1.45847e-05 -4.59602e-06
-0.0320427 1.35525e-20 0.00259543 0 0 0
0.0320427 -6.77626e-21 0.00259544 0 0 0
-0.0321203 -4.51751e-21 0.00203437 0.0150664 -0.0055937 7.08232e-05
0.0321203 0 0.00203437 -6.15063e-05 7.35736e-06 -5.15275e-06
-0.032135 0 0.00238954 0.00721361 -0.00263748 0.000145528
0.032135 0 0.00238955 -3.16741e-05 4.35045e-06 -3.06916e-06
0.0322923 1.35525e-20 0.000126387 -3.09789e-06 7.35993e-07 1.24326e-07
-0.0322923 1.35525e-20 0.000126365 0.00351541 -0.00133316 2.39865e-05
0.0323016 1.35525e-20 2.23457e-09 0 0 0
-0.0323016 -1.35525e-20 2.23356e-09 0 0 0
-0.0322103 -6.77626e-21 0.00262582 0 0 0
0.0322103 1.35525e-20 0.00262583 0 0 0
-0.0322717 0 0.00254335 0.00352022 -0.0011866 3.72219e-05
0.0322718 -1.35525e-20 0.00254336 -1.4528e-05 1.03259e-06 -1.67809e-06
-0.032418 0 2.33101e-09 0 0 0
0.032418 -1.35525e-20 2.33195e-09 0 0 0
-0.0324263 2.25875e-21 0.000612604 0.0143877 -0.00528555 -3.27064e-05
0.0324263 -4.51751e-21 0.000612601 -3.493e-05 5.86963e-06 3.48977e-07
-0.0324222 -1.807e-20 0.00112452 0.0211456 -0.00773597 -5.11799e-05
0.0324222 -4.51751e-21 0.00112451 -6.67585e-05 1.00969e-05 -1.43692e-06
-0.032412 0 0.00187553 0.0185954 -0.00684022 1.32693e-05
0.0324121 5.42101e-20 0.00187553 -6.64089e-05 5.35415e-06 -6.76372e-06
-0.0323801 0 0.0026566 0 0 0
0.0323802 -1.35525e-20 0.00265661 0 0 0
-0.0324113 1.69407e-21 0.00229689 0.0114048 -0.00419372 9.4e-05
0.0324113 1.12938e-21 0.0022969 -4.22762e-05 3.26123e-06 -5.2854e-06
-0.032547 1.35525e-20 2.20754e-09 0 0 0
0.032547 -1.35525e-20 2.20837e-09 0 0 0
-0.0325489 0 0.000125731 0.00377339 -0.00139832 -3.24729e-05
0.0325489 0 0.00012575 -3.19939e-06 3.46311e-07 1.9175e-07
-0.0326035 -6.77626e-21 0.00269705 0 0 0
0.0326035 -6.77626e-21 0.00269706 0 0 0
-0.032737 2.71051e-20 0.00030837 0.00859901 -0.00316703 -8.5198e-05
0.032737 0 0.000308358 -7.80839e-06 1.00968e-06 4.7485e-07
-0.0327282 -2.25875e-21 0.00154832 0.0241482 -0.00880645 -7.93124e-06
0.0327282 6.77626e-21 0.00154831 -7.07035e-05 3.92172e-06 -6.65467e-06
-0.0326737 -9.03502e-21 0.00254228 0.00640548 -0.00226984 -2.6199e-05
0.0326738 -9.03502e-21 0.00254228 -2.0245e-05 3.43526e-07 -3.51887e-06
-0.0327075 -1.35525e-20 0.00206775 0.0180873 -0.00665204 9.69968e-05
0.0327075 -4.51751e-21 0.00206775 -5.70579e-05 9.43177e-07 -8.85514e-06
-0.032708 -2.71051e-20 0.002716 0 0 0
0.0327081 0 0.00271601 0 0 0
-0.0328421 -9.03502e-21 0.000917741 0.0215286 -0.00785453 -8.22095e-05
0.0328421 0 0.000917735 -5.33684e-05 4.0603e-06 -8.41618e-07
-0.0328866 0 1.93643e-09 0 0 0
0.0328867 0 1.93682e-09 0 0 0
-0.032889 0 0.000149427 0.00448456 -0.00166187 -3.85931e-05
0.032889 1.35525e-20 0.000149442 -3.80217e-06 4.11559e-07 2.27877e-07
-0.0329824 -7.7443e-21 0.000542132 0.0133483 -0.00489465 -4.36351e-05
0.0329824 5.80823e-21 0.00054211 -2.18074e-05 9.53373e-07 3.50478e-08
-0.0330371 -2.71051e-20 1.79015e-09 0 0 0
0.0330372 -1.35525e-20 1.79044e-09 0 0 0
-0.0329464 0 0.00275916 0 0 0
0.0329464 0 0.00275917 0 0 0
-0.0329864 3.38813e-22 0.00235373 0.0137814 -0.00510472 7.48375e-05
0.0329864 -1.12938e-22 0.00235373 -3.781e-05 -2.48356e-06 -7.67962e-06
-0.0330505 -2.71051e-20 0.00123121 0.0246773 -0.00898753 -3.03785e-05
0.0330505 0 0.00123119 -5.92864e-05 -1.1585e-06 -4.98295e-06
-0.03302 -2.71051e-20 0.00190069 0.0218748 -0.00798524 3.13263e-05
0.03302 2.71051e-20 0.00190069 -5.76484e-05 -4.6138e-06 -9.79284e-06
-0.0332006 -1.35525e-20 2.0216e-09 0 0 0
0.0332007 -2.71051e-20 2.02177e-09 0 0 0
-0.0333521 2.25875e-21 0.000302612 0.00876058 -0.00322078 3.34e-06
0.0333521 -9.03502e-21 0.000302604 -9.16845e-06 -5.7551e-07 1.79315e-07
-0.0333579 9.03502e-21 0.000916469 0.023175 -0.00845884 1.26023e-05
0.0333579 2.25875e-21 0.000916441 -4.34886e-05 -3.9881e-06 -2.33398e-06
0.0332522 6.77626e-21 0.00281453 0 0 0
-0.0332522 2.37169e-20 0.00281452 0 0 0
-0.0333432 4.51751e-21 0.00156281 0.0274048 -0.0100126 -2.93927e-05
0.0333432 9.03502e-21 0.0015628 -5.75995e-05 -9.15962e-06 -9.82316e-06
-0.0332953 0 0.00276394 0.00243921 -0.000952071 1.32486e-05
0.0332953 0 0.00276393 -5.27534e-06 -1.05819e-06 -1.54539e-06
-0.0333121 1.35525e-20 0.00282536 0 0 0
0.0333121 0 0.00282536 0 0 0
-0.03334 -1.01644e-20 0.00259806 0.00938486 -0.00363454 5.65622e-05
0.03334 -1.12938e-21 0.00259806 -1.96116e-05 -4.37528e-06 -5.84595e-06
-0.0333776 -1.12938e-20 0.00214892 0.020921 -0.00769541 5.37591e-05
0.0333777 2.25875e-21 0.00214893 -4.54213e-05 -1.07754e-05 -1.16895e-05
-0.0334909 0 2.97205e-09 0 0 0
0.0334909 -2.71051e-20 2.97158e-09 0 0 0
-0.0336619 -2.71051e-20 3.2006e-09 0 0 0
0.0336619 0 3.20002e-09 0 0 0
0.0336674 -2.71051e-20 0.000602311 -2.24915e-05 -4.88209e-06 -1.13554e-06
-0.0336674 0 0.000602349 0.0172088 -0.00632109 4.12718e-05
0.0336288 -2.71051e-20 0.00191753 -4.46001e-05 -1.79738e-05 -1.28498e-05
-0.0336288 0 0.00191754 0.0251957 -0.00921491 -2.13108e-05
0.0336642 0 0.00123321 -4.46276e-05 -1.29999e-05 -7.394e-06
-0.0336642 -2.71051e-20 0.00123324 0.0274283 -0.0100337 -1.50025e-05
-0.0335885 -2.71051e-20 0.00287539 0 0 0
0.0335885 0 0.00287539 0 0 0
-0.0336882 0 0.0024221 0.0163837 -0.00604717 8.7073e-05
0.0336883 0 0.00242211 -2.87549e-05 -1.43818e-05 -1.08531e-05
-0.0338384 -1.35525e-20 2.82155e-09 0 0 0
0.0338384 1.35525e-20 2.82101e-09 0 0 0
0.0338129 -2.71051e-20 0.00291608 0 0 0
-0.033813 -1.35525e-20 0.00291609 0 0 0
-0.0339781 9.03502e-21 0.000302701 0.00945412 -0.0034924 3.72661e-05
0.0339781 9.03502e-21 0.000302675 -6.62954e-06 -2.99542e-06 9.03511e-08
-0.0339808 -4.51751e-21 0.000914761 0.025435 -0.00930962 2.23172e-05
0.0339808 -4.51751e-21 0.000914701 -2.8877e-05 -1.45168e-05 -4.18153e-06
0.0339745 -9.03502e-21 0.00155861 -3.79288e-05 -2.51637e-05 -1.25733e-05
-0.0339745 -4.51751e-21 0.00155866 0.0306737 -0.0112194 -5.19827e-05
-0.0339481 -4.51751e-22 0.00267579 0.0111928 -0.00433807 0.000110077
0.0339481 4.51751e-22 0.00267579 -1.48655e-05 -1.29274e-05 -8.40632e-06
-0.0339879 -4.51751e-21 0.00215835 0.0246274 -0.00904317 -5.36491e-05
0.0339879 9.03502e-21 0.00215833 -3.13815e-05 -2.49893e-05 -1.51655e-05
-0.0341105 -1.35525e-20 1.81923e-09 0 0 0
0.0341105 -1.35525e-20 1.81899e-09 0 0 0
0.0340317 0 0.00295577 0 0 0
-0.0340318 0 0.00295579 0 0 0
-0.0342884 -2.71051e-20 1.43984e-09 0 0 0
0.0342884 -2.71051e-20 1.43965e-09 0 0 0
-0.0342943 -2.71051e-20 0.000598991 0.0185731 -0.00682913 1.08954e-05
0.0342943 2.71051e-20 0.000598921 -1.26143e-05 -1.21595e-05 -1.66463e-06
0.0342171 -1.35525e-20 0.00298939 0 0 0
-0.0342172 2.71051e-20 0.0029894 0 0 0
0.0342949 0 0.00244804 -1.63374e-05 -2.70283e-05 -1.4384e-05
-0.0342949 -2.71051e-20 0.00244805 0.0194286 -0.00709895 1.4532e-05
-0.034362 2.12968e-20 0.00129504 0.0320675 -0.0117443 -7.33568e-05
0.034362 -3.87215e-21 0.00129496 -2.0122e-05 -3.48864e-05 -1.16272e-05
-0.0343655 9.68038e-21 0.00179159 0.0317555 -0.0116184 -9.52563e-05
0.0343655 1.54886e-20 0.00179153 -2.04023e-05 -3.93409e-05 -1.60803e-05
0.0343352 1.35525e-20 0.00301088 0 0 0
-0.0343353 1.35525e-20 0.00301088 0 0 0
-0.0344682 1.35525e-20 1.2842e-09 0 0 0
0.0344682 2.71051e-20 1.284e-09 0 0 0
-0.0345084 -4.51751e-21 0.000909454 0.0271408 -0.00993745 -4.84829e-05
0.0345084 -4.51751e-21 0.000909369 -1.36377e-05 -2.56281e-05 -4.69325e-06
-0.034518 -1.807e-20 0.00215838 0.0282725 -0.0102418 -0.000102462
0.034518 -1.35525e-20 0.00215835 -1.36853e-05 -4.03477e-05 -1.87307e-05
-0.0346072 -6.77626e-21 0.000300821 0.0100605 -0.00370828 1.62651e-05
0.0346072 9.03502e-21 0.000300778 -2.72361e-06 -5.93052e-06 2.34268e-07
0.0346152 0 0.00154283 -1.22337e-05 -4.6742e-05 -1.59561e-05
-0.0346152 0 0.00154291 0.035277 -0.0129067 -9.36244e-05
0.034558 -4.51751e-22 0.00272776 -3.58408e-06 -2.39725e-05 -1.15639e-05
-0.034558 -2.25875e-22 0.00272775 0.0140476 -0.00494072 5.78766e-05
0.0345977 1.35525e-20 0.00305919 0 0 0
-0.0345978 0 0.0030592 0 0 0
-0.0347356 0 9.21309e-10 0 0 0
0.0347357 1.35525e-20 9.21242e-10 0 0 0
-0.0346831 1.35525e-20 0.00307472 0 0 0
0.0346831 6.77626e-21 0.00307474 0 0 0
-0.0349165 2.71051e-20 7.6471e-10 0 0 0
0.0349166 0 7.64643e-10 0 0 0
-0.0349264 4.51751e-21 0.000691164 0.0236497 -0.00863491 -2.38193e-05
0.0349264 -9.03502e-21 0.000691082 -1.1913e-07 -2.6594e-05 -2.77471e-06
0.0349292 -2.25875e-21 0.00121438 2.30854e-06 -4.65991e-05 -1.0771e-05
-0.0349292 2.03288e-20 0.00121448 0.0329832 -0.0120392 -7.15837e-05
0.0349324 1.12938e-20 0.00185859 4.10366e-06 -5.72091e-05 -1.9925e-05
-0.0349324 -4.51751e-21 0.00185866 0.0339438 -0.0123455 -0.000140781
0.0348922 1.35525e-20 0.00311391 0 0 0
-0.0348922 -3.38813e-21 0.00311391 0 0 0
0.0349975 6.77626e-21 0.00246507 4.74049e-06 -4.64466e-05 -1.90611e-05
-0.0349975 -9.03502e-21 0.00246508 0.023867 -0.00863201 -4.79738e-05
-0.0350985 0 7.01007e-10 0 0 0
0.0350985 1.35525e-20 7.00941e-10 0 0 0
-0.035002 0 0.00285808 0.0121432 -0.0042248 0.000129719
0.035002 0 0.00285808 2.61492e-06 -2.50646e-05 -1.20361e-05
-0.0352406 -1.12938e-20 0.000295905 0.0104864 -0.00382954 1.38128e-05
0.0352407 6.77626e-21 0.000295859 1.9503e-06 -8.17287e-06 2.51106e-07
-0.0352487 0 0.00089372 0.0302877 -0.0110011 -9.57463e-06
0.0352487 -2.71051e-20 0.000893614 1.28739e-05 -4.26721e-05 -4.39232e-06
0.0351342 1.69407e-21 0.00315794 0 0 0
-0.0351343 0 0.00315795 0 0 0
0.0352503 0 0.00152768 2.05269e-05 -6.94359e-05 -1.87291e-05
-0.0352503 0 0.00152777 0.0380653 -0.0138913 -0.00011986
-0.0351477 1.69407e-21 0.00316042 0 0 0
0.0351478 -1.69407e-21 0.00316043 0 0 0
0.0351794 0 0.00281731 6.17541e-06 -3.17415e-05 -1.39959e-05
-0.0351794 0 0.00281732 0.0140778 -0.00502727 0.000135358
-0.035153 0 0.00314568 0.000631473 -0.000230622 1.60677e-05
0.035153 -1.69407e-21 0.00314559 4.16678e-07 -1.55829e-06 -7.3284e-07
0.0352564 0 0.00217228 1.97521e-05 -6.95269e-05 -2.46529e-05
-0.0352564 -2.71051e-20 0.00217232 0.0334878 -0.0121148 -0.000225647
-0.0353734 -1.35525e-20 5.21809e-10 0 0 0
0.0353735 0 5.21779e-10 0 0 0
-0.0352366 -1.69407e-21 0.0031769 0 0 0
0.0352373 -3.38813e-21 0.00317703 0 0 0
-0.0353097 0 0.00290011 0.0120007 -0.0043064 0.000189347
0.0353097 1.35525e-20 0.00290013 7.26806e-06 -2.97935e-05 -1.31863e-05
-0.0355532 0 4.57365e-10 0 0 0
0.0355533 0 4.57336e-10 0 0 0
0.0355671 -9.03502e-21 0.00119581 3.27962e-05 -6.3777e-05 -1.19832e-05
-0.0355671 -2.25875e-21 0.00119592 0.0351164 -0.0127948 -9.06399e-05
0.0355696 9.03502e-21 0.00184838 3.94686e-05 -8.14101e-05 -2.3792e-05
-0.0355696 0 0.00184845 0.0374448 -0.0135892 -0.000159573
-0.0356124 2.25875e-21 0.000622322 0.0219113 -0.00796837 -3.93662e-05
0.0356125 2.25875e-21 0.000622242 1.52772e-05 -2.90775e-05 -1.84245e-06
0.0355744 -4.51751e-21 0.00250427 2.92814e-05 -6.57301e-05 -2.36889e-05
-0.0355744 9.03502e-21 0.00250428 0.0265825 -0.00964076 -4.32194e-05
-0.035529 3.38813e-21 0.0032312 0 0 0
0.0355292 -3.38813e-21 0.00323122 0 0 0
-0.0355423 0 0.00321267 0.00104319 -0.000340294 8.07855e-06
0.0355424 0 0.00321273 5.32004e-07 -2.61856e-06 -1.17575e-06
0.0355811 -9.03502e-21 0.00287218 1.77443e-05 -4.04734e-05 -1.64007e-05
-0.0355811 -9.03502e-21 0.00287218 0.0152526 -0.00551978 7.98811e-05
-0.035574 3.38813e-21 0.00316175 0.00342243 -0.00122591 9.78938e-06
-0.0355672 0 0.0032382 0 0 0
0.0355741 0 0.0031619 3.82672e-06 -9.29611e-06 -3.799e-06
0.0355673 0 0.00323821 0 0 0
-0.0357312 -1.35525e-20 4.06834e-10 0 0 0
0.0357313 -1.35525e-20 4.06801e-10 0 0 0
-0.0356064 0 0.00321772 0.0014547 -0.000500543 -2.9701e-05
0.0356064 0 0.00321777 2.16564e-06 -3.98284e-06 -1.56288e-06
0.0356195 3.38813e-21 0.00324783 0 0 0
-0.0356195 3.38813e-21 0.00324784 0 0 0
-0.0358766 0 0.000193571 0.00675387 -0.00248959 -4.69745e-05
0.0358767 0 0.000193555 1.70956e-06 -3.36498e-06 7.35076e-07
-0.035885 0 0.000875629 0.0316319 -0.0114624 -7.50743e-05
0.035885 -2.71051e-20 0.000875535 3.95013e-05 -5.26878e-05 -3.81404e-06
-0.0358906 2.71051e-20 0.00150725 0.040938 -0.0149847 -0.000163464
0.0358906 -2.71051e-20 0.00150716 5.95887e-05 -9.17053e-05 -2.14857e-05
0.0358881 -2.71051e-20 0.00216694 5.9451e-05 -9.64159e-05 -3.04441e-05
-0.0358881 -2.71051e-20 0.00216698 0.0378516 -0.0135757 -0.000124796
-0.0358664 0 0.00295102 0.0149271 -0.00545227 2.69898e-05
0.0358665 1.35525e-20 0.00295103 2.48136e-05 -4.36457e-05 -1.75306e-05
-0.0360201 -1.35525e-20 2.47881e-10 0 0 0
0.0360202 2.71051e-20 2.47868e-10 0 0 0
-0.036024 6.77626e-21 0.00332287 0 0 0
0.0360241 0 0.00332289 0 0 0
-0.0361957 0 1.96858e-10 0 0 0
0.0361958 0 1.96841e-10 0 0 0
-0.0362011 -6.77626e-21 0.000563546 0.0209992 -0.00769895 -7.81969e-05
0.0362011 4.51751e-21 0.000563484 2.67652e-05 -2.92827e-05 -1.39965e-06
-0.03606 0 0.0032685 0.00320759 -0.00110369 -6.54903e-05
0.0360601 -1.35525e-20 0.00326857 4.78082e-06 -8.79245e-06 -3.45019e-06
-0.036206 0 0.00117895 0.0370225 -0.0135463 -9.27427e-05
0.0362061 0 0.00117887 6.56832e-05 -7.96106e-05 -1.38335e-05
0.0362045 2.25875e-21 0.00184383 7.99895e-05 -0.000107753 -2.8778e-05
-0.0362045 6.77626e-21 0.00184388 0.0407311 -0.0148404 -0.000133613
0.0361888 -2.25875e-21 0.00253169 6.20164e-05 -8.94323e-05 -2.97211e-05
-0.0361888 -2.25875e-21 0.0025317 0.0300138 -0.0108757 -5.12329e-05
-0.0361316 0 0.00334265 0 0 0
0.0361316 -1.35525e-20 0.00334265 0 0 0
0.0361687 -6.77626e-21 0.00293434 3.93452e-05 -5.65925e-05 -2.09745e-05
-0.0361687 9.03502e-21 0.00293434 0.0177928 -0.00649116 1.96599e-05
0.0361567 6.77626e-21 0.00314741 1.9416e-05 -2.88029e-05 -1.08517e-05
-0.0361567 0 0.00314727 0.00896995 -0.00326822 -1.25005e-05
-0.0363723 0 1.67562e-10 0 0 0
0.0363723 1.35525e-20 1.67547e-10 0 0 0
0.0362562 0 0.00328574 1.10909e-05 -1.39007e-05 -5.05322e-06
-0.0362563 2.71051e-20 0.00328569 0.00422861 -0.00159933 -3.1543e-05
0.0363065 6.77626e-21 0.00337454 0 0 0
-0.0363067 1.35525e-20 0.00337456 0 0 0
-0.0365138 0 0.000190564 0.00670991 -0.00262833 -0.000103718
0.0365138 0 0.000190552 1.81755e-06 -2.36163e-06 9.61228e-07
-0.0365218 2.71051e-20 0.000861999 0.0327195 -0.011925 -3.41067e-05
0.0365219 2.71051e-20 0.000861929 6.48357e-05 -5.85957e-05 -4.37078e-06
-0.0365244 0 0.00149847 0.043314 -0.0159999 -0.000102418
0.0365244 0 0.00149841 0.00010052 -0.000117531 -2.62806e-05
0.0365145 0 0.00218148 0.000101925 -0.000126968 -3.71598e-05
-0.0365145 0 0.00218151 0.0412932 -0.0149875 -0.000135623
-0.0364788 0 0.00289752 0.0217022 -0.00789817 5.51769e-05
0.0364788 1.35525e-20 0.00289755 5.90494e-05 -7.71613e-05 -2.78966e-05
-0.0366526 0 8.42588e-11 0 0 0
0.0366527 0 8.42553e-11 0 0 0
-0.036569 -5.42101e-21 0.00323416 0.00989184 -0.0037049 -6.08817e-06
0.036569 1.35525e-20 0.00323419 2.73838e-05 -3.37424e-05 -1.22657e-05
-0.0365532 0 0.00341957 0 0 0
0.0365533 -1.35525e-20 0.00341959 0 0 0
-0.0367898 1.35525e-20 0.000598955 0.0230071 -0.00854209 -8.70476e-05
0.0367898 0 0.000598917 4.31583e-05 -3.72921e-05 -1.51657e-06
-0.036834 0 5.5588e-11 0 0 0
0.0368341 0 5.55862e-11 0 0 0
-0.0368407 -4.51751e-21 0.00116968 0.0387551 -0.0142681 -8.08114e-05
0.0368407 4.51751e-21 0.00116963 9.89705e-05 -9.75927e-05 -1.55393e-05
0.0368348 -4.51751e-21 0.00184465 0.00012465 -0.000137777 -3.38438e-05
-0.0368348 6.77626e-21 0.00184468 0.0437271 -0.0160203 -0.00015743
0.0368045 1.35525e-20 0.00255346 0.00010106 -0.000117958 -3.61827e-05
-0.0368045 -1.35525e-20 0.00255346 0.0335193 -0.0121413 -0.000112291
0.0367777 -2.71051e-20 0.00346047 0 0 0
-0.0367777 2.71051e-20 0.00346047 0 0 0
-0.0368393 4.51751e-22 0.00303407 0.0198609 -0.00722263 -2.69273e-05
0.0368393 1.35525e-21 0.00303408 6.29371e-05 -7.43891e-05 -2.56089e-05
-0.0370199 1.35525e-20 4.78303e-11 0 0 0
0.0370199 -1.35525e-20 4.78279e-11 0 0 0
-0.0371489 -2.25875e-21 0.000281507 0.010992 -0.00439971 -0.000141992
0.0371489 -9.03502e-21 0.000281494 1.17875e-05 -1.07848e-05 8.2864e-07
0.0371548 0 0.000855626 8.82413e-05 -7.17272e-05 -2.74e-06
-0.0371548 -2.71051e-20 0.000855666 0.0338884 -0.0124724 -4.50766e-05
0.0371549 2.71051e-20 0.00149516 0.000144746 -0.000145591 -2.96047e-05
-0.0371549 0 0.00149519 0.0457115 -0.0169028 -0.000148384
0.0371441 0 0.00218077 0.000152413 -0.000162306 -4.2522e-05
-0.0371441 0 0.00218078 0.0449095 -0.0163234 -0.000237039
0.0370564 6.77626e-21 0.00351129 0 0 0
-0.0370564 -2.03288e-20 0.0035113 0 0 0
0.03727 0 2.98638e-11 0 0 0
-0.03727 0 2.9863e-11 0 0 0
-0.0371712 2.71051e-20 0.00278261 0.0314776 -0.0114142 -0.00016342
0.0371713 0 0.00278261 0.00011348 -0.000124723 -4.01475e-05
-0.0371159 -1.35525e-20 0.00352215 0 0 0
0.037116 -1.69407e-20 0.00352218 0 0 0
-0.0371348 4.51751e-21 0.00333173 0.0100079 -0.00382518 -1.46656e-05
0.0371348 0 0.00333177 3.44127e-05 -4.26009e-05 -1.45958e-05
-0.0374605 0 2.22234e-11 0 0 0
0.0374605 0 2.22235e-11 0 0 0
-0.0374674 0 0.000637841 0.0264666 -0.00991847 -8.73341e-05
0.0374674 1.35525e-20 0.000637823 6.70248e-05 -5.41114e-05 -1.31095e-06
0.0374702 -6.77626e-21 0.00116461 0.000133679 -0.000120057 -1.56919e-05
-0.0374702 4.51751e-21 0.00116464 0.0404488 -0.0149763 -0.000138979
0.0374665 -1.12938e-21 0.00183966 0.000175404 -0.00017208 -3.74052e-05
-0.0374665 0 0.00183967 0.0468844 -0.017209 -0.000237217
-0.0374682 -3.38813e-21 0.00249666 0.0399975 -0.014504 -0.000224755
0.0374682 1.12938e-21 0.00249666 0.000158946 -0.000161189 -4.42115e-05
-0.0374675 4.51751e-21 0.00307365 0.023258 -0.00842765 -0.000121323
0.0374675 1.88079e-37 0.00307365 9.40551e-05 -0.000100289 -3.16378e-05
-0.0374246 2.71051e-20 0.00357844 0 0 0
0.0374247 1.35525e-20 0.00357845 0 0 0
-0.0376529 -2.71051e-20 1.86806e-11 0 0 0
0.0376529 -1.35525e-20 1.86807e-11 0 0 0
-0.0377742 1.12938e-20 0.000280154 0.0113143 -0.00458775 -0.000126311
0.0377742 6.77626e-21 0.000280151 1.4692e-05 -1.27469e-05 8.65539e-07
-0.0377819 0 0.000851859 0.0350306 -0.0130405 -7.15925e-05
0.0377819 2.71051e-20 0.00085184 0.000112853 -8.90692e-05 -1.4212e-06
0.0377838 0 0.00149135 0.000192846 -0.00017822 -3.01018e-05
-0.0377838 5.42101e-20 0.00149136 0.0479016 -0.0177658 -0.000303481
-0.0376598 6.77626e-21 0.00362112 0 0 0
0.0376599 1.35525e-20 0.00362114 0 0 0
0.0377819 -2.71051e-20 0.00216934 0.000212471 -0.000203595 -4.76382e-05
-0.0377819 0 0.00216935 0.0492303 -0.0179369 -0.00025792
0.0377773 -5.42101e-20 0.00279682 0.00016377 -0.000161088 -4.78949e-05
-0.0377773 -2.71051e-20 0.00279681 0.0361198 -0.0129815 -0.000249118
0.0378849 0 1.07538e-11 0 0 0
-0.0378849 0 1.07533e-11 0 0 0
-0.0377229 -1.35525e-20 0.00353461 0.00545875 -0.00200822 -7.62954e-06
0.037723 -6.77626e-21 0.00353476 2.30411e-05 -2.65384e-05 -8.57506e-06
-0.0377797 -1.12938e-21 0.00335602 0.0159148 -0.00582312 -4.74609e-05
0.0377798 0 0.00335605 7.06647e-05 -7.68232e-05 -2.42079e-05
0.0377789 0 0.00364262 0 0 0
-0.037779 -6.77626e-21 0.00364263 0 0 0
-0.0380777 2.71051e-20 7.23455e-12 0 0 0
0.0380777 0 7.23493e-12 0 0 0
-0.0380891 9.03502e-21 0.000630694 0.0270754 -0.0102183 -5.28854e-05
0.0380891 0 0.00063069 8.17212e-05 -6.50555e-05 -7.55963e-07
-0.0380959 -2.25875e-21 0.00115829 0.0419759 -0.0155938 -0.00017996
0.0380959 4.51751e-21 0.00115829 0.000169432 -0.000145159 -1.51509e-05
0.0380968 3.38813e-21 0.0018338 0.000230622 -0.000209627 -3.98512e-05
-0.0380968 -2.25875e-21 0.0018338 0.0499204 -0.018316 -0.000289542
-0.0379952 -1.35525e-20 0.00368181 0 0 0
0.0379952 1.35525e-20 0.00368182 0 0 0