# UMean  POINT_DATA 14060
# x  y  z  UMean_x  UMean_y  UMean_z
4.06576e-20 0.0106418 6.54156e-08 0 0 0
-4.06576e-20 -0.0106418 6.54156e-08 0 0 0
0 -0.0106418 0.000314253 0 0 0
1.69407e-21 0.0106418 0.000314436 0 0 0
-1.01644e-20 -0.0106418 0.000346253 0 0 0
-3.38813e-21 0.0106418 0.000346447 0 0 0
0 -0.0106418 0.000664285 0 0 0
2.71051e-20 0.0106418 0.000664666 0 0 0
-1.69407e-21 0.0106696 0.000329843 3.37548e-07 -1.60734e-07 -2.48703e-08
0 -0.0106696 0.000329653 0.000376465 -0.000147403 2.70869e-06
-5.0822e-21 -0.0106418 0.000994701 0 0 0
-1.69407e-21 0.0106418 0.000995075 0 0 0
-1.69407e-21 -0.0106418 0.00102868 0 0 0
1.69407e-21 0.0106418 0.00102909 0 0 0
-1.35525e-20 -0.0106651 0.00100858 0.000642534 -0.000244447 2.02398e-06
1.86347e-20 0.0106651 0.00100897 6.86777e-06 -2.70262e-06 -2.03351e-08
0 -0.0106418 0.00135925 0 0 0
-1.35525e-20 0.0106418 0.00135964 0 0 0
-3.38813e-21 -0.0106418 0.00170831 0 0 0
0 0.0106418 0.00170849 0 0 0
-6.77626e-21 -0.0106418 0.00174299 0 0 0
2.20229e-20 0.0106418 0.0017432 0 0 0
0 -0.0106634 0.00171659 0.000556573 -0.000216571 1.39837e-05
6.77626e-21 0.0106634 0.00171678 6.86723e-06 -2.78147e-06 -1.3947e-07
0 0.0106417 0.002087 0 0 0
0 -0.0106417 0.002087 0 0 0
1.35525e-20 0.0108523 6.905e-08 0 0 0
2.71051e-20 -0.0108523 6.90492e-08 0 0 0
4.51751e-21 -0.0108537 0.000983441 0.00562843 -0.00214 1.4539e-05
0 0.0108538 0.000983846 6.00335e-05 -2.35642e-05 -1.31277e-07
-7.90564e-21 0.0109302 0.000328664 8.57983e-06 -3.45207e-06 -1.43648e-07
-5.64689e-21 -0.0109302 0.000328466 0.00345297 -0.00132852 1.39151e-05
-9.03502e-21 -0.010876 0.00165246 0.00597759 -0.00229525 0.000119222
-2.25875e-21 0.010876 0.0016527 7.2973e-05 -2.90427e-05 -1.05274e-06
-1.35525e-20 0.0110233 5.24961e-08 0 0 0
-2.03288e-20 -0.0110233 5.24971e-08 0 0 0
0 -0.0108444 0.00218791 0 0 0
-3.38813e-21 0.0108444 0.00218791 0 0 0
-6.77626e-21 0.010932 0.00223158 0 0 0
3.38813e-21 -0.010932 0.00223159 0 0 0
3.38813e-21 -0.0109511 0.00214941 0.00224794 -0.000762696 4.49642e-05
-6.77626e-21 0.0109511 0.00214943 2.58231e-05 -9.59198e-06 -2.64354e-07
0 0.0111742 4.69561e-08 0 0 0
0 -0.0111743 4.69564e-08 0 0 0
-2.25875e-21 -0.0111377 0.00125157 0.0114308 -0.00421274 1.56769e-05
-9.03502e-21 0.0111378 0.00125193 0.000127474 -4.79186e-05 -5.39404e-08
-6.77626e-21 -0.0111894 0.000675227 0.00900735 -0.00330464 -3.1595e-05
-1.01644e-20 0.0111894 0.00067554 6.74169e-05 -2.52827e-05 2.11172e-07
1.35525e-20 0.0112788 0.000114381 7.09607e-07 -3.31656e-07 -1.03978e-07
-1.35525e-20 -0.0112788 0.000114338 0.00265633 -0.000955522 -3.51584e-05
0 0.0112886 3.37067e-08 0 0 0
1.35525e-20 -0.0112886 3.37059e-08 0 0 0
-6.77626e-21 -0.0111945 0.00167214 0.0121161 -0.00442098 4.57423e-05
0 0.0111945 0.00167239 0.000144624 -5.3861e-05 -3.41904e-07
2.25875e-21 -0.011163 0.00198697 0.00838919 -0.00293017 0.000130301
-5.64689e-21 0.011163 0.00198709 9.78394e-05 -3.66785e-05 -7.77451e-07
-2.71051e-20 0.011131 0.00233069 0 0 0
0 -0.011131 0.00233069 0 0 0
0 0.0114369 0.00031708 1.92433e-06 -8.74976e-07 -1.70799e-07
0 -0.0114369 0.00031693 0.00712475 -0.00255199 -5.6232e-05
-2.71051e-20 -0.011421 0.000929732 0.016179 -0.00583135 -5.8754e-05
-2.71051e-20 0.011421 0.000930046 0.000161549 -5.89366e-05 7.24658e-07
-2.71051e-20 -0.0114038 0.0015068 0.0168739 -0.00611029 -2.12471e-05
-2.71051e-20 0.0114039 0.00150708 0.000202652 -7.48538e-05 1.37302e-07
-1.35525e-20 -0.0113457 0.00243752 0 0 0
1.35525e-20 0.0113457 0.00243753 0 0 0
-1.35525e-20 -0.0116364 1.34784e-08 0 0 0
-1.35525e-20 0.0116364 1.34759e-08 0 0 0
0 -0.0116375 9.54413e-05 0.00221768 -0.000797733 -2.93526e-05
0 0.0116376 9.54576e-05 5.92305e-07 -2.76831e-07 -8.67902e-08
0 -0.0114303 0.0024797 0 0 0
-6.77626e-21 0.0114304 0.00247971 0 0 0
5.64689e-21 -0.0115074 0.00225281 0.00804241 -0.00305536 0.000222683
4.51751e-21 0.0115075 0.00225288 0.000105613 -4.45298e-05 -2.92883e-06
-1.35525e-20 -0.0117301 3.25942e-09 0 0 0
0 0.0117301 3.26008e-09 0 0 0
0 -0.0117195 0.000610229 0.0139989 -0.00509503 -3.04228e-05
-6.77626e-21 0.0117195 0.000610449 9.77295e-05 -3.67878e-05 -6.91064e-08
4.51751e-21 -0.0117028 0.00122422 0.0209367 -0.00761391 -3.52919e-05
-9.03502e-21 0.0117028 0.00122449 0.000227744 -8.59456e-05 -3.80144e-07
0 0.0118194 8.97007e-05 5.71669e-07 -3.30747e-07 2.91455e-08
-1.35525e-20 -0.0118195 8.9705e-05 0.00277685 -0.00102351 -1.38943e-05
0 0.01182 3.03178e-09 0 0 0
0 -0.01182 3.03111e-09 0 0 0
-4.51751e-21 -0.0116772 0.0018372 0.017563 -0.00645579 5.96439e-05
2.25875e-21 0.0116772 0.00183735 0.000213912 -8.16553e-05 -1.77625e-06
0 -0.0116033 0.00256579 0 0 0
2.71051e-20 0.0116033 0.00256582 0 0 0
-2.71051e-20 0.0120204 0.00030712 1.88674e-06 -1.06425e-06 4.50838e-08
-2.71051e-20 -0.0120205 0.000307029 0.00924886 -0.00342549 -4.38975e-06
0 -0.0117485 0.00263815 0 0 0
-1.35525e-20 0.0117486 0.00263817 0 0 0
0 -0.0120156 0.000917001 0.02393 -0.00874554 -1.21941e-05
0 0.0120156 0.000917181 0.000232655 -8.88394e-05 -7.79965e-07
1.50584e-21 -0.0118318 0.00229966 0.0124951 -0.0047043 0.000157497
0 0.0118319 0.00229972 0.000160777 -6.23989e-05 -2.99206e-06
0 -0.0117786 0.00256188 0.00385908 -0.00147794 1.02085e-06
0 0.0117787 0.00256192 4.87103e-05 -1.80167e-05 -3.75207e-07
0 -0.0119886 0.00155401 0.0271709 -0.00990616 -4.93478e-05
2.71051e-20 0.0119887 0.00155417 0.000318027 -0.000122518 -1.62463e-06
0 -0.012032 0.00210267 0.0206634 -0.00763244 2.565e-05
0 0.012032 0.00210275 0.000262248 -9.85885e-05 -3.77546e-06
0 0.0122392 1.95024e-09 0 0 0
-1.35525e-20 -0.0122393 1.95023e-09 0 0 0
1.35525e-20 0.0122409 8.16763e-05 5.20535e-07 -3.01162e-07 2.65385e-08
-1.35525e-20 -0.012241 8.16705e-05 0.00252817 -0.000931852 -1.265e-05
0 -0.011987 0.00253932 0.00886587 -0.00334227 9.43188e-05
-2.71051e-20 0.0119871 0.00253936 0.00011123 -4.11182e-05 -1.62464e-06
0 0.012321 1.74247e-09 0 0 0
0 -0.0123211 1.74247e-09 0 0 0
0 -0.0120123 0.00276923 0 0 0
0 0.0120124 0.00276924 0 0 0
4.51751e-21 -0.0123328 0.00060351 0.0184007 -0.00674975 1.90661e-06
0 0.0123328 0.000603616 0.000131422 -5.04638e-05 -4.56921e-07
0 -0.0120725 0.00270714 0.00388979 -0.0014897 1.02897e-06
-1.35525e-20 0.0120726 0.00270715 4.91048e-05 -1.81626e-05 -3.78246e-07
4.51751e-21 -0.0123288 0.00123239 0.0296172 -0.0108305 -3.73049e-05
2.25875e-21 0.0123288 0.00123252 0.000320382 -0.000123763 -2.2521e-06
1.35525e-20 0.0124027 1.58608e-09 0 0 0
-1.35525e-20 -0.0124029 1.58605e-09 0 0 0
0 0.012405 7.77949e-05 5.33766e-07 -3.21192e-07 2.65808e-08
1.35525e-20 -0.0124051 7.77972e-05 0.00280721 -0.00103745 4.81734e-06
9.03502e-21 -0.0123346 0.00185417 0.0289628 -0.0105937 -5.3457e-05
-1.12938e-21 0.0123346 0.00185426 0.000352312 -0.000136703 -4.34091e-06
0 -0.0121505 0.00283802 0 0 0
-1.35525e-20 0.0121505 0.00283803 0 0 0
-1.12938e-21 -0.0123063 0.00240165 0.0183111 -0.00672283 3.93036e-05
3.38813e-21 0.0123064 0.00240169 0.000232608 -9.06807e-05 -3.90151e-06
-1.35525e-20 -0.0122683 0.00289782 0 0 0
-1.35525e-20 0.0122684 0.00289784 0 0 0
1.35525e-20 -0.0123167 0.00277203 0.0067661 -0.0023952 4.87689e-05
-1.35525e-20 0.0123167 0.00277205 8.83867e-05 -3.59027e-05 -1.93058e-06
0 0.0126427 0.000300471 2.00204e-06 -1.18828e-06 5.74652e-08
0 -0.0126428 0.000300435 0.0106359 -0.00392408 2.68603e-05
2.71051e-20 -0.0126591 0.000913392 0.0302675 -0.0110776 -8.07986e-06
-2.71051e-20 0.012659 0.000913471 0.00029622 -0.000113433 -1.13926e-06
2.71051e-20 -0.0126618 0.00155274 0.0373043 -0.013666 -8.00691e-05
0 0.0126618 0.00155281 0.000437488 -0.000171363 -5.50289e-06
2.71051e-20 -0.0125263 0.00271731 0.0139856 -0.00508925 0.000124897
0 0.0125263 0.00271734 0.000179216 -7.35918e-05 -3.8603e-06
2.71051e-20 0.0124665 0.00299812 0 0 0
-1.35525e-20 -0.0124665 0.00299814 0 0 0
0 -0.0126643 0.00218644 0.0314818 -0.0114438 -0.000115019
2.71051e-20 0.0126643 0.00218649 0.000400048 -0.00015794 -6.58137e-06
6.77626e-21 0.0128706 4.59712e-10 0 0 0
-6.77626e-21 -0.0128707 4.59687e-10 0 0 0
0 0.0128741 6.76249e-05 4.63994e-07 -2.79207e-07 2.31062e-08
-6.77626e-21 -0.0128742 6.76189e-05 0.00243997 -0.000901731 4.18714e-06
-2.71051e-20 0.0125733 0.00289917 9.0017e-05 -3.65649e-05 -1.96619e-06
1.35525e-20 -0.0125733 0.00289922 0.00688826 -0.00243845 4.96494e-05
1.35525e-20 0.0129417 3.22177e-10 0 0 0
0 -0.0129418 3.22144e-10 0 0 0
-1.35525e-20 0.0125996 0.00306574 0 0 0
0 -0.0125996 0.00306572 0 0 0
-1.12938e-21 0.0129729 0.000593308 0.000159751 -6.14076e-05 -8.4832e-08
-2.25875e-21 -0.0129729 0.000593273 0.0216354 -0.00795199 1.39155e-05
0 0.0130097 3.00406e-10 0 0 0
-6.77626e-21 -0.0130097 3.00375e-10 0 0 0
0 0.0130126 6.19331e-05 4.6393e-07 -3.18832e-07 -2.06866e-08
0 -0.0130126 6.19352e-05 0.00247746 -0.000919029 5.96711e-06
1.12938e-21 -0.0129928 0.00122118 0.0369154 -0.0135328 -5.63615e-05
1.12938e-21 0.0129928 0.00122123 0.000406718 -0.00015905 -3.08043e-06
0 -0.0127131 0.00312274 0 0 0
0 0.0127131 0.00312278 0 0 0
-1.35525e-20 -0.0127497 0.00301636 0.00594794 -0.0021684 0.00010388
-1.35525e-20 0.0127497 0.00301635 8.58801e-05 -3.76005e-05 -3.13009e-06
-2.25875e-21 -0.0129973 0.00187881 0.0392774 -0.0143115 -0.000145804
-2.25875e-21 0.0129973 0.00187885 0.000486 -0.000193109 -6.51601e-06
-4.96926e-21 -0.0129622 0.00258487 0.0250265 -0.00909857 3.0646e-05
-9.03502e-22 0.0129622 0.0025849 0.000332337 -0.000133637 -6.70737e-06
2.71051e-20 -0.0129338 0.00296499 0.0123889 -0.0045001 0.000280252
2.71051e-20 0.0129338 0.00296502 0.000179631 -7.60057e-05 -6.30894e-06
0 0.0132745 0.000290697 2.11241e-06 -1.42949e-06 -1.33049e-07
2.71051e-20 -0.0132746 0.000290697 0.0114409 -0.00421886 1.1999e-05
0 0.0133097 0.000892132 0.000346478 -0.000132516 9.14027e-07
0 -0.0133098 0.000892103 0.0347288 -0.0127822 2.29877e-05
-6.77626e-21 -0.0129628 0.00324855 0 0 0
6.77626e-21 0.0129628 0.00324857 0 0 0
0 -0.0130138 0.00319442 0.0038034 -0.00138658 6.64256e-05
6.77626e-21 0.0130138 0.00319445 5.48907e-05 -2.40326e-05 -2.00061e-06
0 -0.0133311 0.00153426 0.0454978 -0.0166558 -0.000163479
5.42101e-20 0.0133311 0.0015343 0.000549156 -0.00021985 -6.63448e-06
-1.35525e-20 -0.0130334 0.00328409 0 0 0
0 0.0130335 0.00328412 0 0 0
0 -0.0133253 0.00221294 0.043151 -0.0155988 -0.000226398
-2.71051e-20 0.0133254 0.00221295 0.000560429 -0.000224507 -7.30323e-06
6.77626e-21 -0.0130971 0.00331595 0 0 0
-6.77626e-21 0.0130971 0.00331598 0 0 0
1.35525e-20 -0.0131128 0.00327452 0.00275592 -0.00102832 -2.04584e-05
0 0.0131128 0.00327455 3.76278e-05 -1.453e-05 -6.07188e-07
0 0.0135215 4.37567e-11 0 0 0
-6.77626e-21 -0.0135215 4.37417e-11 0 0 0
6.77626e-21 0.013525 4.46982e-05 3.34828e-07 -2.30108e-07 -1.49299e-08
0 -0.013525 4.46896e-05 0.00178763 -0.000663131 4.30561e-06
7.52918e-22 -0.01322 0.00300113 0.0174836 -0.00637351 0.000138696
2.25875e-21 0.01322 0.00300115 0.000244385 -9.78407e-05 -6.87109e-06
0 -0.0135708 2.7414e-11 0 0 0
0 0.0135708 2.74242e-11 0 0 0
0 -0.0136156 2.60779e-11 0 0 0
6.77626e-21 0.0136156 2.60872e-11 0 0 0
6.77626e-21 -0.0136174 3.86816e-05 0.00162341 -0.000680603 -2.18112e-05
0 0.0136174 3.86925e-05 3.23809e-07 -1.99143e-07 -7.71706e-08
-2.25875e-21 0.013613 0.000567026 0.000178755 -6.69707e-05 8.72746e-07
0 -0.0136131 0.000567017 0.0234465 -0.00877417 -3.73668e-05
-2.71051e-20 -0.0133842 0.00278357 0.0288362 -0.0105354 1.44764e-05
2.71051e-20 0.0133842 0.00278359 0.000400993 -0.000158808 -1.00527e-05
-2.25875e-21 0.0136535 0.00118312 0.000477252 -0.000187833 -2.62693e-06
-5.64689e-22 -0.0136536 0.00118311 0.0423221 -0.0155916 -0.000109548
2.71051e-20 -0.0133578 0.00322878 0.0117614 -0.00428368 0.000112041
-5.42101e-20 0.0133579 0.00322881 0.000159515 -6.17583e-05 -4.5129e-06
-2.25875e-21 -0.0136671 0.00185452 0.0489825 -0.0178324 -0.000242399
-4.51751e-21 0.0136672 0.00185453 0.000622049 -0.000251965 -8.54858e-06
1.35525e-20 -0.0134202 0.00347787 0 0 0
0 0.0134203 0.00347791 0 0 0
0 -0.0134522 0.00343713 0.00317057 -0.00118304 -2.35365e-05
0 0.0134523 0.00343717 4.32869e-05 -1.67152e-05 -6.98507e-07
0 0.0139 0.000270267 2.18099e-06 -1.28313e-06 -5.92201e-07
-2.71051e-20 -0.0139 0.000270258 0.0112037 -0.00467247 -0.000173009
5.64689e-22 -0.0136756 0.0025133 0.0419882 -0.01516 -0.000197209
0 0.0136756 0.00251332 0.000566665 -0.000229252 -1.10637e-05
0 -0.0134921 0.00351385 0 0 0
-1.35525e-20 0.0134922 0.00351387 0 0 0
-2.71051e-20 0.0139532 0.000842554 0.000373705 -0.0001362 3.39389e-06
-5.42101e-20 -0.0139532 0.000842545 0.0370695 -0.013649 -6.48127e-06
5.64689e-22 -0.0136462 0.00307161 0.024563 -0.00887146 -2.9599e-05
-5.64689e-22 0.0136463 0.00307162 0.000340823 -0.000138655 -9.03673e-06
0 -0.0135602 0.00354792 0 0 0
-6.77626e-21 0.0135603 0.00354795 0 0 0
0 -0.0135939 0.00346713 0.00556188 -0.00188515 -9.87717e-06
-1.35525e-20 0.013594 0.00346717 8.02232e-05 -3.35867e-05 -2.21759e-06
-2.71051e-20 0.0139954 0.00147861 0.000642795 -0.000264086 -8.29962e-06
0 -0.0139954 0.00147861 0.0521501 -0.0193363 -0.000293607
5.42101e-20 -0.0139994 0.00216676 0.0550756 -0.0197315 -0.00028625
0 0.0139994 0.00216678 0.000734359 -0.000298859 -1.19075e-05
0 0.0141777 1.4792e-12 0 0 0
-1.69407e-21 -0.0141778 1.47682e-12 0 0 0
0 0.0141787 1.2541e-05 1.04953e-07 -6.45463e-08 -2.50126e-08
0 -0.0141789 1.25123e-05 0.000525125 -0.000220155 -7.05528e-06
-1.69407e-21 0.0141923 1.02466e-12 0 0 0
1.69407e-21 -0.0141924 1.02347e-12 0 0 0
0 0.0142041 9.50757e-06 5.1823e-08 -2.47405e-08 -6.41619e-08
0 -0.0142042 9.48552e-06 0.000393593 -0.000146676 -3.10744e-05
0 0.0142051 1.0097e-12 0 0 0
-1.69407e-21 -0.0142052 1.00857e-12 0 0 0
-1.69407e-22 0.0142399 0.000510993 0.000174093 -6.32413e-05 9.13931e-07
5.64689e-23 -0.01424 0.000510997 0.0229423 -0.00861971 -0.000234575
0 -0.0138494 0.00338134 0.0177472 -0.00624436 2.34281e-05
0 0.0138495 0.00338137 0.00024873 -0.000105857 -7.3275e-06
-2.71051e-20 -0.0139915 0.00283632 0.0426034 -0.015371 -0.000311004
5.42101e-20 0.0139915 0.00283633 0.000592419 -0.000243735 -1.50861e-05
0 -0.0138215 0.00367867 0 0 0
-1.35525e-20 0.0138216 0.0036787 0 0 0
0 0.0143091 0.00109617 0.000512454 -0.000200559 -2.53768e-06
2.82344e-22 -0.0143102 0.00109467 0.0447304 -0.0165672 -0.000158666
-1.35525e-20 -0.013893 0.00360484 0.00624442 -0.0021165 -1.10893e-05
0 0.0138931 0.00360489 9.00618e-05 -3.77057e-05 -2.48956e-06
0 -0.0143537 7.6488e-13 0 0 0
-1.69407e-21 0.0143541 7.64998e-13 0 0 0
-1.35525e-20 -0.0139056 0.00372066 0 0 0
0 0.0139057 0.00372068 0 0 0
1.41172e-21 -0.0143405 0.00177729 0.0573711 -0.020911 -0.000389352
-8.47033e-22 0.0143405 0.0017773 0.000745963 -0.000305839 -9.66993e-06
-2.71051e-20 0.014476 0.000224599 1.20805e-06 -6.58113e-07 -1.43116e-06
-5.42101e-20 -0.0144761 0.000224598 0.0091677 -0.00337146 -0.000712813
0 -0.0139819 0.00376071 0 0 0
0 0.013982 0.00376072 0 0 0
0 -0.0140112 0.00368366 0.00554279 -0.0019077 2.74501e-05
1.35525e-20 0.0140113 0.0036837 8.74403e-05 -3.89876e-05 -3.26375e-06
1.12938e-21 -0.0143223 0.00249857 0.0555128 -0.0199708 -0.000396671
1.69407e-21 0.0143224 0.00249858 0.000759154 -0.000313661 -1.34319e-05
-2.71051e-20 0.014582 0.000746675 0.000346257 -0.000124994 2.65412e-06
2.71051e-20 -0.0145821 0.000746673 0.0360262 -0.0134233 9.65851e-06
1.807e-21 -0.0142718 0.00323775 0.0327948 -0.0116902 -0.000168424
-4.51751e-22 0.0142719 0.00323777 0.0004744 -0.000197603 -1.29544e-05
0 -0.0142272 0.00361841 0.0155045 -0.00531241 0.000187295
2.71051e-20 0.0142272 0.00361844 0.000246376 -0.000106347 -1.01015e-05
0 0.0146963 0.000425145 0.000111324 -3.94978e-05 1.2301e-06
3.01167e-21 -0.0146964 0.000425144 0.0208476 -0.00780695 -0.000339041
0 0.0146847 0.00134648 0.000704421 -0.000285107 -8.30396e-06
0 -0.0146847 0.00134648 0.0546219 -0.0202055 -0.000355778
0 0.014768 2.53725e-05 1.34705e-07 -8.23923e-08 -1.5244e-07
0 -0.0147681 2.54118e-05 0.00102066 -0.000370353 -7.81379e-05
0 0.0147706 9.09601e-14 0 0 0
0 -0.0147706 9.09569e-14 0 0 0
-6.77626e-21 0.0148059 6.69883e-15 0 0 0
0 -0.014806 6.66559e-15 0 0 0
0 -0.014659 0.00210816 0.0670944 -0.0241705 -0.000603612
0 0.014659 0.00210816 0.000895932 -0.000372173 -1.03061e-05
-6.77626e-21 -0.0142865 0.00391553 0 0 0
0 0.0142866 0.00391558 0 0 0
0 -0.0143135 0.00388585 0.00261679 -0.000900637 1.29594e-05
-6.77626e-21 0.0143136 0.00388592 4.1263e-05 -1.83983e-05 -1.54016e-06
0 0.0148347 4.54511e-05 2.0308e-07 4.92826e-07 1.6305e-07
0 -0.0148348 4.55279e-05 0.00249325 -0.000955325 -3.26661e-05
0 0.0148461 5.76636e-15 0 0 0
0 -0.0148463 5.73764e-15 0 0 0
0 -0.0143216 0.00393365 0 0 0
0 0.0143217 0.00393369 0 0 0
-6.77626e-21 -0.0143519 0.00395506 0 0 0
6.77626e-21 0.0143519 0.00395508 0 0 0
0 -0.014364 0.00393203 0.00199969 -0.000740563 -2.21515e-05
0 0.0143641 0.00393207 2.84965e-05 -1.19267e-05 -7.52584e-07
-2.71051e-20 -0.014635 0.00283843 0.0578976 -0.0208341 -0.00039776
0 0.014635 0.00283845 0.000820688 -0.000342814 -1.62568e-05
8.47033e-21 0.0144995 0.00366943 0.000335566 -0.000139133 -1.23635e-05
8.47033e-22 0.0145102 0.00366649 0.000338787 -0.000140279 -1.23945e-05
5.64689e-22 -0.0145197 0.00367384 0.0225467 -0.0079896 -3.94378e-05
2.71051e-20 0.0150122 0.000330156 1.80073e-06 1.85452e-06 2.44631e-06
0 -0.0150123 0.000330152 0.0183623 -0.00701141 -0.00028691
1.69407e-21 0.0145873 0.00370018 0.000355097 -0.000146703 -1.30078e-05
-2.71051e-20 -0.0146766 0.00345532 0.0369105 -0.0130978 -0.000450124
5.42101e-20 0.0146766 0.00345534 0.000554621 -0.000225978 -1.73152e-05
1.69407e-22 0.0150077 0.00170828 0.000840454 -0.000348563 -9.26559e-06
-5.64689e-22 -0.0150077 0.00170827 0.0630834 -0.0231007 -0.000390527
6.32451e-21 0.0150925 0.000854694 0.00038112 -0.000153833 -3.35871e-06
9.93852e-21 -0.0150925 0.000854681 0.0378942 -0.0142058 -0.000233997
5.42101e-20 -0.0146272 0.00391091 0.0148471 -0.0054335 0.000155509
0 0.0146272 0.00391095 0.000216948 -8.94348e-05 -1.00397e-05
1.01644e-21 -0.0149891 0.00242097 0.0662127 -0.0240163 -0.000499301
-1.24231e-21 0.0149891 0.00242099 0.000925361 -0.000386878 -1.50586e-05
8.47033e-22 -0.0149586 0.00315962 0.0543323 -0.0194835 -0.000557596
-3.76459e-22 0.0149587 0.00315962 0.000791074 -0.000329317 -1.89658e-05
-6.77626e-21 -0.014702 0.00420283 0 0 0
0 0.0147021 0.00420291 0 0 0
-6.77626e-21 -0.0152975 8.17222e-05 0.00447535 -0.0017148 -5.86353e-05
-6.77626e-21 0.0152978 8.14897e-05 3.64105e-07 8.83594e-07 2.92335e-07
-6.77626e-21 -0.0147323 0.00417569 0.00307389 -0.00113838 -3.4051e-05
0 0.0147325 0.0041758 4.38057e-05 -1.83341e-05 -1.1569e-06
1.35525e-20 -0.015314 2.16441e-15 0 0 0
1.35525e-20 0.0153142 2.17317e-15 0 0 0
0 -0.0147475 0.004235 0 0 0
0 0.0147476 0.00423506 0 0 0
0 -0.014778 0.00425658 0 0 0
-6.77626e-21 0.0147781 0.00425663 0 0 0
0 -0.014793 0.00422587 0.00213188 -0.000744828 3.44007e-05
6.77626e-21 0.0147931 0.00422594 3.79959e-05 -1.57228e-05 -2.11065e-06
0 0.0153882 1.38149e-16 0 0 0
0 -0.0153882 1.36928e-16 0 0 0
1.35525e-20 0.0154217 0.000114547 3.22846e-05 -1.46741e-05 -2.8194e-06
-6.77626e-21 -0.0154218 0.000114884 0.00565904 -0.00233985 -0.000114708
0 -0.0149638 0.00384024 0.0282371 -0.00994151 -0.000225571
-9.41148e-22 0.0149638 0.00384027 0.000427924 -0.000175678 -1.53272e-05
-6.77626e-21 0.0154552 2.28099e-16 0 0 0
-6.77626e-21 -0.0154554 2.28503e-16 0 0 0
0 -0.0148468 0.00430527 0 0 0
6.77626e-21 0.0148469 0.00430529 0 0 0
0 0.0154606 0.00140664 0.000824314 -0.000345881 -5.52234e-06
-2.71051e-20 -0.0154606 0.00140663 0.0623712 -0.0229398 -0.000206885
2.71051e-20 -0.0152777 0.00281385 0.0721935 -0.0262118 -0.000628055
0 0.0152777 0.00281386 0.0010434 -0.000438403 -2.29167e-05
2.71051e-20 0.0154333 0.00193355 0.00101786 -0.00042752 -1.03411e-05
-2.71051e-20 -0.0154333 0.00193355 0.0721893 -0.0266166 -0.000344866
0 0.0156222 0.00048004 0.000161086 -7.16574e-05 -1.05039e-05
-2.71051e-20 -0.0156222 0.000480036 0.0247886 -0.00997804 -0.000425773
2.71051e-20 -0.0152555 0.00350076 0.0548189 -0.0193906 -0.00083762
2.71051e-20 0.0152556 0.00350079 0.000815322 -0.000339743 -2.15738e-05
-1.35525e-20 -0.0150546 0.00445233 0 0 0
6.77626e-21 0.0150547 0.00445239 0 0 0
0 0.0157269 1.65675e-16 0 0 0
6.77626e-21 -0.0157276 1.66089e-16 0 0 0
8.47033e-22 -0.0151604 0.00422301 0.0186047 -0.00639289 9.53816e-05
2.82344e-22 0.0151605 0.00422311 0.000284027 -0.000110098 -1.43782e-05
1.35525e-20 0.0156637 0.00166709 0.000959585 -0.000404001 -1.15278e-05
1.35525e-20 -0.0156637 0.00166709 0.0683523 -0.0252087 -0.000279332
-3.38813e-22 -0.015616 0.00242546 0.0758519 -0.0276955 -0.000556256
3.38813e-22 0.015616 0.00242547 0.00111635 -0.000468998 -2.15209e-05
-5.64689e-22 0.0157781 0.000921737 0.000493521 -0.000209379 -9.16621e-06
7.52918e-22 -0.0157782 0.000921692 0.0425549 -0.016124 -0.000249382
5.64689e-22 -0.0155828 0.00315318 0.0706427 -0.025402 -0.00081288
-5.64689e-22 0.0155828 0.00315319 0.0010537 -0.000441428 -2.71132e-05
6.77626e-21 -0.0152441 0.00458644 0 0 0
0 0.0152443 0.00458654 0 0 0
-6.77626e-21 0.0159533 3.83645e-05 1.80306e-05 -7.75877e-06 -5.77225e-07
-6.77626e-21 -0.0159534 3.82981e-05 0.00220585 -0.000836224 -2.3279e-05
2.71051e-20 0.015843 0.00192285 0.00110867 -0.00046529 -1.41881e-05
2.71051e-20 -0.015843 0.00192286 0.0745995 -0.0273675 -0.000412851
0 0.0159594 2.87839e-17 0 0 0
-6.77626e-21 -0.0159594 2.84889e-17 0 0 0
-2.71051e-20 0.0159064 0.00142308 0.000898932 -0.000381631 -1.40519e-05
2.71051e-20 -0.0159064 0.00142306 0.0643761 -0.0239725 -0.000188885
-1.12938e-21 -0.0155142 0.00388452 0.0457412 -0.0160586 -0.000591074
0 0.0155142 0.00388456 0.000691291 -0.000288221 -2.37308e-05
-1.35525e-20 -0.0153266 0.00464478 0 0 0
0 0.0153267 0.00464485 0 0 0
0 -0.01535 0.0046163 0.00289592 -0.00105758 7.52246e-05
-1.35525e-20 0.0153501 0.00461639 4.43618e-05 -1.84513e-05 -3.34918e-06
0 -0.0153665 0.00467306 0 0 0
-1.35525e-20 0.0153666 0.00467311 0 0 0
-2.71051e-20 0.0160927 0.000505085 0.000219075 -9.1596e-05 -5.13936e-06
0 -0.0160928 0.000505072 0.0278608 -0.011056 -0.000325231
-6.77626e-21 -0.0154309 0.00471863 0 0 0
1.35525e-20 0.015431 0.00471864 0 0 0
6.77626e-21 -0.0161373 9.11538e-18 0 0 0
0 0.0161376 9.31637e-18 0 0 0
-1.35525e-20 -0.0154622 0.00464659 0.0061411 -0.00195371 -0.00011649
0 0.0154622 0.00464666 9.37581e-05 -3.89805e-05 -3.24e-06
-7.05861e-22 -0.0155558 0.00433293 0.0280141 -0.00968942 -0.000235866
2.82344e-22 0.0155559 0.00433296 0.000423026 -0.000176218 -1.81308e-05
0 -0.0159329 0.00276854 0.0830773 -0.0302678 -0.000748999
0 0.0159329 0.00276855 0.00126692 -0.000532223 -2.97452e-05
5.42101e-20 -0.015876 0.00349495 0.0728437 -0.0258922 -0.0010326
0 0.015876 0.00349497 0.0010958 -0.000458173 -3.40471e-05
2.82344e-22 -0.0163022 0.00169287 0.0711854 -0.0263587 -0.00022927
1.41172e-22 0.0163022 0.00169287 0.00107202 -0.000452302 -1.95952e-05
5.42101e-20 -0.0158805 0.00413133 0.0512895 -0.0179431 -0.000796926
-2.71051e-20 0.0158806 0.00413135 0.000764849 -0.0003236 -2.76511e-05
-2.71051e-20 -0.0157464 0.00463062 0.0207999 -0.00687274 -0.000301278
2.71051e-20 0.0157465 0.00463067 0.000304311 -0.000127685 -1.11075e-05
-1.35525e-20 -0.0156844 0.004898 0 0 0
-1.35525e-20 0.0156845 0.0048981 0 0 0
0 -0.0164403 0.000192195 0.0104366 -0.0042109 -0.000126209
0 0.0164404 0.000192073 8.08511e-05 -3.3415e-05 -1.62401e-06
-1.35525e-20 -0.0164599 2.18737e-18 0 0 0
1.35525e-20 0.0164599 2.23707e-18 0 0 0
1.12938e-21 -0.0163055 0.00229239 0.0816133 -0.0299043 -0.000502556
0 0.0163055 0.00229239 0.00127108 -0.000536306 -3.04379e-05
0 -0.0157621 0.0048391 0.0074274 -0.00236293 -0.00014089
1.35525e-20 0.0157621 0.00483922 0.000113407 -4.71494e-05 -3.91899e-06
0 -0.0164587 0.00103727 0.048846 -0.0185165 -0.000174444
6.77626e-21 0.0164587 0.00103728 0.000641576 -0.000267672 -1.11221e-05
1.12938e-22 -0.0162201 0.00310503 0.0834654 -0.0301411 -0.000753433
3.38813e-22 0.0162201 0.00310505 0.00129597 -0.000546774 -4.02673e-05
-2.71051e-20 -0.0157673 0.00495663 0 0 0
0 0.0157673 0.00495668 0 0 0
1.35525e-20 0.0165552 1.89118e-18 0 0 0
1.35525e-20 -0.0165552 1.82985e-18 0 0 0
1.35525e-20 0.0158425 0.00500991 0 0 0
-1.35525e-20 -0.0158425 0.00500989 0 0 0
0 0.0158774 0.00492677 0.000113636 -5.05395e-05 -5.94169e-06
0 -0.0158775 0.00492671 0.00737869 -0.00236552 -6.92203e-05
-2.25875e-21 -0.0161858 0.00381853 0.0710776 -0.0251768 -0.000831634
5.64689e-22 0.0161859 0.00381855 0.00107373 -0.000453611 -4.03656e-05
0 0.0166929 0.000101665 5.80945e-05 -2.3676e-05 -8.45947e-08
1.35525e-20 -0.0166931 0.000101735 0.00606603 -0.00242703 7.81905e-06
-1.35525e-20 0.0166941 -1.9757e-18 0 0 0
1.35525e-20 -0.0166943 -1.99904e-18 0 0 0
9.03502e-22 -0.0161388 0.00451629 0.0409225 -0.0141226 -0.000447816
-1.12938e-21 0.0161388 0.00451633 0.000604914 -0.000257155 -2.7149e-05
0 -0.0165511 0.0027628 0.0902402 -0.0329771 -0.000548195
0 0.0165511 0.0027628 0.00144628 -0.000615267 -4.64658e-05
2.71051e-20 -0.0160804 0.00488839 0.0188747 -0.00594952 -2.41008e-05
0 0.0160804 0.00488844 0.000297015 -0.000129129 -1.70784e-05
-5.42101e-20 -0.0165195 0.00345964 0.0877876 -0.0313581 -0.000750402
-2.71051e-20 0.0165195 0.00345965 0.00137475 -0.000581298 -5.28143e-05
0 -0.0160927 0.00518691 0 0 0
0 0.0160929 0.00518705 0 0 0
0 -0.0161328 0.00514885 0.00454199 -0.00145611 -4.26089e-05
0 0.0161329 0.00514907 6.9855e-05 -3.10679e-05 -3.6525e-06
6.77626e-21 -0.0161376 0.0052187 0 0 0
6.77626e-21 0.0161377 0.00521878 0 0 0
-2.71051e-20 -0.0164852 0.00415081 0.0737366 -0.026009 -0.000743576
0 0.0164853 0.00415084 0.00108291 -0.00046123 -4.7869e-05
-6.77626e-21 -0.0161812 0.00524952 0 0 0
-6.77626e-21 0.0161812 0.00524953 0 0 0
-6.77626e-21 -0.0162 0.00521518 0.00397051 -0.00145908 -3.25089e-05
0 0.0162 0.00521526 5.03347e-05 -2.18623e-05 -2.33987e-06
0 0.0169483 0.00175217 0.00123015 -0.000518026 -2.76034e-05
-5.42101e-20 -0.0169483 0.00175217 0.0751187 -0.027921 -0.00013788
-1.41172e-22 0.0168946 0.00247379 0.0014613 -0.000624558 -4.66954e-05
-2.82344e-22 -0.0168959 0.00247492 0.0881591 -0.0322893 -0.00036948
0 0.0170685 0.000542394 0.000344683 -0.000129615 1.68461e-06
-5.42101e-20 -0.0170686 0.000542393 0.0327913 -0.0128564 -4.47211e-05
-5.64689e-22 -0.016348 0.00494369 0.0289339 -0.00997388 -0.000106132
1.41172e-22 0.0163681 0.00495112 0.000431221 -0.000184622 -2.4843e-05
8.47033e-22 -0.0168537 0.00309992 0.0923131 -0.0333898 -0.000475049
-2.82344e-22 0.0168537 0.00309993 0.00150661 -0.000645073 -5.64164e-05
0 -0.0165271 0.00473647 0.0484926 -0.0169188 -0.000530068
-2.71051e-20 0.0165271 0.0047365 0.000701552 -0.000296972 -3.68829e-05
5.64689e-22 -0.0168198 0.00379489 0.0879316 -0.0313552 -0.000494928
0 0.0168198 0.00379489 0.00136551 -0.000586991 -6.19728e-05
0 -0.0164532 0.00518907 0.0201573 -0.00733331 0.000213273
0 0.0164532 0.0051891 0.000266809 -0.000114943 -1.77906e-05
-1.35525e-20 -0.0164986 0.00547411 0 0 0
1.35525e-20 0.0164987 0.0054742 0 0 0
0 -0.0168074 0.0044544 0.0712314 -0.0251977 -0.000507083
-3.38813e-21 0.0168075 0.00445442 0.00103839 -0.000449034 -5.42081e-05
1.35525e-20 -0.0165401 0.00543882 0.00538473 -0.00197878 -4.40879e-05
1.35525e-20 0.0165402 0.00543896 6.83059e-05 -2.96679e-05 -3.17528e-06
2.71051e-20 0.0171982 0.00274291 0.00160379 -0.000692409 -5.67451e-05
-2.71051e-20 -0.0171982 0.00274291 0.0932644 -0.0340491 -0.000321339
0 -0.0165562 0.00551488 0 0 0
0 0.0165562 0.0055149 0 0 0
0 -0.0171475 0.00343443 0.0977088 -0.0350801 -0.000292882
5.42101e-20 0.0171475 0.00343443 0.00159806 -0.000689598 -6.92681e-05
0 0.0165954 0.00554259 0 0 0
-1.35525e-20 -0.0165954 0.00554261 0 0 0
0 0.0166162 0.00550295 5.83903e-05 -2.55618e-05 -5.09395e-06
-1.35525e-20 -0.0166162 0.00550291 0.00363735 -0.00122063 0.000102601
8.47033e-23 -0.0167942 0.00511228 0.0390352 -0.0137317 -2.77204e-05
-6.27432e-22 0.0168034 0.00511576 0.000551957 -0.000238517 -3.48161e-05
0 0.0166838 0.00560512 0 0 0
-6.77626e-21 -0.0166839 0.00560521 0 0 0
-5.42101e-20 -0.0171381 0.00410853 0.0922538 -0.0328842 -0.000198673
0 0.0171382 0.00410853 0.00140307 -0.000614268 -7.74808e-05
6.77626e-21 -0.0176356 5.15747e-05 0.0030752 -0.00123039 3.9639e-06
-6.77626e-21 0.0176356 5.15594e-05 2.94627e-05 -1.20073e-05 -4.29024e-08
0 -0.0176365 -8.88394e-19 0 0 0
0 0.0176365 -8.80501e-19 0 0 0
-1.12938e-21 -0.0176257 0.00114318 0.05514 -0.0206867 -2.81553e-05
0 0.0176257 0.00114318 0.000849527 -0.00034704 -1.30464e-05
-6.77626e-21 0.017701 -1.17471e-20 0 0 0
0 -0.017701 -1.19998e-20 0 0 0
0 0.0177564 5.70206e-05 4.47222e-05 -1.71079e-05 -1.67634e-07
6.77626e-21 -0.0177564 5.70366e-05 0.00357292 -0.00140097 6.26222e-07
0 -0.0174948 0.00304299 0.0955274 -0.0345252 -3.37666e-05
-7.05861e-23 0.0174948 0.003043 0.00163552 -0.000709296 -6.81727e-05
-2.71051e-20 -0.0171005 0.00478727 0.0734814 -0.0260834 -0.000528953
2.71051e-20 0.0171005 0.00478729 0.00101398 -0.000445227 -5.75738e-05
0 0.01776 -9.77488e-21 0 0 0
0 -0.01776 -9.99454e-21 0 0 0
-5.64689e-22 -0.0176226 0.00231708 0.0872149 -0.0317983 5.05942e-05
0 0.0176226 0.00231708 0.00151612 -0.000650932 -5.13571e-05
6.77626e-21 -0.016865 0.00573336 0 0 0
1.35525e-20 0.0168651 0.00573338 0 0 0
-1.12938e-21 -0.0169917 0.00554745 0.0243098 -0.00851325 0.000563842
0 0.0169918 0.00554746 0.000320088 -0.000133183 -2.69975e-05
0 -0.0175404 0.00368248 0.0985719 -0.03531 0.000155419
1.12938e-21 0.0175404 0.00368248 0.00159596 -0.000701295 -8.39338e-05
-5.64689e-22 -0.0174309 0.00445116 0.0913542 -0.0326082 5.26282e-05
5.64689e-22 0.0174309 0.00445117 0.00134895 -0.000599002 -8.13007e-05
1.35525e-20 -0.0170276 0.00584842 0 0 0
0 0.0170278 0.0058485 0 0 0
-3.38813e-21 -0.0173594 0.00515914 0.0625237 -0.0222474 7.73673e-05
2.25875e-21 0.0173594 0.00515917 0.000846927 -0.000377968 -5.84776e-05
1.35525e-20 -0.0171315 0.00592198 0 0 0
0 0.0171316 0.00592202 0 0 0
-1.35525e-20 -0.0171628 0.0058861 0.00530084 -0.00201775 0.000266983
2.71051e-20 0.0171629 0.00588616 6.66637e-05 -3.02501e-05 -8.07107e-06
0 -0.0171821 0.00595789 0 0 0
-1.35525e-20 0.0171822 0.00595791 0 0 0
2.71051e-20 -0.017769 0.00410415 0.104102 -0.0373707 0.000563859
0 0.017769 0.00410415 0.00164702 -0.000736698 -9.89964e-05
-5.42101e-20 -0.0182634 0.000578943 0.03659 -0.0141953 -2.80446e-05
-1.0842e-19 0.0182634 0.000578939 0.000468748 -0.000176579 -1.30504e-06
0 0.0173972 0.0056105 0.000509943 -0.000230814 -4.13831e-05
0 -0.0173983 0.00561199 0.0398677 -0.0143076 0.000367863
0 -0.0172648 0.00601707 0 0 0
0 0.0172648 0.00601705 0 0 0