# UMean  POINT_DATA 31572
# x  y  z  UMean_x  UMean_y  UMean_z
0.0292381 0 8.09214e-08 0 0 0
-0.0292381 0 8.09214e-08 0 0 0
0.0292381 -3.38813e-21 0.000233596 0 0 0
-0.0292381 3.38813e-21 0.000233441 0 0 0
0.029238 -3.38813e-21 0.000431066 0 0 0
-0.0292381 0 0.000430751 0 0 0
0.029238 -1.35525e-20 0.000664138 0 0 0
-0.029238 -6.77626e-21 0.000663676 0 0 0
0.029238 -3.38813e-21 0.000908366 0 0 0
-0.029238 0 0.000907922 0 0 0
-0.029238 -3.38813e-21 0.00111494 0 0 0
0.029238 3.38813e-21 0.00111544 0 0 0
-0.029238 0 0.00135903 0 0 0
0.0292379 0 0.00135951 0 0 0
-0.0292379 -3.38813e-21 0.00161391 0 0 0
0.0292379 0 0.00161421 0 0 0
-0.0292379 3.38813e-21 0.00183185 0 0 0
0.0292379 3.38813e-21 0.00183203 0 0 0
0.0292379 1.35525e-20 0.002087 0 0 0
-0.0292379 -1.35525e-20 0.002087 0 0 0
-0.0293159 -1.01644e-20 0.000332812 0.000418699 -0.000153154 -1.50356e-07
0.0293159 1.69407e-20 0.000333044 1.54233e-06 -4.54912e-07 -3.77353e-08
-0.0293201 -3.38813e-21 0.00100457 0.000901286 -0.000354551 6.53133e-06
0.0293201 1.35525e-20 0.00100504 2.40649e-05 -9.64181e-06 2.09934e-07
-0.0293199 0 0.0017002 0.000843972 -0.000340554 4.16239e-05
0.0293199 3.38813e-21 0.00170046 2.55768e-05 -9.99389e-06 -1.36744e-06
-0.0294721 0 0.000122211 0.00125876 -0.000460436 -4.52023e-07
0.0294722 1.35525e-20 0.000122307 4.63678e-06 -1.36762e-06 -1.13445e-07
-0.0294728 0 7.47975e-08 0 0 0
0.0294728 0 7.47971e-08 0 0 0
-0.0294797 1.35525e-20 0.000527785 0.00129897 -0.000475144 -4.66462e-07
0.0294797 -1.35525e-20 0.000528144 4.78497e-06 -1.41133e-06 -1.17071e-07
-0.0294753 -1.35525e-20 0.000796291 0.00260308 -0.00102401 1.88637e-05
0.0294753 1.35525e-20 0.000796753 6.94937e-05 -2.78433e-05 6.06239e-07
-0.0294755 2.03288e-20 0.00118666 0.00260699 -0.00102554 1.8892e-05
0.0294755 0 0.00118714 6.95992e-05 -2.78856e-05 6.07159e-07
-0.0294683 -1.35525e-20 0.00147414 0.00237214 -0.000957189 0.000116992
0.0294683 -1.35525e-20 0.00147454 7.18828e-05 -2.80875e-05 -3.84315e-06
-0.0294625 -6.77626e-21 0.00186309 0.00231306 -0.000933351 0.000114078
0.0294626 -6.77626e-21 0.00186328 7.00905e-05 -2.73872e-05 -3.74732e-06
-0.029578 1.35525e-20 6.64178e-08 0 0 0
0.029578 0 6.64171e-08 0 0 0
-0.0295009 -1.35525e-20 0.00213468 0 0 0
0.0295009 6.77626e-21 0.00213468 0 0 0
-0.029587 1.35525e-20 0.000650836 0.00269668 -0.00100716 2.576e-05
0.0295871 -2.71051e-20 0.00065131 5.39733e-05 -2.18028e-05 9.63834e-07
-0.0295378 1.35525e-20 0.00203786 0.00185277 -0.000817089 8.54861e-05
0.0295378 1.35525e-20 0.00203793 5.71123e-05 -2.58747e-05 -4.0337e-06
-0.029584 -2.71051e-20 0.00130565 0.00375682 -0.00143083 4.82422e-05
0.0295841 0 0.00130618 0.000111195 -4.30451e-05 -1.32284e-06
-0.0295849 -1.35525e-20 0.00192058 0.00319223 -0.00123659 4.89991e-05
0.0295849 6.77626e-21 0.00192076 9.94833e-05 -3.9687e-05 -4.48912e-06
0.029649 0 0.00216152 0 0 0
-0.029649 0 0.00216152 0 0 0
-0.0297926 4.51751e-22 0.000963661 0.00559023 -0.00195669 0.000121346
0.0297927 1.807e-21 0.000964146 0.000156533 -5.46987e-05 -1.84292e-06
-0.0298093 -1.35525e-20 7.62609e-08 0 0 0
0.0298093 -2.71051e-20 7.62598e-08 0 0 0
-0.0298204 9.03502e-22 0.000317447 0.00295087 -0.00103116 4.38569e-05
0.0298205 1.12938e-21 0.000317662 2.00383e-05 -7.46248e-06 -2.53127e-07
-0.0297852 -4.51751e-22 0.00156826 0.00530866 -0.00188676 -1.87731e-05
0.0297852 1.807e-21 0.00156862 0.000167961 -6.02092e-05 -1.60214e-06
-0.0297946 5.0822e-21 0.00197115 0.00359303 -0.0013138 -7.46151e-06
0.0297946 3.38813e-21 0.0019713 0.000109024 -3.99151e-05 -2.32756e-06
-0.029885 -3.38813e-21 8.57338e-08 0 0 0
0.0298851 -3.38813e-21 8.5738e-08 0 0 0
0.0298185 -6.77626e-21 0.00219226 0 0 0
-0.0298186 -2.71051e-20 0.00219226 0 0 0
-0.0299229 0 0.00221118 0 0 0
0.0299229 -1.35525e-20 0.00221118 0 0 0
-0.0300582 0 1.01023e-07 0 0 0
0.0300583 0 1.01025e-07 0 0 0
-0.030042 0 0.00125419 0.00783186 -0.00286972 2.74358e-06
0.0300421 -9.03502e-21 0.00125463 0.000234313 -8.74068e-05 -5.77781e-07
-0.030023 7.7443e-21 0.00171052 0.00689891 -0.00250054 -6.12384e-05
0.0300231 -4.84019e-21 0.0017108 0.000219825 -8.15224e-05 -8.47524e-07
-0.0300766 0 0.00065666 0.00632508 -0.00224631 3.16631e-05
0.0300767 4.51751e-21 0.000657051 0.000131272 -4.83047e-05 -7.18852e-07
-0.0301411 -6.77626e-21 0.000117994 0.00115301 -0.000431587 -1.42204e-05
0.0301411 6.77626e-21 0.000117999 4.22686e-06 -1.67439e-06 1.97921e-07
-0.030143 0 9.36904e-08 0 0 0
0.0301431 0 9.3697e-08 0 0 0
-0.0300722 1.35525e-20 0.00223823 0 0 0
0.0300722 -1.35525e-20 0.00223824 0 0 0
-0.0302709 -1.35525e-20 0.000327812 0.00431235 -0.00157396 -2.14042e-05
0.0302709 0 0.000327976 1.00769e-05 -3.88145e-06 4.29589e-07
-0.0302588 0 0.000959195 0.00875013 -0.00323522 -4.54568e-05
0.0302588 0 0.000959517 0.000239256 -9.02464e-05 7.78387e-07
-0.0302233 -2.25875e-21 0.00199374 0.00559456 -0.00219884 -4.21978e-05
0.0302233 -1.12938e-21 0.00199386 0.00017636 -6.52313e-05 3.52451e-06
-0.0302513 0 0.00155258 0.00856719 -0.00318795 -5.9663e-05
0.0302514 0 0.00155284 0.000276723 -0.000103949 2.82805e-06
0.0303944 -1.01644e-20 0.00229663 0 0 0
-0.0303944 0 0.00229664 0 0 0
-0.0305071 -3.38813e-21 4.03686e-05 0.000394513 -0.000147671 -4.86563e-06
0.0305071 3.38813e-21 4.03653e-05 1.44608e-06 -5.72835e-07 6.77119e-08
-0.0305084 0 2.78813e-08 0 0 0
0.0305085 0 2.78788e-08 0 0 0
-0.0305355 0 2.44807e-08 0 0 0
0.0305355 -3.38813e-21 2.44807e-08 0 0 0
0.030464 0 0.00230926 0 0 0
-0.030464 3.38813e-20 0.00230926 0 0 0
0.0305559 -3.38813e-21 2.5605e-08 0 0 0
-0.0305559 0 2.56056e-08 0 0 0
0.0305566 0 2.16951e-05 7.01927e-07 -3.12653e-07 -4.39642e-08
-0.0305566 0 2.17024e-05 0.000239067 -9.31703e-05 2.39386e-07
-0.0305496 7.05861e-23 0.00065626 0.00785003 -0.00287829 -4.23479e-05
0.0305496 -1.41172e-22 0.000656486 0.000152213 -5.69651e-05 6.40218e-07
-0.0305132 0 0.00170668 0.00924071 -0.00341206 4.83246e-06
0.0305132 3.76459e-22 0.00170684 0.00029411 -0.000110466 1.15082e-06
-0.0305476 -1.12938e-22 0.00124506 0.010719 -0.00392432 -3.67231e-05
0.0305476 -2.25875e-22 0.00124529 0.000317843 -0.000119063 9.81221e-07
-0.030501 -6.77626e-21 0.00231596 0 0 0
0.030501 0 0.00231596 0 0 0
0.0306237 0 3.57389e-08 0 0 0
-0.0306238 0 3.5746e-08 0 0 0
-0.0306099 0 0.0021928 0.0033208 -0.00119801 7.80786e-05
0.03061 0 0.00219279 0.000101367 -3.84173e-05 -6.99677e-08
-0.0307225 -3.38813e-21 0.00235612 0 0 0
0.0307226 0 0.00235614 0 0 0
-0.0308383 2.71051e-20 0.000320901 0.0055411 -0.00204207 -5.84685e-05
0.0308383 5.42101e-20 0.000320968 8.17374e-06 -3.32086e-06 -7.56712e-07
-0.0308116 -2.25875e-21 0.00198356 0.00854253 -0.00311223 0.000146496
0.0308116 1.12938e-21 0.00198362 0.000264775 -0.00010008 -9.52272e-08
-0.0309907 0 0.0010195 0.0134849 -0.00495745 -3.52591e-05
0.0309907 -2.71051e-21 0.00101961 0.000371866 -0.00013681 1.48372e-06
-0.0309922 0 0.00150595 0.0139601 -0.00512072 5.62258e-05
0.0309922 4.51751e-21 0.00150605 0.000442765 -0.000165476 -4.1268e-06
-0.0310394 0 9.17162e-08 0 0 0
0.0310395 0 9.17132e-08 0 0 0
-0.0310415 0 0.000119361 0.00261977 -0.000944499 -3.9074e-05
0.0310416 0 0.000119404 2.41778e-06 -8.68538e-07 -3.10877e-07
-0.030965 0 0.00240008 0 0 0
0.030965 0 0.00240009 0 0 0
-0.030982 0 0.00237269 0.000929706 -0.000357848 2.32104e-05
0.030982 0 0.00237271 3.31755e-05 -1.33191e-05 -4.5403e-07
0.0310104 6.77626e-21 0.00240832 0 0 0
-0.0310104 -6.77626e-21 0.00240832 0 0 0
0.0310179 6.77626e-21 0.00233587 5.61688e-05 -2.15917e-05 -6.07616e-07
-0.0310179 6.77626e-21 0.00233584 0.00174726 -0.000639524 7.22486e-06
-0.0311223 9.03502e-21 0.000639224 0.0102379 -0.003858 -2.84236e-05
0.0311223 -9.03502e-21 0.000639291 0.000203464 -7.76014e-05 2.6012e-06
0.0310526 6.77626e-21 0.00237692 4.69923e-05 -2.00469e-05 -1.27023e-06
-0.0310526 6.77626e-21 0.00237691 0.00129952 -0.000492887 2.20163e-05
-0.0311458 1.35525e-20 9.71539e-08 0 0 0
0.0311459 0 9.71521e-08 0 0 0
0.031071 0 0.00241931 0 0 0
-0.0310711 6.77626e-21 0.00241931 0 0 0
-0.0312091 -2.71051e-20 0.00177609 0.0126043 -0.00478557 0.000162733
0.0312091 -2.71051e-20 0.00177613 0.000407348 -0.000159255 -9.98703e-06
-0.0312491 0 0.00122869 0.0151026 -0.00571334 7.0402e-05
0.0312491 0 0.00122876 0.000446772 -0.000171864 -3.76776e-06
-0.0312857 0 8.40765e-08 0 0 0
0.0312858 -1.35525e-20 8.4069e-08 0 0 0
-0.0312916 0 0.000133791 0.00329773 -0.00124773 2.30174e-05
0.0312917 1.35525e-20 0.000133817 2.747e-06 -1.22854e-06 3.59984e-07
-0.0313889 9.03502e-21 0.00201496 0.0115893 -0.00414237 0.000117861
0.0313889 2.25875e-21 0.00201499 0.000377575 -0.000140577 -8.1978e-06
-0.0313958 6.77626e-21 0.00247818 0 0 0
0.0313958 0 0.00247818 0 0 0
-0.0314932 0 0.00040878 0.00824174 -0.00314165 4.93833e-05
0.0314932 0 0.000408784 8.18931e-05 -3.2599e-05 1.27765e-06
-0.0315059 0 0.000915866 0.015398 -0.00577759 7.89705e-05
0.0315059 -6.77626e-21 0.000915906 0.000412671 -0.000153499 -4.58741e-06
-0.0314281 0 0.00241762 0.00220937 -0.000837977 3.74308e-05
0.0314281 0 0.00241764 7.98965e-05 -3.40839e-05 -2.15964e-06
-0.0315016 0 0.00151814 0.0169889 -0.0063368 1.95403e-05
0.0315016 1.12938e-20 0.00151817 0.000542074 -0.00020338 -7.64387e-06
0.0314986 -1.35525e-20 0.00234883 0.000121193 -4.63213e-05 -1.43987e-06
-0.0314986 -1.35525e-20 0.00234879 0.00372879 -0.00136363 -2.50674e-07
0.0315086 0 0.00249863 0 0 0
-0.0315086 2.71051e-20 0.00249863 0 0 0
0.0316957 1.35525e-20 0.0001271 2.61047e-06 -1.16748e-06 3.42092e-07
-0.0316957 0 0.000127012 0.00313224 -0.00118512 2.18624e-05
0.0316993 0 1.28441e-08 0 0 0
-0.0316993 0 1.28327e-08 0 0 0
-0.0317724 0 0.000610883 0.0122009 -0.00454984 6.35399e-05
0.0317724 2.71051e-20 0.000610893 0.000244464 -9.49162e-05 6.82846e-08
-0.0317679 0 0.00121729 0.0177588 -0.00664783 4.49976e-05
0.0317679 0 0.0012173 0.000532913 -0.000205009 -4.22396e-06
-0.0317537 0 0.00187022 0.0147688 -0.00549585 4.43996e-05
0.0317537 2.71051e-20 0.00187023 0.000485577 -0.000186741 -8.1948e-06
0.0317093 2.71051e-20 0.00253502 0 0 0
-0.0317093 -2.71051e-20 0.00253502 0 0 0
-0.0318341 -1.35525e-20 3.55262e-10 0 0 0
0.0318342 1.35525e-20 3.5768e-10 0 0 0
0.0317532 -1.8823e-22 0.00228382 0.000306112 -0.000105617 -9.04086e-06
-0.0317532 -3.76459e-22 0.00228381 0.00883425 -0.0030942 0.000124859
-0.0319513 -1.35525e-20 4.55429e-10 0 0 0
0.0319515 1.35525e-20 4.57735e-10 0 0 0
-0.0319524 1.35525e-20 0.000127633 0.0035445 -0.001344 2.47478e-05
0.0319526 0 0.000127717 2.65162e-06 -1.11249e-06 -6.80423e-08
-0.0318828 0 0.00256647 0 0 0
0.0318828 0 0.00256647 0 0 0
-0.0319995 4.51751e-21 0.0009146 0.0177566 -0.00658072 3.74923e-05
0.0319996 4.51751e-21 0.000914606 0.000472933 -0.000182301 -1.91768e-06
-0.0320112 0 0.000400505 0.00905444 -0.00340223 5.83887e-05
0.0320112 0 0.0004005 7.34315e-05 -2.88541e-05 1.8629e-07
0.0320267 -2.25875e-21 0.00227705 0.000343256 -0.000127055 -5.23965e-06
-0.0320267 -1.12938e-21 0.00227704 0.00984768 -0.00360442 0.000116295
0.0320296 0 0.00251382 0.000100478 -3.65222e-05 -1.94193e-06
-0.0320296 -2.71051e-20 0.00251381 0.0029812 -0.00100447 3.18954e-05
-0.0320975 2.25875e-21 0.00153739 0.020419 -0.00754117 -9.76429e-05
0.0320975 -2.25875e-21 0.0015374 0.000652448 -0.00024955 8.0671e-07
-0.0320427 1.35525e-20 0.00259543 0 0 0
0.0320427 -6.77626e-21 0.00259544 0 0 0
-0.0321203 -4.51751e-21 0.00203437 0.0150866 -0.0056011 7.14396e-05
0.0321203 0 0.00203437 0.000511377 -0.000192263 -4.20378e-06
-0.032135 0 0.00238954 0.00720827 -0.00263295 0.000146642
0.032135 0 0.00238955 0.000260191 -9.8742e-05 -4.0933e-06
0.0322923 1.35525e-20 0.000126387 2.62398e-06 -1.10089e-06 -6.73331e-08
-0.0322923 1.35525e-20 0.000126365 0.00350924 -0.00133063 2.45017e-05
0.0323016 1.35525e-20 2.23457e-09 0 0 0
-0.0323016 -1.35525e-20 2.23356e-09 0 0 0
-0.0322103 -6.77626e-21 0.00262582 0 0 0
0.0322103 1.35525e-20 0.00262583 0 0 0
-0.0322717 0 0.00254335 0.00352137 -0.00118647 3.76745e-05
0.0322718 -1.35525e-20 0.00254336 0.000118685 -4.31405e-05 -2.29383e-06
-0.032418 0 2.33101e-09 0 0 0
0.032418 -1.35525e-20 2.33195e-09 0 0 0
-0.0324263 2.25875e-21 0.000612604 0.0144006 -0.00528983 -3.27172e-05
0.0324263 -4.51751e-21 0.000612601 0.000278916 -0.000106834 -2.05846e-07
-0.0324222 -1.807e-20 0.00112452 0.0211929 -0.00775249 -5.08462e-05
0.0324222 -4.51751e-21 0.00112451 0.000604618 -0.000231396 -3.77857e-07
-0.032412 0 0.00187553 0.0186464 -0.00685924 1.47453e-05
0.0324121 5.42101e-20 0.00187553 0.000616463 -0.000236357 -2.54106e-06
-0.0323801 0 0.0026566 0 0 0
0.0323802 -1.35525e-20 0.00265661 0 0 0
-0.0324113 1.69407e-21 0.00229689 0.0114181 -0.00419738 9.54114e-05
0.0324113 1.12938e-21 0.0022969 0.000397774 -0.00015092 -3.11503e-06
-0.032547 1.35525e-20 2.20754e-09 0 0 0
0.032547 -1.35525e-20 2.20837e-09 0 0 0
-0.0325489 0 0.000125731 0.0037706 -0.00139759 -3.3162e-05
0.0325489 0 0.00012575 2.69387e-06 -1.20224e-06 1.08337e-08
-0.0326035 -6.77626e-21 0.00269705 0 0 0
0.0326035 -6.77626e-21 0.00269706 0 0 0
-0.032737 2.71051e-20 0.00030837 0.00858798 -0.00316338 -8.71449e-05
0.032737 0 0.000308358 6.56135e-06 -2.7891e-06 -2.23197e-07
-0.0327282 -2.25875e-21 0.00154832 0.0242308 -0.00883618 -6.50151e-06
0.0327282 6.77626e-21 0.00154831 0.000763794 -0.000294047 -2.97281e-06
-0.0326737 -9.03502e-21 0.00254228 0.00641145 -0.00227086 -2.61478e-05
0.0326738 -9.03502e-21 0.00254228 0.000217773 -8.03084e-05 -2.90111e-07
-0.0327075 -1.35525e-20 0.00206775 0.0181324 -0.00666899 9.99334e-05
0.0327075 -4.51751e-21 0.00206775 0.000621095 -0.000237618 -3.3568e-06
-0.032708 -2.71051e-20 0.002716 0 0 0
0.0327081 0 0.00271601 0 0 0
-0.0328421 -9.03502e-21 0.000917741 0.0215846 -0.00787522 -8.31587e-05
0.0328421 0 0.000917735 0.000570175 -0.000218464 -3.89538e-07
-0.0328866 0 1.93643e-09 0 0 0
0.0328867 0 1.93682e-09 0 0 0
-0.032889 0 0.000149427 0.00448125 -0.001661 -3.94121e-05
0.032889 1.35525e-20 0.000149442 3.20141e-06 -1.42875e-06 1.28749e-08
-0.0329824 -7.7443e-21 0.000542132 0.0133626 -0.00490003 -4.46616e-05
0.0329824 5.80823e-21 0.00054211 0.000208332 -7.92646e-05 -5.01937e-07
-0.0330371 -2.71051e-20 1.79015e-09 0 0 0
0.0330372 -1.35525e-20 1.79044e-09 0 0 0
-0.0329464 0 0.00275916 0 0 0
0.0329464 0 0.00275917 0 0 0
-0.0329864 3.38813e-22 0.00235373 0.0138105 -0.00511639 7.65356e-05
0.0329864 -1.12938e-22 0.00235373 0.000484016 -0.000186763 -5.1686e-06
-0.0330505 -2.71051e-20 0.00123121 0.0247645 -0.00901981 -2.97257e-05
0.0330505 0 0.00123119 0.000736667 -0.000282021 -3.46229e-06
-0.03302 -2.71051e-20 0.00190069 0.021957 -0.00801676 3.32603e-05
0.03302 2.71051e-20 0.00190069 0.000727915 -0.000281197 -6.78087e-06
-0.0332006 -1.35525e-20 2.0216e-09 0 0 0
0.0332007 -2.71051e-20 2.02177e-09 0 0 0
-0.0333521 2.25875e-21 0.000302612 0.00876456 -0.00322249 2.95949e-06
0.0333521 -9.03502e-21 0.000302604 6.70523e-05 -2.56762e-05 -1.58241e-07
-0.0333579 9.03502e-21 0.000916469 0.0232523 -0.00848805 1.29104e-05
0.0333579 2.25875e-21 0.000916441 0.000619879 -0.000239642 -2.48771e-06
0.0332522 6.77626e-21 0.00281453 0 0 0
-0.0332522 2.37169e-20 0.00281452 0 0 0
-0.0333432 4.51751e-21 0.00156281 0.0275251 -0.0100584 -2.76119e-05
0.0333432 9.03502e-21 0.0015628 0.000876053 -0.000339784 -6.40146e-06
-0.0332953 0 0.00276394 0.00244353 -0.000954558 1.38666e-05
0.0332953 0 0.00276393 8.57166e-05 -3.28591e-05 -6.74713e-07
-0.0333121 1.35525e-20 0.00282536 0 0 0
0.0333121 0 0.00282536 0 0 0
-0.03334 -1.01644e-20 0.00259806 0.00940185 -0.00364394 5.86848e-05
0.03334 -1.12938e-21 0.00259806 0.000331133 -0.000127514 -3.25926e-06
-0.0333776 -1.12938e-20 0.00214892 0.0209926 -0.00772494 5.49493e-05
0.0333777 2.25875e-21 0.00214893 0.000726025 -0.000277072 -1.06623e-05
-0.0334909 0 2.97205e-09 0 0 0
0.0334909 -2.71051e-20 2.97158e-09 0 0 0
-0.0336619 -2.71051e-20 3.2006e-09 0 0 0
0.0336619 0 3.20002e-09 0 0 0
0.0336674 -2.71051e-20 0.000602311 0.000345618 -0.000133174 -1.88507e-06
-0.0336674 0 0.000602349 0.0172546 -0.00633833 4.20459e-05
0.0336288 -2.71051e-20 0.00191753 0.000850537 -0.000328858 -9.60056e-06
-0.0336288 0 0.00191754 0.0253113 -0.00926062 -1.98721e-05
0.0336642 0 0.00123321 0.000828392 -0.000319914 -5.29338e-06
-0.0336642 -2.71051e-20 0.00123324 0.0275483 -0.0100793 -1.34993e-05
-0.0335885 -2.71051e-20 0.00287539 0 0 0
0.0335885 0 0.00287539 0 0 0
-0.0336882 0 0.0024221 0.0164389 -0.0060709 8.90601e-05
0.0336883 0 0.00242211 0.000580959 -0.000224607 -9.99286e-06
-0.0338384 -1.35525e-20 2.82155e-09 0 0 0
0.0338384 1.35525e-20 2.82101e-09 0 0 0
0.0338129 -2.71051e-20 0.00291608 0 0 0
-0.033813 -1.35525e-20 0.00291609 0 0 0
-0.0339781 9.03502e-21 0.000302701 0.00946598 -0.00349703 3.79554e-05
0.0339781 9.03502e-21 0.000302675 7.25052e-05 -2.79603e-05 -2.97057e-07
-0.0339808 -4.51751e-21 0.000914761 0.0255417 -0.0093505 2.34662e-05
0.0339808 -4.51751e-21 0.000914701 0.000687114 -0.000264958 -3.84781e-06
0.0339745 -9.03502e-21 0.00155861 0.000992707 -0.000384404 -8.84309e-06
-0.0339745 -4.51751e-21 0.00155866 0.0308358 -0.0112819 -4.98532e-05
-0.0339481 -4.51751e-22 0.00267579 0.0112238 -0.00435457 0.000113125
0.0339481 4.51751e-22 0.00267579 0.000382905 -0.000158078 -5.60463e-06
-0.0339879 -4.51751e-21 0.00215835 0.0247379 -0.00908789 -5.2909e-05
0.0339879 9.03502e-21 0.00215833 0.000862234 -0.000335614 -1.19003e-05
-0.0341105 -1.35525e-20 1.81923e-09 0 0 0
0.0341105 -1.35525e-20 1.81899e-09 0 0 0
0.0340317 0 0.00295577 0 0 0
-0.0340318 0 0.00295579 0 0 0
-0.0342884 -2.71051e-20 1.43984e-09 0 0 0
0.0342884 -2.71051e-20 1.43965e-09 0 0 0
-0.0342943 -2.71051e-20 0.000598991 0.0186368 -0.00685393 1.1718e-05
0.0342943 2.71051e-20 0.000598921 0.000377461 -0.000146648 -1.82453e-06
0.0342171 -1.35525e-20 0.00298939 0 0 0
-0.0342172 2.71051e-20 0.0029894 0 0 0
0.0342949 0 0.00244804 0.000691435 -0.000269741 -1.00198e-05
-0.0342949 -2.71051e-20 0.00244805 0.0195131 -0.00713381 1.69181e-05
-0.034362 2.12968e-20 0.00129504 0.0322477 -0.0118143 -7.13334e-05
0.034362 -3.87215e-21 0.00129496 0.00100186 -0.000390049 -6.41943e-06
-0.0343655 9.68038e-21 0.00179159 0.0319371 -0.0116898 -9.31271e-05
0.0343655 1.54886e-20 0.00179153 0.00106215 -0.000412679 -9.0632e-06
0.0343352 1.35525e-20 0.00301088 0 0 0
-0.0343353 1.35525e-20 0.00301088 0 0 0
-0.0344682 1.35525e-20 1.2842e-09 0 0 0
0.0344682 2.71051e-20 1.284e-09 0 0 0
-0.0345084 -4.51751e-21 0.000909454 0.0272715 -0.0099884 -4.80141e-05
0.0345084 -4.51751e-21 0.000909369 0.000740486 -0.000288168 -4.75264e-06
-0.034518 -1.807e-20 0.00215838 0.0284238 -0.0103019 -0.000100355
0.034518 -1.35525e-20 0.00215835 0.000985618 -0.000383252 -1.18198e-05
-0.0346072 -6.77626e-21 0.000300821 0.0100812 -0.00371684 1.67647e-05
0.0346072 9.03502e-21 0.000300778 8.15813e-05 -3.17251e-05 -1.08598e-07
0.0346152 0 0.00154283 0.00115295 -0.000449471 -8.18572e-06
-0.0346152 0 0.00154291 0.0354974 -0.0129925 -9.07803e-05
0.034558 -4.51751e-22 0.00272776 0.0005075 -0.000202449 -8.51513e-06
-0.034558 -2.25875e-22 0.00272775 0.0140981 -0.00496116 6.0428e-05
0.0345977 1.35525e-20 0.00305919 0 0 0
-0.0345978 0 0.0030592 0 0 0
-0.0347356 0 9.21309e-10 0 0 0
0.0347357 1.35525e-20 9.21242e-10 0 0 0
-0.0346831 1.35525e-20 0.00307472 0 0 0
0.0346831 6.77626e-21 0.00307474 0 0 0
-0.0349165 2.71051e-20 7.6471e-10 0 0 0
0.0349166 0 7.64643e-10 0 0 0
-0.0349264 4.51751e-21 0.000691164 0.0237617 -0.00867873 -2.33027e-05
0.0349264 -9.03502e-21 0.000691082 0.000570918 -0.000223741 -5.21229e-06
0.0349292 -2.25875e-21 0.00121438 0.00101113 -0.00039519 -8.59667e-06
-0.0349292 2.03288e-20 0.00121448 0.0331795 -0.0121156 -6.9649e-05
0.0349324 1.12938e-20 0.00185859 0.00116133 -0.000453141 -1.0526e-05
-0.0349324 -4.51751e-21 0.00185866 0.0341549 -0.0124285 -0.000137808
0.0348922 1.35525e-20 0.00311391 0 0 0
-0.0348922 -3.38813e-21 0.00311391 0 0 0
0.0349975 6.77626e-21 0.00246507 0.000863426 -0.000335474 -1.15853e-05
-0.0349975 -9.03502e-21 0.00246508 0.0239949 -0.00868362 -4.45411e-05
-0.0350985 0 7.01007e-10 0 0 0
0.0350985 1.35525e-20 7.00941e-10 0 0 0
-0.035002 0 0.00285808 0.0121867 -0.00424229 0.000133402
0.035002 0 0.00285808 0.000461542 -0.00017112 -1.17405e-05
-0.0352406 -1.12938e-20 0.000295905 0.0105151 -0.00384115 1.42306e-05
0.0352407 6.77626e-21 0.000295859 9.1928e-05 -3.5811e-05 7.29445e-09
-0.0352487 0 0.00089372 0.0304543 -0.0110655 -8.36771e-06
0.0352487 -2.71051e-20 0.000893614 0.000846838 -0.000332864 -1.03724e-05
0.0351342 1.69407e-21 0.00315794 0 0 0
-0.0351343 0 0.00315795 0 0 0
0.0352503 0 0.00152768 0.0012653 -0.000494564 -1.1189e-05
-0.0352503 0 0.00152777 0.0383277 -0.0139936 -0.00011621
-0.0351477 1.69407e-21 0.00316042 0 0 0
0.0351478 -1.69407e-21 0.00316043 0 0 0
0.0351794 0 0.00281731 0.000541804 -0.000206958 -1.17264e-05
-0.0351794 0 0.00281732 0.0141315 -0.0050476 0.000139251
-0.035153 0 0.00314568 0.00063261 -0.000230806 1.63296e-05
0.035153 -1.69407e-21 0.00314559 2.70156e-05 -1.04254e-05 -6.03145e-07
0.0352564 0 0.00217228 0.00120559 -0.000471833 -9.80618e-06
-0.0352564 -2.71051e-20 0.00217232 0.0336978 -0.0121981 -0.000222329
-0.0353734 -1.35525e-20 5.21809e-10 0 0 0
0.0353735 0 5.21779e-10 0 0 0
-0.0352366 -1.69407e-21 0.0031769 0 0 0
0.0352373 -3.38813e-21 0.00317703 0 0 0
-0.0353097 0 0.00290011 0.0120398 -0.00431952 0.000193415
0.0353097 1.35525e-20 0.00290013 0.000480415 -0.000184528 -1.12286e-05
-0.0355532 0 4.57365e-10 0 0 0
0.0355533 0 4.57336e-10 0 0 0
0.0355671 -9.03502e-21 0.00119581 0.00108849 -0.000426562 -9.13409e-06
-0.0355671 -2.25875e-21 0.00119592 0.0353453 -0.0128837 -8.83053e-05
0.0355696 9.03502e-21 0.00184838 0.00129583 -0.000506398 -1.08492e-05
-0.0355696 0 0.00184845 0.0377029 -0.0136903 -0.000155463
-0.0356124 2.25875e-21 0.000622322 0.0220193 -0.00801036 -3.90513e-05
0.0356125 2.25875e-21 0.000622242 0.000487727 -0.000192347 -4.26666e-06
0.0355744 -4.51751e-21 0.00250427 0.000977588 -0.000383674 -1.11573e-05
-0.0355744 9.03502e-21 0.00250428 0.0267408 -0.0097042 -3.84373e-05
-0.035529 3.38813e-21 0.0032312 0 0 0
0.0355292 -3.38813e-21 0.00323122 0 0 0
-0.0355423 0 0.00321267 0.00104693 -0.000341643 8.39821e-06
0.0355424 0 0.00321273 3.86197e-05 -1.4584e-05 -1.18009e-06
0.0355811 -9.03502e-21 0.00287218 0.000590993 -0.000231583 -9.15623e-06
-0.0355811 -9.03502e-21 0.00287218 0.0153176 -0.00554502 8.3548e-05
-0.035574 3.38813e-21 0.00316175 0.00343791 -0.00123207 1.06024e-05
-0.0355672 0 0.0032382 0 0 0
0.0355741 0 0.0031619 0.000131229 -5.10681e-05 -2.07966e-06
0.0355673 0 0.00323821 0 0 0
-0.0357312 -1.35525e-20 4.06834e-10 0 0 0
0.0357313 -1.35525e-20 4.06801e-10 0 0 0
-0.0356064 0 0.00321772 0.00146042 -0.000502781 -2.97475e-05
0.0356064 0 0.00321777 5.33333e-05 -2.02939e-05 -1.23711e-07
0.0356195 3.38813e-21 0.00324783 0 0 0
-0.0356195 3.38813e-21 0.00324784 0 0 0
-0.0358766 0 0.000193571 0.00676892 -0.00249616 -4.77509e-05
0.0358767 0 0.000193555 4.85531e-06 -1.63004e-06 2.56894e-07
-0.035885 0 0.000875629 0.0318213 -0.0115349 -7.42955e-05
0.035885 -2.71051e-20 0.000875535 0.000891933 -0.000351745 -5.39881e-06
-0.0358906 2.71051e-20 0.00150725 0.041242 -0.0151037 -0.00015977
0.0358906 -2.71051e-20 0.00150716 0.00136808 -0.000533415 -9.7784e-06
0.0358881 -2.71051e-20 0.00216694 0.0013594 -0.000531353 -1.2531e-05
-0.0358881 -2.71051e-20 0.00216698 0.0381157 -0.0136787 -0.000118881
-0.0358664 0 0.00295102 0.0149896 -0.00547752 3.00873e-05
0.0358665 1.35525e-20 0.00295103 0.00058396 -0.000232975 -6.17745e-06
-0.0360201 -1.35525e-20 2.47881e-10 0 0 0
0.0360202 2.71051e-20 2.47868e-10 0 0 0
-0.036024 6.77626e-21 0.00332287 0 0 0
0.0360241 0 0.00332289 0 0 0
-0.0361957 0 1.96858e-10 0 0 0
0.0361958 0 1.96841e-10 0 0 0
-0.0362011 -6.77626e-21 0.000563546 0.0211073 -0.00774133 -7.8186e-05
0.0362011 4.51751e-21 0.000563484 0.000447519 -0.00017178 -1.31858e-06
-0.03606 0 0.0032685 0.00322019 -0.00110862 -6.55928e-05
0.0360601 -1.35525e-20 0.00326857 0.000117738 -4.48005e-05 -2.73103e-07
-0.036206 0 0.00117895 0.0372808 -0.013647 -8.96556e-05
0.0362061 0 0.00117887 0.00116069 -0.000452723 -6.9232e-06
0.0362045 2.25875e-21 0.00184383 0.00141977 -0.000558347 -1.3277e-05
-0.0362045 6.77626e-21 0.00184388 0.0410331 -0.0149595 -0.000128096
0.0361888 -2.25875e-21 0.00253169 0.0011124 -0.000440772 -1.3833e-05
-0.0361888 -2.25875e-21 0.0025317 0.0302089 -0.0109543 -4.55499e-05
-0.0361316 0 0.00334265 0 0 0
0.0361316 -1.35525e-20 0.00334265 0 0 0
0.0361687 -6.77626e-21 0.00293434 0.000692046 -0.000278041 -1.05349e-05
-0.0361687 9.03502e-21 0.00293434 0.0178794 -0.00652701 2.31402e-05
0.0361567 6.77626e-21 0.00314741 0.000347902 -0.000138591 -4.865e-06
-0.0361567 0 0.00314727 0.00901435 -0.00328691 -1.07856e-05
-0.0363723 0 1.67562e-10 0 0 0
0.0363723 1.35525e-20 1.67547e-10 0 0 0
0.0362562 0 0.00328574 0.000161786 -6.28732e-05 -1.67178e-06
-0.0362563 2.71051e-20 0.00328569 0.00424607 -0.00160792 -3.08637e-05
0.0363065 6.77626e-21 0.00337454 0 0 0
-0.0363067 1.35525e-20 0.00337456 0 0 0
-0.0365138 0 0.000190564 0.00672638 -0.00263657 -0.000105165
0.0365138 0 0.000190552 4.96894e-06 -1.36281e-06 -6.08681e-07
-0.0365218 2.71051e-20 0.000861999 0.0329284 -0.0120055 -3.18324e-05
0.0365219 2.71051e-20 0.000861929 0.000937126 -0.000350667 8.60966e-07
-0.0365244 0 0.00149847 0.0436521 -0.0161338 -9.67885e-05
0.0365244 0 0.00149841 0.00146653 -0.00058271 -1.36968e-05
0.0365145 0 0.00218148 0.00149752 -0.000591047 -1.72536e-05
-0.0365145 0 0.00218151 0.0416021 -0.0151107 -0.00012859
-0.0364788 0 0.00289752 0.0218178 -0.00794654 5.95729e-05
0.0364788 1.35525e-20 0.00289755 0.000856984 -0.000347961 -1.83415e-05
-0.0366526 0 8.42588e-11 0 0 0
0.0366527 0 8.42553e-11 0 0 0
-0.036569 -5.42101e-21 0.00323416 0.00993102 -0.00372321 -4.27786e-06
0.036569 1.35525e-20 0.00323419 0.000388364 -0.00015613 -6.38921e-06
-0.0365532 0 0.00341957 0 0 0
0.0365533 -1.35525e-20 0.00341959 0 0 0
-0.0367898 1.35525e-20 0.000598955 0.0231388 -0.00859393 -8.63195e-05
0.0367898 0 0.000598917 0.000529271 -0.000195389 1.77285e-06
-0.036834 0 5.5588e-11 0 0 0
0.0368341 0 5.55862e-11 0 0 0
-0.0368407 -4.51751e-21 0.00116968 0.0390397 -0.0143794 -7.63702e-05
0.0368407 4.51751e-21 0.00116963 0.0012335 -0.000478269 -5.89988e-06
0.0368348 -4.51751e-21 0.00184465 0.0015483 -0.000615234 -1.70727e-05
-0.0368348 6.77626e-21 0.00184468 0.0440695 -0.016156 -0.000150573
0.0368045 1.35525e-20 0.00255346 0.00126242 -0.000499788 -1.92388e-05
-0.0368045 -1.35525e-20 0.00255346 0.0337512 -0.0122355 -0.000105747
0.0367777 -2.71051e-20 0.00346047 0 0 0
-0.0367777 2.71051e-20 0.00346047 0 0 0
-0.0368393 4.51751e-22 0.00303407 0.0199669 -0.00726836 -2.25583e-05
0.0368393 1.35525e-21 0.00303408 0.000774007 -0.000305924 -1.50652e-05
-0.0370199 1.35525e-20 4.78303e-11 0 0 0
0.0370199 -1.35525e-20 4.78279e-11 0 0 0
-0.0371489 -2.25875e-21 0.000281507 0.0110363 -0.00442009 -0.000143449
0.0371489 -9.03502e-21 0.000281494 0.000108244 -3.97919e-05 -9.5078e-07
0.0371548 0 0.000855626 0.000981779 -0.000359432 8.06678e-06
-0.0371548 -2.71051e-20 0.000855666 0.0341169 -0.0125601 -4.17635e-05
0.0371549 2.71051e-20 0.00149516 0.00157528 -0.000630888 -1.9165e-05
-0.0371549 0 0.00149519 0.0460827 -0.017049 -0.0001418
0.0371441 0 0.00218077 0.00166175 -0.000660018 -1.83782e-05
-0.0371441 0 0.00218078 0.0452657 -0.0164648 -0.000228672
0.0370564 6.77626e-21 0.00351129 0 0 0
-0.0370564 -2.03288e-20 0.0035113 0 0 0
0.03727 0 2.98638e-11 0 0 0
-0.03727 0 2.9863e-11 0 0 0
-0.0371712 2.71051e-20 0.00278261 0.0316753 -0.0114971 -0.000156954
0.0371713 0 0.00278261 0.00123058 -0.000486167 -2.28456e-05
-0.0371159 -1.35525e-20 0.00352215 0 0 0
0.037116 -1.69407e-20 0.00352218 0 0 0
-0.0371348 4.51751e-21 0.00333173 0.0100517 -0.0038471 -1.22854e-05
0.0371348 0 0.00333177 0.000383602 -0.000157506 -6.95483e-06
-0.0374605 0 2.22234e-11 0 0 0
0.0374605 0 2.22235e-11 0 0 0
-0.0374674 0 0.000637841 0.0266351 -0.00998412 -8.53481e-05
0.0374674 1.35525e-20 0.000637823 0.000666616 -0.000244433 6.17764e-06
0.0374702 -6.77626e-21 0.00116461 0.00130863 -0.000508683 -3.38458e-06
-0.0374702 4.51751e-21 0.00116464 0.040758 -0.0150969 -0.000133983
0.0374665 -1.12938e-21 0.00183966 0.00168597 -0.000674099 -1.74565e-05
-0.0374665 0 0.00183967 0.0472681 -0.0173608 -0.00022942
-0.0374682 -3.38813e-21 0.00249666 0.0402938 -0.014624 -0.000216376
0.0374682 1.12938e-21 0.00249666 0.00151927 -0.000603549 -1.88051e-05
-0.0374675 4.51751e-21 0.00307365 0.0233932 -0.00848551 -0.000116197
0.0374675 1.88079e-37 0.00307365 0.000902506 -0.000362879 -1.49651e-05
-0.0374246 2.71051e-20 0.00357844 0 0 0
0.0374247 1.35525e-20 0.00357845 0 0 0
-0.0376529 -2.71051e-20 1.86806e-11 0 0 0
0.0376529 -1.35525e-20 1.86807e-11 0 0 0
-0.0377742 1.12938e-20 0.000280154 0.0113648 -0.00460999 -0.00012706
0.0377742 6.77626e-21 0.000280151 0.00011078 -4.13294e-05 -1.0068e-06
-0.0377819 0 0.000851859 0.0352772 -0.0131353 -6.77247e-05
0.0377819 2.71051e-20 0.00085184 0.00102531 -0.000379549 1.23497e-05
0.0377838 0 0.00149135 0.00168614 -0.000678844 -1.50359e-05
-0.0377838 5.42101e-20 0.00149136 0.0483018 -0.0179233 -0.000297234
-0.0376598 6.77626e-21 0.00362112 0 0 0
0.0376599 1.35525e-20 0.00362114 0 0 0
0.0377819 -2.71051e-20 0.00216934 0.00182687 -0.000730002 -1.75785e-05
-0.0377819 0 0.00216935 0.0496403 -0.0180999 -0.00024776
0.0377773 -5.42101e-20 0.00279682 0.00141757 -0.000562984 -1.70627e-05
-0.0377773 -2.71051e-20 0.00279681 0.0363617 -0.0130821 -0.000240148
0.0378849 0 1.07538e-11 0 0 0
-0.0378849 0 1.07533e-11 0 0 0
-0.0377229 -1.35525e-20 0.00353461 0.0054847 -0.00202023 -6.3934e-06
0.037723 -6.77626e-21 0.00353476 0.000204618 -8.90699e-05 -4.71848e-06
-0.0377797 -1.12938e-21 0.00335602 0.0159948 -0.00585931 -4.39998e-05
0.0377798 0 0.00335605 0.00060412 -0.000257301 -1.2474e-05
0.0377789 0 0.00364262 0 0 0
-0.037779 -6.77626e-21 0.00364263 0 0 0
-0.0380777 2.71051e-20 7.23455e-12 0 0 0
0.0380777 0 7.23493e-12 0 0 0
-0.0380891 9.03502e-21 0.000630694 0.0272555 -0.0102877 -4.98e-05
0.0380891 0 0.00063069 0.000685776 -0.000257427 7.00363e-06
-0.0380959 -2.25875e-21 0.00115829 0.0423068 -0.0157222 -0.000174349
0.0380959 4.51751e-21 0.00115829 0.00138025 -0.000542377 -3.5332e-07
0.0380968 3.38813e-21 0.0018338 0.0018211 -0.000732347 -1.46624e-05
-0.0380968 -2.25875e-21 0.0018338 0.0503425 -0.0184824 -0.000280597
-0.0379952 -1.35525e-20 0.00368181 0 0 0
0.0379952 1.35525e-20 0.00368182 0 0 0