# k  POINT_DATA 35046
# x  y  z  k
0 -0.000880995 1.47237e-08 0.000192578
0 0.000368999 0.00116943 0.000192535
0 0.00161903 1.54918e-08 0.000192491
1.0842e-19 -0.00213101 0.00116943 0.00019262
1.27264e-19 -0.000881009 0.00233888 0.000220408
0 0.00161901 0.00233888 0.000220328
1.0842e-19 0.002869 0.00116943 0.000192447
0 -0.00338099 1.44485e-08 0.00019266
1.0842e-19 0.000368999 0.00356872 0.000248647
8.27181e-25 -0.00338099 0.00233888 0.000220484
0 0.00411903 1.63242e-08 0.000192401
1.0842e-19 -0.002131 0.00356872 0.000248719
1.0842e-19 0.002869 0.00356872 0.000248575
0 0.00411901 0.00233888 0.000220247
-1.0842e-19 -0.004631 0.00116943 0.000192701
4.1359e-25 -0.000881003 0.00479858 0.000241405
-4.1359e-25 0.001619 0.00479858 0.000241344
-1.0842e-19 0.005369 0.00116944 0.000192355
0 -0.004631 0.00356872 0.000248789
4.1359e-25 -0.003381 0.00479858 0.000241465
0 -0.00588099 1.42849e-08 0.00019274
1.0842e-19 0.000369 0.00608215 0.000233998
0 0.004119 0.00479858 0.000241282
4.09124e-21 -0.005881 0.00233887 0.000220559
-1.0842e-19 -0.002131 0.00608215 0.000234047
-1.0842e-19 0.005369 0.00356873 0.000248501
0 0.00661901 1.60129e-08 0.000192307
0 0.002869 0.00608215 0.000233947
0 0.00661901 0.00233888 0.000220162
0 -0.007131 0.00116944 0.000192778
0 -0.000881001 0.00736572 0.000228406
0 0.001619 0.00736572 0.000228365
-1.44385e-19 -0.005881 0.00479858 0.000241524
-1.0842e-19 -0.004631 0.00608215 0.000234096
2.1684e-19 0.00786899 0.00116944 0.00019226
-1.0842e-19 -0.007131 0.00356872 0.000248858
-1.03398e-25 -0.003381 0.00736572 0.000228448
-1.0842e-19 0.005369 0.00608215 0.000233897
0 0.006619 0.00479858 0.000241219
0 -0.00838099 4.50472e-10 0.000192816
1.03398e-25 0.004119 0.00736572 0.000228322
-2.1684e-19 0.007869 0.00356873 0.000248426
-1.0842e-19 0.000369 0.008656 0.000222764
5.65031e-20 -0.008381 0.00233887 0.000220631
0 -0.002131 0.008656 0.000222798
0 0.009119 1.29064e-08 0.00019221
-1.0842e-19 0.002869 0.008656 0.00022273
1.0842e-19 -0.007131 0.00608215 0.000234145
0 0.009119 0.00233887 0.000220076
-5.22573e-20 -0.005881 0.00736572 0.000228489
0 -0.008381 0.00479858 0.000241583
-2.1684e-19 -0.009631 0.00116943 0.000192853
0 -0.004631 0.008656 0.000222831
0 0.006619 0.00736572 0.00022828
0 0.007869 0.00608215 0.000233846
0 -0.000881 0.00994629 0.000217847
2.58494e-26 0.001619 0.00994629 0.000217819
0 0.005369 0.00865601 0.000222696
0 -0.009631 0.00356872 0.000248926
0 0.009119 0.00479858 0.000241156
2.1684e-19 0.010369 0.00116943 0.00019216
-2.58494e-26 -0.003381 0.00994629 0.000217874
-2.58494e-26 0.004119 0.00994629 0.000217792
0 -0.010881 1.32897e-08 0.000192888
0 0.010369 0.00356872 0.000248349
0 -0.010881 0.00233886 0.000220701
0 -0.008381 0.00736572 0.00022853
-1.0842e-19 -0.007131 0.00865601 0.000222865
0 0.000369 0.011217 0.000212928
-1.0842e-19 -0.009631 0.00608215 0.000234193
1.0842e-19 -0.002131 0.011217 0.000212949
0 -0.005881 0.00994629 0.000217901
-1.0842e-19 0.002869 0.011217 0.000212907
0 0.011619 7.15996e-09 0.000192109
-1.0842e-19 0.007869 0.008656 0.000222663
0 0.009119 0.00736572 0.000228238
5.74117e-20 0.011619 0.00233887 0.000219986
-2.06795e-25 -0.010881 0.00479858 0.00024164
-2.58494e-26 0.006619 0.00994629 0.000217765
1.0842e-19 0.010369 0.00608215 0.000233794
0 -0.004631 0.011217 0.00021297
0 -0.012131 0.00116943 0.000192924
0 0.012022 0.00233887 0.000219972
1.0842e-19 0.005369 0.011217 0.000212887
0 -0.000881 0.0124878 0.00020782
8.27181e-25 0.0125545 0 0.000192069
4.03897e-28 0.011619 0.00479858 0.000241091
-3.23117e-27 0.001619 0.0124878 0.000207805
-2.42338e-27 0.011619 0.00491649 0.000240499
2.1684e-19 -0.012131 0.00356872 0.000248992
0 0.012869 0.00116944 0.000192057
-4.32176e-20 -0.003381 0.0124878 0.000207836
-2.1684e-19 -0.009631 0.00865601 0.000222898
-7.46466e-20 -0.008381 0.00994629 0.000217929
-1.03398e-25 -0.010881 0.00736572 0.00022857
3.23117e-27 0.004119 0.0124878 0.000207791
0 -0.007131 0.011217 0.000212992
-1.0842e-19 0.012869 0.00356873 0.000248271
1.65436e-24 -0.013381 1.29863e-08 0.000192958
2.58494e-26 0.0112589 0.00736572 0.000228201
-4.67728e-20 0.009119 0.00994629 0.000217739
1.0842e-19 0.010369 0.008656 0.000222629
0 -0.012131 0.00608215 0.00023424
0 -0.013381 0.00233886 0.000220769
-2.1684e-19 0.007869 0.011217 0.000212868
1.0842e-19 0.000369 0.0137433 0.000202719
1.29247e-26 0.011619 0.00736572 0.000228195
3.16399e-20 -0.005881 0.0124878 0.000207852
1.0842e-19 -0.002131 0.0137433 0.000202728
0 0.002869 0.0137433 0.00020271
0 0.014119 1.19736e-08 0.000192003
0 0.006619 0.0124878 0.000207777
2.06795e-25 -0.013381 0.00479858 0.000241697
-1.0842e-19 0.012869 0.00608215 0.000233742
-9.36683e-20 0.014119 0.00233887 0.000219894
1.0842e-19 -0.004631 0.0137433 0.000202739
-1.0842e-19 -0.014631 0.00116943 0.000192992
0 -0.010881 0.00994629 0.000217956
1.0842e-19 0.005369 0.0137433 0.000202701
0 -0.009631 0.011217 0.000213013
-3.23117e-27 0.010999 0.00994629 0.000217719
0 -0.012131 0.00865601 0.000222932
2.15433e-20 0.014119 0.00479858 0.000241026
4.03897e-28 -0.000881 0.0149988 0.00019702
0 -0.008381 0.0124878 0.000207868
0 -0.014631 0.00356872 0.000249058
4.03897e-28 0.001619 0.0149988 0.000197015
0 -0.013381 0.00736572 0.000228611
0 0.010369 0.011217 0.000212849
0 0.011619 0.00994629 0.000217713
4.03897e-28 -0.003381 0.0149988 0.000197025
0 0.015369 0.00116944 0.000191949
-1.61559e-27 0.009119 0.0124878 0.000207764
0 -0.007131 0.0137433 0.00020275
0 0.012869 0.008656 0.000222594
0 0.004119 0.0149988 0.000197012
0 0.015369 0.00356873 0.000248192
0 0.007869 0.0137433 0.000202694
0 -0.014631 0.00608215 0.000234287
1.65436e-24 -0.015881 1.30339e-08 0.000193024
-1.06735e-20 0.014119 0.00736572 0.000228152
0 -0.015881 0.00233887 0.000220835
4.03897e-28 -0.005881 0.0149988 0.000197031
0 0.000369 0.0162494 0.000191324
0 -0.002131 0.0162494 0.000191324
0 0.006619 0.0149988 0.00019701
2.1684e-19 0.002869 0.0162494 0.000191325
8.07794e-28 0.010809 0.0124878 0.000207756
1.0842e-19 -0.012131 0.011217 0.000213035
0 0.015369 0.00608215 0.000233689
0 -0.010881 0.0124878 0.000207885
0 -0.015881 0.00479858 0.000241753
0 0.016619 1.58212e-08 0.000191892
-2.58494e-26 -0.013381 0.00994629 0.000217984
1.0842e-19 -0.009631 0.0137433 0.000202762
5.21943e-20 0.016619 0.00233888 0.000219799
1.0842e-19 -0.004631 0.0162494 0.000191324
-2.1684e-19 -0.014631 0.00865601 0.000222964
4.37642e-20 0.011619 0.0124878 0.000207752
2.1684e-19 0.012869 0.011217 0.00021283
1.0842e-19 0.005369 0.0162494 0.000191327
-2.1684e-19 -0.017131 0.00116943 0.000193057
-3.3645e-20 -0.008381 0.0149988 0.000197038
0 0.010369 0.0137433 0.000202688
2.63824e-20 0.014119 0.00994629 0.000217687
6.91577e-20 0.016619 0.00479858 0.00024096
0 -0.017131 0.00356872 0.000249123
0 -0.015881 0.00736572 0.00022865
4.89094e-29 -0.000881 0.0174897 0.000184894
0 -0.000881 0.0175 0.000184844
0 0.009119 0.0149988 0.000197009
-1.16751e-28 0.001619 0.0174863 0.000184916
-9.67102e-20 0.001619 0.0175 0.00018485
1.0842e-19 0.015369 0.008656 0.000222561
2.1684e-19 -0.007131 0.0162494 0.000191326
-1.86171e-28 -0.003381 0.0174919 0.00018488
-1.91544e-20 -0.003381 0.0175 0.000184841
0 0.017869 0.00116944 0.000191835
5.20648e-29 0.004119 0.0174843 0.000184933
0 0.004119 0.0175 0.000184856
0 0.007869 0.0162494 0.000191331
2.90125e-20 0.016619 0.00736572 0.000228109
1.0842e-19 -0.017131 0.00608215 0.000234333
1.0842e-19 0.017869 0.00356873 0.000248112
0 -0.013381 0.0124878 0.000207902
2.1684e-19 -0.012131 0.0137433 0.000202773
0 -0.018381 1.33208e-08 0.000193088
5.04871e-29 0.0106331 0.0149988 0.000197009
-1.0842e-19 -0.014631 0.011217 0.000213056
1.15174e-28 -0.005881 0.0174922 0.000184876
0 -0.005881 0.0175 0.000184838
-8.52699e-20 -0.018381 0.00233887 0.000220899
4.03897e-28 -0.010881 0.0149988 0.000197045
5.83757e-29 0.006619 0.0174833 0.000184945
0 0.006619 0.0175 0.000184864
0 -0.015881 0.00994629 0.00021801
1.0842e-19 0.000369 0.01875 0.000178371
-1.0842e-19 0.012869 0.0137433 0.000202682
-3.31687e-21 0.014119 0.0124878 0.00020774
0 -0.002131 0.01875 0.000178362
1.0842e-19 0.017869 0.00608215 0.000233637
1.0842e-19 -0.009631 0.0162494 0.000191329
-1.0842e-19 0.002869 0.01875 0.000178381
-1.18435e-19 0.011619 0.0149988 0.000197009
0 -0.018381 0.00479858 0.000241808
-1.0842e-19 0.015369 0.011217 0.000212812
0 0.019119 3.72709e-09 0.000191776
1.0842e-19 -0.017131 0.008656 0.000222997
-7.25777e-20 0.019119 0.00233888 0.0002197
0 0.010369 0.0162494 0.000191337
-1.0842e-19 -0.004631 0.01875 0.000178355
-1.35484e-19 0.016619 0.00994629 0.000217661
-7.25752e-29 -0.008381 0.017491 0.00018488
-9.67039e-20 -0.008381 0.0175 0.000184836
0 0.005369 0.01875 0.000178393
-1.0842e-19 -0.019631 0.00116943 0.00019312
-8.36193e-29 0.009119 0.0174731 0.000185005
5.37936e-20 0.019119 0.00479858 0.000240893
-1.91541e-20 0.009119 0.0175 0.000184874
0 -0.018381 0.00736572 0.000228689
2.1684e-19 0.017869 0.00865601 0.000222528
2.1684e-19 -0.019631 0.00356872 0.000249186
3.28979e-21 -0.000881 0.02 0.000171066
0 -0.007131 0.01875 0.000178348
-9.67102e-20 0.001619 0.02 0.00017108
0 -0.014631 0.0137433 0.000202785
0 -0.013381 0.0149988 0.000197053
-3.23117e-27 -0.015881 0.0124878 0.000207918
-1.0842e-19 -0.012131 0.0162494 0.000191332
8.08456e-20 -0.003381 0.02 0.000171054
-1.0842e-19 0.007869 0.01875 0.000178407
0 0.020369 0.00116944 0.000191716
-1.91544e-20 0.004119 0.02 0.000171096
1.0842e-19 -0.017131 0.011217 0.000213078
2.80747e-20 0.019119 0.00736572 0.000228066
-1.0842e-19 -0.019631 0.00608215 0.000234379
9.46633e-29 -0.010881 0.0174886 0.000184891
1.06152e-19 0.014119 0.0149988 0.00019701
-1.57772e-30 -0.010881 0.0175 0.000184835
2.1684e-19 0.015369 0.0137433 0.000202678
-1.0842e-19 0.020369 0.00356873 0.00024803
1.0842e-19 0.012869 0.0162494 0.000191342
3.94558e-20 0.016619 0.0124878 0.000207729
-1.91544e-20 -0.005881 0.02 0.000171044
0 -0.020881 1.38173e-08 0.00019315
-2.58494e-26 -0.018381 0.00994629 0.000218037
8.08459e-20 0.011619 0.0175 0.000184885
0 -0.020881 0.00233887 0.000220961
8.08456e-20 0.006619 0.02 0.000171113
0 -0.009631 0.01875 0.000178343
0 0.017869 0.011217 0.000212794
0 0.000369 0.02125 0.000163774
1.0842e-19 0.020369 0.00608215 0.000233585
-1.0842e-19 -0.002131 0.02125 0.000163758
-4.1359e-25 -0.020881 0.00479858 0.000241863
1.0842e-19 0.010369 0.01875 0.000178423
0 0.002869 0.02125 0.000163793
1.0842e-19 -0.019631 0.008656 0.000223029
-7.74775e-20 0.019119 0.00994629 0.000217636
0 0.021619 1.55288e-08 0.000191653
-9.67102e-20 -0.008381 0.02 0.000171034
4.75844e-20 0.021619 0.00233888 0.000219597
0 -0.004631 0.02125 0.000163743
-4.03897e-28 -0.015881 0.0149988 0.000197061
0 -0.014631 0.0162494 0.000191336
1.0842e-19 0.005369 0.02125 0.000163814
-1.0842e-19 -0.017131 0.0137433 0.000202797
-1.91544e-20 0.009119 0.02 0.000171132
7.25752e-29 -0.013381 0.0174867 0.000184899
0 -0.013381 0.0175 0.000184834
0 0.020369 0.008656 0.000222495
1.03398e-25 -0.020881 0.00736572 0.000228729
2.79546e-20 0.021619 0.00479858 0.000240825
-1.0842e-19 -0.022131 0.00116943 0.000193179
0 -0.018381 0.0124878 0.000207935
-1.0842e-19 -0.012131 0.01875 0.000178338
-1.0842e-19 0.015369 0.0162494 0.00019135
7.83112e-20 0.016619 0.0149988 0.000197012
1.0842e-19 -0.007131 0.02125 0.000163729
0 -0.022131 0.00356872 0.000249248
8.0838e-20 0.014119 0.0175 0.000184897
-3.54881e-20 -0.000881 0.0225 0.000155694
1.0842e-19 0.017869 0.0137433 0.000202674
-3.54881e-20 0.001619 0.0225 0.000155715
-1.0842e-19 -0.019631 0.011217 0.0002131
-1.0842e-19 0.007869 0.02125 0.000163836
1.0842e-19 0.012869 0.01875 0.00017844
8.08456e-20 -0.003381 0.0225 0.000155675
-1.91544e-20 -0.010881 0.02 0.000171026
-7.59876e-20 0.019119 0.0124878 0.000207719
-1.94261e-20 0.021619 0.00736572 0.000228023
-9.67102e-20 0.004119 0.0225 0.000155738
0 0.022869 0.00116944 0.000191591
-1.0842e-19 -0.022131 0.00608215 0.000234425
2.58494e-26 -0.020881 0.00994629 0.000218064
1.58401e-19 0.011619 0.02 0.000171153
0 0.022869 0.00356873 0.000247946
-1.0842e-19 0.020369 0.011217 0.000212777
-9.67102e-20 -0.005881 0.0225 0.000155657
0 -0.009631 0.02125 0.000163717
-3.30872e-24 -0.023381 1.45957e-08 0.000193208
8.08456e-20 0.006619 0.0225 0.000155763
-8.27181e-25 -0.023381 0.00233886 0.000221021
0 -0.017131 0.0162494 0.00019134
0 -0.015881 0.0174862 0.000184902
-1.57772e-30 -0.015881 0.0175 0.000184834
0 0.010369 0.02125 0.000163861
-2.1684e-19 0.022869 0.00608215 0.000233531
0 -0.018381 0.0149988 0.000197069
0 0.000369 0.02375 0.000147634
2.1684e-19 -0.022131 0.008656 0.000223061
0 -0.014631 0.01875 0.000178334
-1.131e-19 0.021619 0.00994629 0.000217611
-1.0842e-19 -0.002131 0.02375 0.00014761
-2.06795e-25 -0.023381 0.00479858 0.000241916
-8.27181e-25 0.0239177 0 0.000191535
1.0842e-19 0.002869 0.02375 0.000147659
1.0842e-19 -0.019631 0.0137433 0.00020281
8.08456e-20 -0.008381 0.0225 0.000155641
-1.91544e-20 -0.013381 0.02 0.000171018
0 0.024119 1.35972e-09 0.000191525
2.06795e-25 0.024119 0.000601223 0.000198713
1.58394e-19 0.016619 0.0175 0.000184912
-1.0842e-19 0.017869 0.0162494 0.000191359
0 -0.004631 0.02375 0.000147588
4.30854e-20 0.024119 0.00233887 0.00021949
-1.0842e-19 0.015369 0.01875 0.000178459
1.58401e-19 0.009119 0.0225 0.000155791
-1.11623e-19 0.019119 0.0149988 0.000197015
0 -0.020881 0.0124878 0.000207952
0 0.005369 0.02375 0.000147686
-1.0842e-19 0.022869 0.008656 0.000222461
0 -0.012131 0.02125 0.000163705
-1.91544e-20 0.014119 0.02 0.000171176
0 -0.023381 0.00736572 0.000228768
0 0.020369 0.0137433 0.000202671
-4.99634e-20 0.024119 0.00479858 0.000240756
-1.0842e-19 -0.024631 0.00116943 0.000193237
0 -0.007131 0.02375 0.000147568
1.0842e-19 -0.022131 0.011217 0.000213121
0 0.012869 0.02125 0.000163887
0 -0.024631 0.00356872 0.00024931
-1.01634e-19 0.021619 0.0124878 0.000207709
1.58401e-19 -0.010881 0.0225 0.000155626
-9.67102e-20 -0.000881 0.025 0.000138897
0 0.007869 0.02375 0.000147717
-1.13044e-19 0.001619 0.025 0.000138924
-1.082e-19 0.024119 0.00736572 0.000227979
1.58401e-19 -0.003381 0.025 0.000138871
-4.15987e-20 0.011619 0.0225 0.00015582
6.45119e-20 0.004119 0.025 0.000138953
3.15544e-29 -0.018381 0.0174859 0.000184904
1.0842e-19 -0.024631 0.00608215 0.00023447
-3.54843e-20 -0.018381 0.0175 0.000184835
1.0842e-19 0.025369 0.00116944 0.000191459
1.0842e-19 -0.017131 0.01875 0.00017833
0 -0.023381 0.00994629 0.000218091
0 0.022869 0.011217 0.00021276
0 -0.019631 0.0162494 0.000191344
-9.67102e-20 -0.015881 0.02 0.000171011
-2.1684e-19 0.025369 0.00356872 0.000247861
-1.0842e-19 -0.009631 0.02375 0.00014755
-1.91544e-20 -0.005881 0.025 0.000138848
2.01948e-28 -0.020881 0.0149988 0.000197077
1.0842e-19 -0.014631 0.02125 0.000163694
3.28979e-21 0.006619 0.025 0.000138986
0 -0.025881 1.52608e-08 0.000193264
0 0.017869 0.01875 0.000178479
0 0.010369 0.02375 0.000147749
1.58401e-19 0.019119 0.0175 0.000184927
0 -0.025881 0.00233887 0.00022108
1.58401e-19 0.016619 0.02 0.0001712
1.0842e-19 -0.022131 0.0137433 0.000202822
0 0.020369 0.0162494 0.000191369
1.0842e-19 0.025369 0.00608215 0.000233477
-4.7036e-20 0.024119 0.00994629 0.000217585
1.0842e-19 -0.024631 0.008656 0.000223094
-9.67102e-20 -0.013381 0.0225 0.000155612
-1.0842e-19 0.015369 0.02125 0.000163916
0 0.000369 0.02625 0.000130186
6.84855e-20 0.021619 0.0149988 0.000197019
2.06795e-25 -0.025881 0.00479858 0.000241969
0 -0.002131 0.02625 0.000130157
8.08456e-20 -0.008381 0.025 0.000138826
0 0.002869 0.02625 0.000130217
0 -0.023381 0.0124878 0.000207969
5.84013e-20 0.014119 0.0225 0.000155852
1.58401e-19 0.009119 0.025 0.00013902
-8.27181e-25 0.026619 5.1449e-09 0.00019139
0 -0.004631 0.02625 0.000130129
-1.0842e-19 -0.012131 0.02375 0.000147532
1.0842e-19 0.022869 0.0137433 0.000202669
-1.03398e-25 0.026619 0.00201018 0.000215446
4.85149e-20 0.026619 0.00233887 0.000219379
1.0842e-19 0.005369 0.02625 0.000130251
0 0.025369 0.008656 0.000222427
-1.03398e-25 -0.025881 0.00736572 0.000228806
0 0.012869 0.02375 0.000147784
1.16051e-19 0.026619 0.00479858 0.000240684
-2.1684e-19 -0.024631 0.011217 0.000213143
-1.0842e-19 -0.019631 0.01875 0.000178327
-1.0842e-19 -0.027131 0.00116943 0.000193291
-1.22885e-19 0.024119 0.0124878 0.0002077
3.28979e-21 -0.018381 0.02 0.000171004
0 -0.007131 0.02625 0.000130104
2.68213e-29 -0.020881 0.0174849 0.000184909
1.57772e-30 -0.020881 0.0175 0.000184835
-1.91544e-20 -0.010881 0.025 0.000138805
0 -0.017131 0.02125 0.000163683
-1.0842e-19 -0.027131 0.00356872 0.00024937
0 0.007869 0.02625 0.000130288
-1.0842e-19 -0.022131 0.0162494 0.000191348
-9.67102e-20 -0.000881 0.0275 0.000120949
-9.67102e-20 -0.015881 0.0225 0.000155598
-9.67102e-20 0.001619 0.0275 0.000120981
-4.15987e-20 0.011619 0.025 0.000139057
4.76561e-20 0.026619 0.00736572 0.000227935
-1.91544e-20 0.019119 0.02 0.000171226
-1.0842e-19 0.020369 0.01875 0.0001785
8.08456e-20 -0.003381 0.0275 0.000120919
0 -0.025881 0.00994629 0.000218118
0 0.025369 0.011217 0.000212743
-1.03398e-25 0.0276625 0.00233887 0.000219331
0 0.017869 0.02125 0.000163946
0 -0.023381 0.0149988 0.000197085
0 -0.027131 0.00608215 0.000234515
8.08456e-20 0.004119 0.0275 0.000121015
8.08353e-20 0.021619 0.0175 0.000184943
-1.0842e-19 0.027869 0.00116944 0.000191321
1.0842e-19 -0.014631 0.02375 0.000147515
-1.0842e-19 -0.009631 0.02625 0.00013008
-1.91544e-20 0.016619 0.0225 0.000155885
-1.0842e-19 0.022869 0.0162494 0.00019138
-1.0842e-19 0.027869 0.00356872 0.000247772
-1.91544e-20 -0.005881 0.0275 0.000120891
0 -0.024631 0.0137433 0.000202835
0 0.010369 0.02625 0.000130327
-1.91544e-20 0.006619 0.0275 0.000121052
0 0.015369 0.02375 0.00014782
8.08456e-20 -0.013381 0.025 0.000138785
3.30872e-24 -0.028381 1.56354e-08 0.000193318
3.69431e-20 0.024119 0.0149988 0.000197023
-6.0395e-20 0.026619 0.00994629 0.00021756
-9.03e-20 -0.028381 0.00233888 0.000221136
-2.1684e-19 -0.027131 0.008656 0.000223126
1.0842e-19 0.027869 0.00608215 0.000233421
5.84013e-20 0.014119 0.025 0.000139096
3.23117e-27 -0.025881 0.0124878 0.000207986
8.08456e-20 -0.008381 0.0275 0.000120864
0 0.000369 0.02875 0.000111743
5.32301e-20 -0.028381 0.00479858 0.000242022
-1.0842e-19 -0.002131 0.02875 0.00011171
1.0842e-19 0.025369 0.0137433 0.000202667
0 0.002869 0.02875 0.000111777
8.08456e-20 -0.020881 0.02 0.000170998
0 -0.012131 0.02625 0.000130057
-1.0842e-19 -0.019631 0.02125 0.000163674
3.28979e-21 0.009119 0.0275 0.000121092
0 -0.022131 0.01875 0.000178324
-1.91544e-20 -0.018381 0.0225 0.000155585
-1.65436e-24 0.029119 8.18133e-09 0.000191249
-1.0842e-19 -0.004631 0.02875 0.00011168
0 0.027869 0.008656 0.000222393
-7.41529e-29 -0.023381 0.0174821 0.000184923
-1.91512e-20 -0.023381 0.0175 0.000184836
-2.06795e-25 0.029119 0.00233887 0.000219264
0 0.012869 0.02625 0.000130368
0 0.005369 0.02875 0.000111815
0 -0.017131 0.02375 0.000147499
0 -0.028381 0.00736572 0.000228844
0 -0.027131 0.011217 0.000213164
-3.55229e-20 0.026619 0.0124878 0.00020769
0 0.020369 0.02125 0.000163977
-1.91544e-20 0.021619 0.02 0.000171253
6.13923e-26 0.0290996 0.00479858 0.000240612
0 -0.024631 0.0162494 0.000191352
-1.09497e-20 0.029119 0.00479858 0.000240611
-1.91544e-20 0.019119 0.0225 0.00015592
-8.07794e-28 0.029119 0.00495435 0.000239839
-1.0842e-19 0.022869 0.01875 0.000178523
8.08456e-20 -0.010881 0.0275 0.000120839
8.08456e-20 -0.015881 0.025 0.000138766
0 -0.007131 0.02875 0.000111651
0 -0.029631 0.00116943 0.000193344
0 0.017869 0.02375 0.000147859
1.58393e-19 0.024119 0.0175 0.00018496
0 0.007869 0.02875 0.000111855
0 -0.029631 0.00356872 0.00024943
8.08456e-20 0.011619 0.0275 0.000121134
0 -0.025881 0.0149988 0.000197093
-3.54881e-20 -0.000881 0.03 0.000102293
5.84013e-20 0.016619 0.025 0.000139137
0 0.029119 0.00736572 0.000227889
-1.0842e-19 0.027869 0.011217 0.000212726
8.08456e-20 0.001619 0.03 0.000102326
1.0842e-19 -0.014631 0.02625 0.000130035
1.29247e-26 -0.028381 0.00994629 0.000218145
-1.0842e-19 0.025369 0.0162494 0.000191391
6.45119e-20 -0.003381 0.03 0.000102261
0 -0.029631 0.00608215 0.00023456
8.08456e-20 0.004119 0.03 0.000102362
-1.0842e-19 -0.009631 0.02875 0.000111623
0 0.030369 0.00116944 0.000191177
1.0842e-19 -0.027131 0.0137433 0.000202847
0 0.015369 0.02625 0.000130412
3.47103e-20 0.026619 0.0149988 0.000197028
1.0842e-19 0.010369 0.02875 0.000111898
6.45119e-20 -0.005881 0.03 0.000102232
0 0.030369 0.00356872 0.000247682
5.84013e-20 -0.013381 0.0275 0.000120815
0 -0.022131 0.02125 0.000163664
1.58401e-19 -0.020881 0.0225 0.000155572
3.28979e-21 0.006619 0.03 0.000102401
-1.91544e-20 -0.023381 0.02 0.000170991
0 0.029119 0.00994629 0.000217534
-1.0842e-19 -0.019631 0.02375 0.000147483
0 -0.029631 0.008656 0.000223157
0 -0.030881 1.5949e-08 0.00019337
5.84013e-20 0.014119 0.0275 0.000121178
0 -0.024631 0.01875 0.000178321
0 -0.030881 0.00233888 0.000221192
1.0842e-19 0.030369 0.00608215 0.000233364
0 -0.028381 0.0124878 0.000208003
-1.91544e-20 -0.018381 0.025 0.000138747
0 0.027869 0.0137433 0.000202665
3.28979e-21 -0.008381 0.03 0.000102204
-1.91544e-20 0.021619 0.0225 0.000155957
-1.0842e-19 -0.012131 0.02875 0.000111597
0 0.022869 0.02125 0.00016401
1.21485e-28 -0.025881 0.0174764 0.000184952
8.08456e-20 -0.025881 0.0175 0.000184836
0 -0.030881 0.00479858 0.000242073
1.0842e-19 0.000369 0.03125 9.28758e-05
0 0.020369 0.02375 0.000147899
0 -0.002131 0.03125 9.28434e-05
8.08456e-20 0.024119 0.02 0.000171281
-1.0842e-19 -0.017131 0.02625 0.000130013
1.9387e-26 0.0304751 0.00736572 0.000227864
3.28979e-21 0.009119 0.03 0.000102442
-1.0842e-19 0.002869 0.03125 9.29104e-05
5.84013e-20 0.019119 0.025 0.00013918
1.0842e-19 0.012869 0.02875 0.000111943
0 0.025369 0.01875 0.000178547
-1.0842e-19 0.030369 0.008656 0.000222358
1.0842e-19 -0.004631 0.03125 9.28131e-05
-1.65436e-24 0.031619 9.51851e-09 0.000191103
0 -0.027131 0.0162494 0.000191357
-1.0842e-19 -0.029631 0.011217 0.000213185
1.12206e-19 0.029119 0.0124878 0.000207681
9.40707e-20 0.031619 0.00233887 0.000219145
1.0842e-19 0.005369 0.03125 9.29476e-05
0 -0.030881 0.00736572 0.000228882
0 0.017869 0.02625 0.000130458
5.84013e-20 -0.015881 0.0275 0.000120791
8.08393e-20 0.026619 0.0175 0.000184978
1.58401e-19 -0.010881 0.03 0.000102176
5.63731e-20 0.031619 0.00479858 0.000240537
1.0842e-19 -0.007131 0.03125 9.27841e-05
0 -0.028381 0.0149988 0.000197102
1.58401e-19 0.016619 0.0275 0.000121225
0 -0.032131 0.00116943 0.000193395
1.58401e-19 0.011619 0.03 0.000102486
-1.0842e-19 0.007869 0.03125 9.29872e-05
0 -0.014631 0.02875 0.000111572
-1.0842e-19 0.027869 0.0162494 0.000191404
0 -0.032131 0.00356872 0.000249489
-1.0842e-19 0.030369 0.011217 0.00021271
0 -0.030881 0.00994629 0.000218171
5.84013e-20 -0.023381 0.0225 0.00015556
-1.0842e-19 -0.022131 0.02375 0.000147468
0 0.031619 0.00736572 0.000227842
-9.67102e-20 -0.000881 0.0325 8.36647e-05
-1.0842e-19 -0.024631 0.02125 0.000163655
8.08456e-20 0.001619 0.0325 8.36977e-05
5.84013e-20 -0.020881 0.025 0.000138729
-1.0842e-19 0.015369 0.02875 0.00011199
-1.0842e-19 -0.029631 0.0137433 0.00020286
-1.13044e-19 -0.003381 0.0325 8.36336e-05
0 -0.009631 0.03125 9.27565e-05
2.1684e-19 -0.032131 0.00608215 0.000234603
0 0.0311547 0.00994629 0.000217513
-1.91544e-20 -0.025881 0.02 0.000170985
-4.00585e-20 0.029119 0.0149988 0.000197034
8.08456e-20 0.004119 0.0325 8.37331e-05
0 -0.019631 0.02625 0.000129992
-4.15987e-20 -0.013381 0.03 0.00010215
-2.1684e-19 0.032869 0.00116944 0.000191028
-1.0842e-19 0.010369 0.03125 9.30295e-05
0 0.022869 0.02375 0.000147941
0 -0.027131 0.01875 0.000178318
1.58401e-19 0.024119 0.0225 0.000155995
-1.30438e-20 -0.005881 0.0325 8.36042e-05
5.84013e-20 0.021619 0.025 0.000139225
1.0842e-19 0.032869 0.00356872 0.000247589
0 -0.018381 0.0275 0.000120768
0 0.025369 0.02125 0.000164045
0 0.031619 0.00994629 0.000217508
-4.15987e-20 0.014119 0.03 0.000102532
8.08456e-20 0.006619 0.0325 8.3771e-05
0 0.020369 0.02625 0.000130505
0 -0.032131 0.008656 0.000223189
-3.54881e-20 0.026619 0.02 0.000171311
0 -0.030881 0.0124878 0.00020802
5.6798e-29 -0.028381 0.0174652 0.000185008
1.0842e-19 0.030369 0.0137433 0.000202664
1.57772e-30 -0.028381 0.0175 0.000184837
0 -0.033381 1.52992e-08 0.000193419
1.0842e-19 0.032869 0.00608215 0.000233306
0 -0.033381 0.00233888 0.000221245
-1.0842e-19 -0.017131 0.02875 0.000111547
5.84013e-20 0.019119 0.0275 0.000121274
-1.0842e-19 -0.012131 0.03125 9.27296e-05
6.45119e-20 -0.008381 0.0325 8.35762e-05
0 0.027869 0.01875 0.000178571
0 -0.033381 0.00479858 0.000242124
1.0842e-19 0.000369 0.03375 7.44856e-05
-1.91544e-20 0.009119 0.0325 8.38113e-05
0 -0.029631 0.0162494 0.000191361
0 0.012869 0.03125 9.30741e-05
1.0842e-19 -0.002131 0.03375 7.44539e-05
-1.0842e-19 0.017869 0.02875 0.00011204
-1.0842e-19 0.002869 0.03375 7.45192e-05
-5.04871e-29 0.0315631 0.0124878 0.000207673
-1.91544e-20 -0.015881 0.03 0.000102125
-9.67102e-20 0.029119 0.0175 0.000184997
0 0.032869 0.00865601 0.000222322
0 0.031619 0.0124878 0.000207673
-1.0842e-19 -0.032131 0.011217 0.000213207
0 -0.004631 0.03375 7.44242e-05
0 0.034119 8.73377e-09 0.00019095
1.0842e-19 0.005369 0.03375 7.45553e-05
0 -0.033381 0.00736572 0.000228919
0 0.034119 0.00233887 0.000219021
-1.0842e-19 -0.024631 0.02375 0.000147453
-4.15987e-20 -0.023381 0.025 0.000138711
8.08456e-20 -0.010881 0.0325 8.3549e-05
-1.91544e-20 -0.025881 0.0225 0.000155548
1.58401e-19 0.016619 0.03 0.00010258
5.04871e-29 -0.030881 0.0149988 0.00019711
-1.0842e-19 -0.022131 0.02625 0.000129971
0 0.030369 0.0162494 0.000191417
0 0.034119 0.00479858 0.00024046
0 -0.027131 0.02125 0.000163646
1.0842e-19 -0.007131 0.03375 7.43957e-05
-1.0842e-19 -0.014631 0.03125 9.27034e-05
1.58401e-19 0.011619 0.0325 8.3854e-05
8.08456e-20 -0.020881 0.0275 0.000120746
2.1684e-19 -0.034631 0.00116944 0.000193443
0 0.007869 0.03375 7.45938e-05
-1.26218e-29 0.031619 0.0142466 0.000200226
-1.91544e-20 -0.028381 0.02 0.000170979
2.1684e-19 0.032869 0.011217 0.000212694
5.84013e-20 0.024119 0.025 0.000139272
-1.0842e-19 0.025369 0.02375 0.000147985
1.0842e-19 -0.019631 0.02875 0.000111522
0 -0.034631 0.00356872 0.000249546
-1.0842e-19 0.022869 0.02625 0.000130555
0 0.015369 0.03125 9.3121e-05
0 -0.033381 0.00994629 0.000218197
3.28979e-21 0.026619 0.0225 0.000156035
-2.58494e-26 0.034119 0.00736572 0.000227795
1.0842e-19 -0.032131 0.0137433 0.000202872
1.58401e-19 0.021619 0.0275 0.000121324
-4.38726e-20 0.031619 0.0149988 0.000197041
-9.67102e-20 -0.000881 0.035 6.57055e-05
-1.91544e-20 0.001619 0.035 6.57378e-05
1.0842e-19 0.027869 0.02125 0.000164081
1.0842e-19 -0.029631 0.01875 0.000178316
0 -0.009631 0.03375 7.43684e-05
-1.91544e-20 -0.013381 0.0325 8.35225e-05
-1.0842e-19 -0.034631 0.00608215 0.000234646
6.45119e-20 -0.003381 0.035 6.56751e-05
2.52435e-29 -0.031818 0.0149988 0.000197114
-1.57772e-30 -0.018381 0.03 0.000102099
0 0.020369 0.02875 0.000112092
1.58401e-19 0.004119 0.035 6.57722e-05
0 0.010369 0.03375 7.46347e-05
-3.54881e-20 0.029119 0.02 0.000171342
-2.52435e-29 0.0320461 0.0149988 0.000197042
-1.0842e-19 0.035369 0.00116944 0.000190872
-4.15987e-20 0.014119 0.0325 8.3899e-05
-3.15544e-30 -0.030881 0.0174159 0.000185251
-1.30438e-20 -0.005881 0.035 6.56462e-05
-1.91534e-20 -0.030881 0.0175 0.000184838
0 0.034119 0.00994629 0.000217482
1.0842e-19 0.035369 0.00356872 0.000247494
8.08456e-20 0.019119 0.03 0.000102631
1.65436e-24 0.0355748 0 0.000190857
8.08456e-20 0.006619 0.035 6.5809e-05
1.0842e-19 0.032869 0.0137433 0.000202664
0 -0.017131 0.03125 9.26776e-05
0 -0.033381 0.0124878 0.000208037
0 0.030369 0.01875 0.000178598
0 -0.034631 0.008656 0.00022322
1.00974e-28 -0.0335264 0.0124878 0.000208038
1.0842e-19 -0.012131 0.03375 7.43417e-05
0 -0.035881 1.26451e-08 0.000193466
-1.0842e-19 0.035369 0.00608215 0.000233247
0 -0.035881 0.00233887 0.000221298
5.84013e-20 -0.025881 0.025 0.000138693
-3.54881e-20 -0.008381 0.035 6.56185e-05
0 -0.024631 0.02625 0.000129951
0 0.017869 0.03125 9.317e-05
1.0842e-19 -0.032131 0.0162494 0.000191365
1.0842e-19 -0.027131 0.02375 0.000147438
-1.91544e-20 -0.023381 0.0275 0.000120724
0 0.012869 0.03375 7.46778e-05
-3.54895e-20 0.031619 0.0175 0.000185018
-5.04871e-29 -0.033381 0.0139009 0.000201893
3.28979e-21 0.009119 0.035 6.58481e-05
8.08456e-20 -0.015881 0.0325 8.34965e-05
0 -0.035881 0.00479858 0.000242174
-1.91544e-20 -0.028381 0.0225 0.000155536
-1.0842e-19 0.000369 0.03625 5.69569e-05
0 -0.022131 0.02875 0.000111498
-1.0842e-19 -0.002131 0.03625 5.69258e-05
0 0.034119 0.0124878 0.000207665
0 0.002869 0.03625 5.69895e-05
1.0842e-19 -0.034631 0.011217 0.000213228
1.0842e-19 0.035369 0.008656 0.000222287
-1.0842e-19 -0.029631 0.02125 0.000163637
-4.15987e-20 0.016619 0.0325 8.39462e-05
-1.0842e-19 0.025369 0.02625 0.000130606
8.08456e-20 0.026619 0.025 0.00013932
0 -0.004631 0.03625 5.68967e-05
8.08456e-20 -0.020881 0.03 0.000102075
-1.91544e-20 0.024119 0.0275 0.000121377
1.1385e-19 -0.033381 0.0149988 0.000197119
1.0842e-19 0.027869 0.02375 0.00014803
0 0.036619 6.26428e-09 0.000190791
0 -0.035881 0.00736572 0.000228956
0 0.005369 0.03625 5.70249e-05
-9.67102e-20 -0.010881 0.035 6.55916e-05
0 0.032869 0.0162494 0.000191432
0 0.0365979 0.00233887 0.000218894
1.61559e-27 0.036619 0.00233887 0.000218893
-1.29247e-26 0.036619 0.00246721 0.000220014
0 0.022869 0.02875 0.000112146
0 -0.014631 0.03375 7.43155e-05
-1.91544e-20 -0.030881 0.02 0.000170974
6.45119e-20 0.029119 0.0225 0.000156077
-4.84676e-27 -0.0354682 0.00994629 0.000218219
-3.54881e-20 0.011619 0.035 6.58895e-05
1.0842e-19 -0.019631 0.03125 9.26522e-05
0 0.036619 0.00479858 0.000240382
0 -0.007131 0.03625 5.68683e-05
-9.67102e-20 0.021619 0.03 0.000102683
0 0.030369 0.02125 0.000164118
-1.0842e-19 0.015369 0.03375 7.47233e-05
0 0.007869 0.03625 5.70621e-05
-1.0842e-19 0.035369 0.011217 0.000212677
0 -0.037131 0.00116943 0.000193489
0 -0.035881 0.00981197 0.000218782
0 -0.032131 0.01875 0.000178313
0 -0.035881 0.00994629 0.000218224
0 -0.034631 0.0137433 0.000202884
1.00974e-28 0.034119 0.0149988 0.000197049
1.0842e-19 -0.037131 0.00356872 0.000249603
-1.0842e-19 0.020369 0.03125 9.32209e-05
-1.57772e-30 -0.018381 0.0325 8.34709e-05
0 0.036619 0.00736572 0.000227747
-1.30438e-20 0.031619 0.02 0.000171375
-1.91544e-20 -0.013381 0.035 6.55652e-05
-1.0842e-19 -0.009631 0.03625 5.68415e-05
-3.54881e-20 -0.000881 0.0375 4.87324e-05