# k  POINT_DATA 34187
# x  y  z  k
1.60275e-08 -1.0842e-19 0 0.000192547
-0.000880992 1.0842e-19 0 0.000192522
0.00088102 5.42101e-20 0 0.000192574
-0.00161899 0 0 0.0001925
0.00161901 -5.42101e-20 0 0.000192596
-0.00124999 2.71051e-20 0.00116943 0.000196108
0.00125001 -1.807e-20 0.00116943 0.000196176
6.3044e-09 1.0842e-19 0.00233887 0.00022038
-0.0025 -1.0842e-19 0 0.000192472
0.00250002 -1.0842e-19 0 0.000192623
-0.003381 0 0 0.000192445
0.00338102 0 0 0.000192652
-0.0025 -1.0842e-19 0.00233887 0.000220351
0.00250001 1.0842e-19 0.00233887 0.00022041
-0.00125 0 0.00356872 0.000244075
0.00125 1.807e-20 0.00356872 0.000244057
-0.00375 1.807e-20 0.00116943 0.000196037
0.00375001 9.03502e-21 0.00116944 0.000196249
0.004119 -5.42101e-20 0 0.000192676
-0.004119 -5.42101e-20 0 0.000192423
2.41733e-09 -1.0842e-19 0.00479858 0.000241384
0.005 -1.0842e-19 0 0.000192704
-0.00500001 1.0842e-19 0 0.000192399
-0.00375 -9.03502e-21 0.00356873 0.000244095
0.00375 1.807e-20 0.00356873 0.000244041
0.0025 -1.0842e-19 0.00479858 0.000241315
-0.0025 0 0.00479858 0.000241454
0.005 1.0842e-19 0.00233887 0.000220443
-0.005 0 0.00233887 0.000220324
0.005881 -5.42101e-20 0 0.000192734
-0.00588101 5.42101e-20 0 0.000192375
-0.00125 0 0.00608215 0.000234293
0.00125 0 0.00608215 0.000234174
0.00625 0 0.00116944 0.000196325
-0.00625 -1.807e-20 0.00116944 0.000195974
0.00661899 5.42101e-20 0 0.000192758
-0.006619 -5.42101e-20 0 0.000192355
0.005 -1.0842e-19 0.00479858 0.000241249
-0.005 0 0.00479858 0.000241526
-0.00375 0 0.00608215 0.000234416
0.00375 -1.807e-20 0.00608215 0.000234056
-0.00625 9.03502e-21 0.00356873 0.000244117
0.00625 0 0.00356873 0.000244026
7.8719e-10 0 0.00736572 0.000228392
0.00749999 -1.0842e-19 0 0.000192787
-0.0075 1.0842e-19 0 0.000192329
0.0025 0 0.00736572 0.000228235
-0.0025 0 0.00736572 0.000228552
0.0075 0 0.00233887 0.000220478
-0.0075 -1.0842e-19 0.00233887 0.000220299
0.00838099 -5.42101e-20 0 0.000192817
-0.008381 5.42101e-20 0 0.000192305
-0.00625 -3.61401e-20 0.00608215 0.00023454
0.00625 1.807e-20 0.00608215 0.000233941
-0.00125 3.61401e-20 0.008656 0.000222954
0.00125 3.61401e-20 0.00865601 0.000222762
-0.00874999 -9.03502e-21 0.00116944 0.00019591
0.00875 0 0.00116943 0.000196403
0.005 0 0.00736572 0.00022808
-0.005 0 0.00736572 0.000228715
0.0075 0 0.00479858 0.000241184
-0.0075 0 0.00479858 0.000241601
-0.00911899 -5.42101e-20 0 0.000192285
0.00911899 -5.42101e-20 0 0.000192843
0.00375 -1.807e-20 0.008656 0.000222572
-0.00375 -1.807e-20 0.008656 0.000223152
-0.00875 2.71051e-20 0.00356873 0.000244139
0.00875 1.807e-20 0.00356873 0.000244013
1.93058e-10 0 0.00994629 0.000217837
-0.00999999 0 0 0.000192262
0.00999999 -1.0842e-19 0 0.000192873
0.0025 0 0.00994629 0.000217626
-0.0025 0 0.00994629 0.000218052
-0.00999999 0 0.00233887 0.000220277
0.01 0 0.00233887 0.000220515
0.0075 0 0.00736572 0.000227928
-0.0075 0 0.00736572 0.00022888
-0.00875 -1.807e-20 0.00608215 0.000234667
0.00875 -3.61401e-20 0.00608215 0.000233827
-0.00625 0 0.008656 0.00022335
0.00625 1.807e-20 0.008656 0.000222386
0.010881 1.0842e-19 0 0.000192905
-0.010881 -5.42101e-20 0 0.000192241
0.01 0 0.00479858 0.000241121
-0.01 0 0.00479858 0.000241677
0.005 0 0.00994629 0.000217418
-0.005 0 0.00994629 0.000218269
-0.00125 -3.61401e-20 0.011217 0.000213018
0.00125 -3.61401e-20 0.011217 0.00021279
-0.01125 2.71051e-20 0.00116944 0.000195852
0.01125 -3.61401e-20 0.00116943 0.000196484
-0.011619 5.42101e-20 0 0.000192222
0.011619 0 0 0.000192931
-0.01125 -1.807e-20 0.00356872 0.000244165
0.01125 1.807e-20 0.00356873 0.000244
-0.00375 1.807e-20 0.011217 0.00021325
0.00375 0 0.011217 0.000212565
0.00875 -1.807e-20 0.008656 0.000222201
-0.00875 -1.807e-20 0.008656 0.000223553
0.01 0 0.00736572 0.000227779
-0.01 0 0.00736572 0.000229049
0.0075 0 0.00994629 0.000217213
-0.0075 0 0.00994629 0.00021849
3.05206e-11 0 0.0124878 0.000207815
0.0125 -1.0842e-19 0 0.000192962
-0.0125 1.0842e-19 0 0.000192199
0.0125 0 0.00233887 0.000220554
-0.0125 1.0842e-19 0.00233887 0.000220257
0.0025 0 0.0124878 0.000207586
-0.0025 0 0.0124878 0.000208047
-0.01125 -9.03502e-21 0.00608215 0.000234797
0.01125 0 0.00608215 0.000233716
-0.00625 -3.61401e-20 0.011217 0.000213484
0.00625 -1.807e-20 0.011217 0.000212344
0.013381 -5.42101e-20 0 0.000192994
-0.013381 0 0 0.000192177
0.0125 0 0.00479858 0.00024106
-0.0125 -1.0842e-19 0.00479858 0.000241756
0.005 0 0.0124878 0.000207359
-0.005 0 0.0124878 0.000208283
0.01375 9.03502e-21 0.00116943 0.000196568
-0.01375 9.03502e-21 0.00116944 0.000195794
-0.00125 5.42101e-20 0.0137433 0.000202756
0.00125 0 0.0137433 0.000202527
0.01 0 0.00994629 0.00021701
-0.01 0 0.00994629 0.000218715
-0.014119 -1.0842e-19 0 0.000192158
0.014119 -5.42101e-20 0 0.000193021
0.01125 -1.807e-20 0.008656 0.00022202
-0.01125 -1.807e-20 0.00865601 0.000223759
-0.01375 0 0.00356873 0.000244191
0.01375 9.03502e-21 0.00356873 0.00024399
-0.00875 0 0.011217 0.000213722
0.00875 -1.807e-20 0.011217 0.000212125
0.00375 -1.807e-20 0.0137433 0.0002023
-0.00375 0 0.0137433 0.000202989
0.0125 0 0.00736572 0.000227632
-0.0125 0 0.00736572 0.000229221
0.0075 0 0.0124878 0.000207136
-0.0075 0 0.0124878 0.000208521
2.26617e-12 0 0.0149988 0.000197018
0.015 -1.0842e-19 0 0.000193053
-0.015 0 0 0.000192136
0.01375 -1.807e-20 0.00608215 0.000233607
-0.01375 3.61401e-20 0.00608215 0.00023493
0.00625 -1.807e-20 0.0137433 0.000202076
-0.00625 0 0.0137433 0.000203224
0.015 -1.0842e-19 0.00233887 0.000220595
-0.015 1.0842e-19 0.00233887 0.000220239
0.0025 0 0.0149988 0.000196801
-0.0025 0 0.0149988 0.000197237
0.015 0 0.00479858 0.000241
-0.015 -1.0842e-19 0.00479858 0.000241836
0.005 0 0.0149988 0.000196587
-0.005 0 0.0149988 0.000197459
0.015881 -1.0842e-19 0 0.000193087
-0.015881 1.0842e-19 0 0.000192116
0.01125 0 0.011217 0.000211909
-0.01125 0 0.011217 0.000213963
0.0125 0 0.00994629 0.000216811
-0.0125 0 0.00994629 0.000218943
0.01 0 0.0124878 0.000206915
-0.01 0 0.0124878 0.000208763
-0.01375 -1.807e-20 0.008656 0.000223968
0.01375 -3.61401e-20 0.008656 0.000221842
0.01625 -1.807e-20 0.00116943 0.000196654
-0.01625 9.03502e-21 0.00116943 0.000195739
-0.00875 -1.807e-20 0.0137433 0.000203462
0.00875 0 0.0137433 0.000201854
-0.00125 1.807e-20 0.0162494 0.000191324
0.00125 -3.61401e-20 0.0162494 0.000191121
-0.016619 0 0 0.000192099
0.016619 -1.0842e-19 0 0.000193115
-0.01625 0 0.00356873 0.00024422
0.01625 -1.807e-20 0.00356872 0.000243981
0.00375 -1.807e-20 0.0162494 0.00019092
-0.00375 -1.807e-20 0.0162494 0.000191529
0.015 0 0.00736572 0.000227487
-0.015 0 0.00736572 0.000229396
0.0075 0 0.0149988 0.000196375
-0.0075 0 0.0149988 0.000197683
0.01625 -1.807e-20 0.00608215 0.0002335
-0.01625 -2.71051e-20 0.00608215 0.000235065
-0.00625 0 0.0162494 0.000191736
0.00625 0 0.0162494 0.00019072
0.0175 -1.0842e-19 0 0.000193148
-0.0175 -1.0842e-19 0 0.000192078
-1.02402e-14 0 0.0175 0.000184846
0.0175 -1.0842e-19 0.00233887 0.000220639
-0.0175 0 0.00233887 0.000220223
0.0125 0 0.0124878 0.000206697
-0.0125 0 0.0124878 0.000209008
0.0025 0 0.0175 0.000184667
-0.0025 0 0.0175 0.000185027
-0.01375 -1.807e-20 0.011217 0.000214209
0.01375 -1.807e-20 0.011217 0.000211696
0.01125 0 0.0137433 0.000201635
-0.01125 -1.807e-20 0.0137433 0.000203703
0.015 0 0.00994629 0.000216614
-0.015 0 0.00994629 0.000219174
0.01 0 0.0149988 0.000196165
-0.01 0 0.0149988 0.000197909
0.0175 0 0.00479858 0.000240943
-0.0175 0 0.00479858 0.000241919
0.005 0 0.0175 0.000184489
-0.005 0 0.0175 0.00018521
-0.018381 -1.0842e-19 0 0.000192058
0.018381 -5.42101e-20 0 0.000193183
0.01625 -1.807e-20 0.008656 0.000221666
-0.01625 -1.807e-20 0.008656 0.00022418
-0.00875 0 0.0162494 0.000191945
0.00875 1.807e-20 0.0162494 0.000190523
0.01875 0 0.00116943 0.000196744
-0.01875 -9.03502e-21 0.00116943 0.000195687
0.00125 -1.807e-20 0.01875 0.000178186
-0.00125 -1.807e-20 0.01875 0.000178341
0.0175 0 0.00736572 0.000227345
-0.0175 0 0.00736572 0.000229574
0.0075 0 0.0175 0.000184313
-0.0075 0 0.0175 0.000185393
0.01875 0 0.00356872 0.000243974
-0.01875 1.807e-20 0.00356873 0.00024425
0.019119 1.0842e-19 0 0.000193211
-0.019119 5.42101e-20 0 0.000192041
0.00375 -1.807e-20 0.01875 0.000178033
-0.00375 -1.807e-20 0.01875 0.000178497
0.01375 0 0.0137433 0.000201419
-0.01375 0 0.0137433 0.000203947
0.015 0 0.0124878 0.000206482
-0.015 0 0.0124878 0.000209256
0.0125 0 0.0149988 0.000195957
-0.0125 0 0.0149988 0.000198138
0.01875 -9.03502e-21 0.00608215 0.000233395
-0.01875 -1.807e-20 0.00608215 0.000235203
0.01625 -1.807e-20 0.011217 0.000211486
-0.01625 -1.807e-20 0.011217 0.000214456
0.01125 1.807e-20 0.0162494 0.000190327
-0.01125 -1.807e-20 0.0162494 0.000192157
0.00625 1.807e-20 0.01875 0.00017788
-0.00625 1.807e-20 0.01875 0.000178653
0.02 0 0 0.000193246
-0.02 -1.0842e-19 0 0.000192021
-1.024e-14 0 0.02 0.000171071
0.0175 0 0.00994629 0.00021642
-0.0175 0 0.00994629 0.000219409
0.02 1.0842e-19 0.00233887 0.000220685
-0.02 0 0.00233887 0.000220209
0.0025 0 0.02 0.000170948
0.01 0 0.0175 0.000184138
-0.0025 0 0.02 0.000171195
-0.01 0 0.0175 0.000185579
0.02 -1.0842e-19 0.00479858 0.000240886
-0.02 0 0.00479858 0.000242005
0.005 0 0.02 0.000170826
-0.005 0 0.02 0.000171319
0.01875 0 0.008656 0.000221492
-0.01875 -1.807e-20 0.008656 0.000224397
0.00875 0 0.01875 0.000177729
-0.00875 0 0.01875 0.000178811
-0.020881 5.42101e-20 0 0.000192001
0.020881 5.42101e-20 0 0.000193281
0.015 0 0.0149988 0.000195751
-0.015 0 0.0149988 0.00019837
-0.02125 -9.03502e-21 0.00116943 0.000195636
0.02125 0 0.00116944 0.000196836
-0.01625 -1.807e-20 0.0137433 0.000204193
0.01625 -1.807e-20 0.0137433 0.000201205
-0.01375 0 0.0162494 0.000192369
0.01375 0 0.0162494 0.000190134
0.00125 -1.807e-20 0.02125 0.000163627
-0.00125 -1.807e-20 0.02125 0.000163718
0.02 0 0.00736572 0.000227204
-0.02 0 0.00736572 0.000229755
0.0075 0 0.02 0.000170704
-0.0075 0 0.02 0.000171444
0.0175 0 0.0124878 0.000206269
-0.0175 0 0.0124878 0.000209507
0.0125 0 0.0175 0.000183964
-0.0125 0 0.0175 0.000185765
-0.02125 0 0.00356873 0.000244282
0.02125 -9.03502e-21 0.00356873 0.000243968
0.00375 -3.61401e-20 0.02125 0.000163537
-0.00375 -1.807e-20 0.02125 0.000163808
0.021619 0 0 0.000193311
-0.021619 5.42101e-20 0 0.000191985
-0.01875 -1.807e-20 0.011217 0.000214709
0.01875 0 0.011217 0.000211278
0.01125 -1.807e-20 0.01875 0.000177578
-0.01125 -1.807e-20 0.01875 0.000178969
-0.02125 -2.71051e-20 0.00608215 0.000235344
0.02125 1.807e-20 0.00608215 0.000233293
-0.00625 1.807e-20 0.02125 0.000163899
0.00625 -1.807e-20 0.02125 0.000163446
0.02 0 0.00994629 0.000216229
-0.02 0 0.00994629 0.000219648
0.01 0 0.02 0.000170582
-0.01 0 0.02 0.000171569
0.0225 0 0 0.000193346
-0.0225 -1.0842e-19 0 0.000191967
-1.02399e-14 0 0.0225 0.000155702
0.0225 -1.0842e-19 0.00233887 0.000220732
-0.0225 1.0842e-19 0.00233887 0.000220198
0.0025 0 0.0225 0.000155647
-0.0025 0 0.0225 0.000155756
-0.02125 -1.807e-20 0.008656 0.000224617
0.02125 -1.807e-20 0.008656 0.000221322
0.01625 -1.807e-20 0.0162494 0.000189942
-0.01625 0 0.0162494 0.000192585
0.00875 -1.807e-20 0.02125 0.000163356
-0.00875 -3.61401e-20 0.02125 0.00016399
0.0225 -1.0842e-19 0.00479858 0.000240831
-0.0225 -1.0842e-19 0.00479858 0.000242093
0.0175 0 0.0149988 0.000195548
-0.0175 0 0.0149988 0.000198604
0.005 0 0.0225 0.000155592
-0.005 0 0.0225 0.00015581
0.015 0 0.0175 0.000183792
-0.015 0 0.0175 0.000185954
0.01875 0 0.0137433 0.000200993
-0.01875 -1.807e-20 0.0137433 0.000204443
0.01375 5.42101e-20 0.01875 0.000177429
-0.01375 -3.61401e-20 0.01875 0.000179129
-0.023381 -5.42101e-20 0 0.000191949
0.023381 0 0 0.000193383
0.02 0 0.0124878 0.000206059
-0.02 0 0.0124878 0.000209762
0.0125 0 0.02 0.000170461
-0.0125 0 0.02 0.000171694
0.0225 0 0.00736572 0.000227066
-0.0225 0 0.00736572 0.00022994
0.0075 0 0.0225 0.000155536
-0.0075 0 0.0225 0.000155863
-0.02375 0 0.00116943 0.00019559
0.02375 0 0.00116944 0.000196931
0.00125 1.807e-20 0.02375 0.000147537
-0.00125 -1.807e-20 0.02375 0.000147555
0.02375 -3.61401e-20 0.00356873 0.000243963
-0.02375 1.807e-20 0.00356873 0.000244317
0.02125 -1.807e-20 0.011217 0.000211073
-0.02125 -1.807e-20 0.011217 0.000214964
-0.01125 -1.807e-20 0.02125 0.000164081
0.01125 -1.807e-20 0.02125 0.000163266
0.00375 -1.807e-20 0.02375 0.000147518
-0.00375 0 0.02375 0.000147572
0.024119 -5.42101e-20 0 0.000193413
-0.024119 5.42101e-20 0 0.000191934
0.02375 -1.807e-20 0.00608215 0.000233191
-0.02375 -1.807e-20 0.00608215 0.000235488
-0.00625 -1.807e-20 0.02375 0.000147588
0.00625 -1.807e-20 0.02375 0.000147499
0.0225 0 0.00994629 0.000216041
-0.0225 0 0.00994629 0.00021989
0.01 0 0.0225 0.000155481
-0.01 0 0.0225 0.000155916
0.0175 0 0.0175 0.000183622
-0.0175 0 0.0175 0.000186144
0.01875 -1.807e-20 0.0162494 0.000189752
-0.01875 -1.807e-20 0.0162494 0.000192802
0.01625 -1.807e-20 0.01875 0.00017728
-0.01625 -3.61401e-20 0.01875 0.000179289
0.02 0 0.0149988 0.000195347
-0.02 0 0.0149988 0.00019884
-0.025 -1.0842e-19 0 0.000191916
0.015 0 0.02 0.000170341
-0.015 0 0.02 0.000171821
0.025 0 0 0.000193449
-1.024e-14 0 0.025 0.000138906
0.025 0 0.00233887 0.000220782
-0.025 1.0842e-19 0.00233887 0.000220189
0.0025 0 0.025 0.000138925
-0.0025 0 0.025 0.000138886
0.02375 -1.807e-20 0.008656 0.000221154
-0.02375 -1.807e-20 0.008656 0.000224841
0.02125 -1.807e-20 0.0137433 0.000200784
-0.02125 -1.807e-20 0.0137433 0.000204696
0.01375 -1.807e-20 0.02125 0.000163176
0.00875 0 0.02375 0.000147479
-0.00875 0 0.02375 0.000147603
-0.01375 -3.61401e-20 0.02125 0.000164171
0.025 -1.0842e-19 0.00479858 0.000240778
-0.025 -1.0842e-19 0.00479858 0.000242183
0.005 0 0.025 0.000138943
-0.005 0 0.025 0.000138865
0.0225 0 0.0124878 0.000205852
-0.0225 0 0.0124878 0.00021002
0.0125 0 0.0225 0.000155425
-0.0125 0 0.0225 0.000155969
-0.025881 0 0 0.000191899
0.025881 -1.0842e-19 0 0.000193486
0.025 0 0.00736572 0.00022693
-0.025 0 0.00736572 0.000230128
0.0075 0 0.025 0.00013896
-0.0075 0 0.025 0.000138842
-0.02375 1.807e-20 0.011217 0.000215224
0.02375 -1.807e-20 0.011217 0.000210871
-0.02625 -9.03502e-21 0.00116943 0.000195546
0.02625 -9.03502e-21 0.00116944 0.000197028
0.00125 -3.61401e-20 0.02625 0.000130145
0.01125 0 0.02375 0.000147458
-0.01125 3.61401e-20 0.02375 0.000147618
-0.00125 0 0.02625 0.000130089
-0.02625 -1.807e-20 0.00356873 0.000244354
0.02625 -3.61401e-20 0.00356873 0.000243959
-0.01875 -1.807e-20 0.01875 0.000179451
0.01875 0 0.01875 0.000177133
0.00375 5.42101e-20 0.02625 0.000130201
-0.00375 -1.807e-20 0.02625 0.000130031
0.02 0 0.0175 0.000183453
0.0175 0 0.02 0.000170222
-0.0175 0 0.02 0.000171947
-0.02 0 0.0175 0.000186335
0.026619 1.0842e-19 0 0.000193518
-0.026619 -5.42101e-20 0 0.000191885
0.02125 -1.807e-20 0.0162494 0.000189564
-0.02125 0 0.0162494 0.000193021
0.01625 -1.807e-20 0.02125 0.000163086
-0.01625 -1.807e-20 0.02125 0.000164262
0.025 0 0.00994629 0.000215855
-0.025 0 0.00994629 0.000220137
0.01 0 0.025 0.000138976
-0.01 0 0.025 0.000138819
0.02625 1.807e-20 0.00608215 0.000233091
-0.02625 -1.807e-20 0.00608215 0.000235635
-0.00625 0 0.02625 0.000129971
0.00625 -1.807e-20 0.02625 0.000130255
0.0225 0 0.0149988 0.000195148
-0.0225 0 0.0149988 0.000199079
0.015 0 0.0225 0.000155369
-0.015 0 0.0225 0.000156021
0.02375 -1.807e-20 0.0137433 0.000200577
-0.02375 -1.807e-20 0.0137433 0.000204952
-0.01375 0 0.02375 0.000147631
0.01375 0 0.02375 0.000147437
-1.02401e-14 0 0.0275 0.00012096
0.0275 0 0 0.000193555
-0.0275 -1.0842e-19 0 0.000191868
0.0275 -1.0842e-19 0.00233887 0.000220833
-0.0275 -1.0842e-19 0.00233887 0.000220182
0.0025 0 0.0275 0.000121052
-0.0025 0 0.0275 0.000120866
0.02625 -1.807e-20 0.008656 0.000220988
-0.02625 -1.807e-20 0.008656 0.000225069
0.00875 0 0.02625 0.000130308
-0.00875 -3.61401e-20 0.02625 0.000129909
0.0275 -1.0842e-19 0.00479858 0.000240726
-0.0275 -1.0842e-19 0.00479858 0.000242276
0.025 0 0.0124878 0.000205647
-0.025 0 0.0124878 0.000210282
0.005 0 0.0275 0.000121144
-0.005 0 0.0275 0.00012077
0.0125 0 0.025 0.000138991
-0.0125 0 0.025 0.000138794
0.02 0 0.02 0.000170102
-0.02 0 0.02 0.000172074
0.01875 0 0.02125 0.000162996
-0.01875 0 0.02125 0.000164351
0.02125 0 0.01875 0.000176987
-0.02125 -1.807e-20 0.01875 0.000179613
-0.028381 -5.42101e-20 0 0.000191852
0.028381 -5.42101e-20 0 0.000193594
0.0275 0 0.00736572 0.000226796
-0.0275 0 0.00736572 0.00023032
0.0075 0 0.0275 0.000121233
-0.0075 0 0.0275 0.000120673
0.0175 0 0.0225 0.000155312
0.0225 0 0.0175 0.000183285
-0.0175 0 0.0225 0.000156073
-0.0225 0 0.0175 0.000186528
0.02625 0 0.011217 0.000210671
-0.02625 -1.807e-20 0.011217 0.000215486
-0.01125 0 0.02625 0.000129847
0.01125 5.42101e-20 0.02625 0.00013036
-0.02875 -2.71051e-20 0.00116943 0.000195504
0.02875 -1.807e-20 0.00116943 0.000197129
0.02375 0 0.0162494 0.000189378
-0.02375 0 0.0162494 0.000193242
0.00125 0 0.02875 0.000111774
0.01625 -1.807e-20 0.02375 0.000147416
-0.01625 -1.807e-20 0.02375 0.000147644
-0.00125 -1.807e-20 0.02875 0.000111646
-0.02875 -1.807e-20 0.00356873 0.000244392
0.02875 9.03502e-21 0.00356872 0.000243957
0.00375 -3.61401e-20 0.02875 0.000111901
-0.00375 -1.807e-20 0.02875 0.000111516
0.029119 5.42101e-20 0 0.000193626
-0.029119 0 0 0.000191838
0.025 0 0.0149988 0.000194951
-0.025 0 0.0149988 0.000199321
0.015 0 0.025 0.000139005
-0.015 0 0.025 0.000138768
0.0275 0 0.00994629 0.000215671
-0.0275 0 0.00994629 0.000220387
0.01 0 0.0275 0.000121321
-0.01 0 0.0275 0.000120574
-0.02875 1.807e-20 0.00608215 0.000235786
0.02875 9.03502e-21 0.00608215 0.000232992
0.00625 1.807e-20 0.02875 0.000112026
-0.00625 -3.61401e-20 0.02875 0.000111385
-0.02625 1.807e-20 0.0137433 0.000205211
0.02625 -1.807e-20 0.0137433 0.000200373
0.01375 -1.807e-20 0.02625 0.00013041
-0.01375 0 0.02625 0.000129783
0.03 0 0 0.000193663
-0.03 -1.0842e-19 0 0.000191822
-1.024e-14 0 0.03 0.000102305
-0.02875 1.807e-20 0.008656 0.000225301
0.02875 -1.807e-20 0.008656 0.000220824
-0.02125 -1.807e-20 0.02125 0.000164442
0.02125 5.42101e-20 0.02125 0.000162907
-0.00875 1.807e-20 0.02875 0.000111251
0.00875 0 0.02875 0.00011215
0.03 0 0.00233887 0.000220887
-0.03 -1.0842e-19 0.00233887 0.000220178
0.02 0 0.0225 0.000155256
0.0225 0 0.02 0.000169984
0.0025 0 0.03 0.000102459
-0.0025 0 0.03 0.000102149
-0.02 0 0.0225 0.000156123
-0.0225 0 0.02 0.000172201
0.0275 0 0.0124878 0.000205444
-0.0275 0 0.0124878 0.000210547
0.0125 0 0.0275 0.000121408
-0.0125 0 0.0275 0.000120474
0.02375 0 0.01875 0.000176841
-0.01875 -1.807e-20 0.02375 0.000147655
-0.02375 -3.61401e-20 0.01875 0.000179777
0.01875 -3.61401e-20 0.02375 0.000147393
0.03 0 0.00479858 0.000240675
-0.03 -1.0842e-19 0.00479858 0.000242372
0.005 0 0.03 0.000102612
-0.005 0 0.03 0.000101991
0.0175 0 0.025 0.000139018
0.025 0 0.0175 0.000183119
-0.0175 0 0.025 0.000138741
-0.025 0 0.0175 0.000186722
0.02875 -1.807e-20 0.011217 0.000210474
-0.02875 0 0.011217 0.000215754
0.02625 0 0.0162494 0.000189194
-0.02625 -1.807e-20 0.0162494 0.000193466
0.01125 -1.807e-20 0.02875 0.000112271
0.01625 -1.807e-20 0.02625 0.000130459
-0.01125 0 0.02875 0.000111117
-0.01625 -1.807e-20 0.02625 0.000129717
0.030881 5.42101e-20 0 0.000193703
-0.030881 0 0 0.000191806
0.03 0 0.00736572 0.000226664
-0.03 0 0.00736572 0.000230516
0.0075 0 0.03 0.000102763
-0.0075 0 0.03 0.000101832
-0.03125 3.61401e-20 0.00116943 0.000195464
0.03125 -9.03502e-21 0.00116943 0.000197231
0.00125 0 0.03125 9.29913e-05
-0.00125 0 0.03125 9.28121e-05
0.0275 0 0.0149988 0.000194756
-0.0275 0 0.0149988 0.000199565
0.015 0 0.0275 0.000121493
-0.015 0 0.0275 0.000120372
-0.03125 0 0.00356873 0.000244433
0.03125 2.71051e-20 0.00356872 0.000243956
0.00375 -1.807e-20 0.03125 9.31691e-05
-0.00375 -3.61401e-20 0.03125 9.26314e-05
0.03 0 0.00994629 0.00021549
-0.03 0 0.00994629 0.000220642
-0.031619 0 0 0.000191793
0.031619 1.0842e-19 0 0.000193735
0.01 0 0.03 0.000102913
-0.01 0 0.03 0.000101672
0.0225 0 0.0225 0.000155199
-0.0225 0 0.0225 0.000156174
-0.03125 0 0.00608215 0.00023594
0.03125 0 0.00608215 0.000232896
-0.02875 1.807e-20 0.0137433 0.000205473
0.02875 0 0.0137433 0.000200171
0.00625 -1.807e-20 0.03125 9.33455e-05
-0.00625 0 0.03125 9.24493e-05
0.02125 -1.807e-20 0.02375 0.00014737
0.01375 0 0.02875 0.000112392
-0.01375 -1.807e-20 0.02875 0.00011098
0.02375 -1.807e-20 0.02125 0.000162818
-0.02375 -3.61401e-20 0.02125 0.000164531
-0.02125 0 0.02375 0.000147666
0.025 0 0.02 0.000169866
0.02 0 0.025 0.00013903
-0.02 0 0.025 0.000138712
-0.025 0 0.02 0.000172329
-0.01875 0 0.02625 0.000129651
-0.02625 -1.807e-20 0.01875 0.000179941
0.02625 0 0.01875 0.000176697
0.01875 3.61401e-20 0.02625 0.000130506
0.03125 -1.807e-20 0.008656 0.000220663
-0.03125 -1.807e-20 0.008656 0.000225537
-0.00875 0 0.03125 9.22658e-05
0.00875 3.61401e-20 0.03125 9.35205e-05
0.03 0 0.0124878 0.000205244
-0.03 0 0.0124878 0.000210816
0.0125 0 0.03 0.000103061
-0.0125 0 0.03 0.00010151
0.0325 -1.0842e-19 0 0.000193775
-0.0325 -1.0842e-19 0 0.000191778
-1.02401e-14 0 0.0325 8.36763e-05
0.0325 0 0.00233886 0.000220942
-0.0325 1.0842e-19 0.00233887 0.000220175
0.0275 0 0.0175 0.000182954
0.0175 0 0.0275 0.000121577
-0.0175 0 0.0275 0.000120268
-0.0275 0 0.0175 0.000186918
0.0025 0 0.0325 8.38714e-05
-0.0025 0 0.0325 8.34799e-05
0.0325 0 0.00479858 0.000240626
-0.0325 -1.0842e-19 0.00479858 0.00024247
0.005 0 0.0325 8.40651e-05
-0.005 0 0.0325 8.32822e-05
-0.02875 0 0.0162494 0.000193691
0.02875 -1.807e-20 0.0162494 0.00018901
-0.01625 -1.807e-20 0.02875 0.000110842
0.01625 -1.807e-20 0.02875 0.000112511
0.03125 -1.807e-20 0.011217 0.00021028
-0.03125 -1.807e-20 0.011217 0.000216024
0.01125 3.61401e-20 0.03125 9.3694e-05
-0.01125 3.61401e-20 0.03125 9.20808e-05
0.0325 0 0.00736572 0.000226534
-0.0325 0 0.00736572 0.000230716
0.0075 0 0.0325 8.42575e-05
-0.0075 0 0.0325 8.30832e-05
0.033381 0 0 0.000193816
-0.033381 0 0 0.000191764
0.03 0 0.0149988 0.000194563
-0.03 0 0.0149988 0.000199812
0.015 0 0.03 0.000103208
-0.015 0 0.03 0.000101346
-0.02375 -1.807e-20 0.02375 0.000147675
0.02375 -1.807e-20 0.02375 0.000147346
0.025 0 0.0225 0.000155142
0.0225 0 0.025 0.000139041
-0.0225 0 0.025 0.000138682
-0.025 0 0.0225 0.000156223
-0.03375 3.61401e-20 0.00116943 0.000195427
0.03375 1.807e-20 0.00116943 0.000197338
0.00125 0 0.03375 7.46416e-05
0.02625 0 0.02125 0.000162729
-0.02125 -1.807e-20 0.02625 0.000129582
-0.02625 -1.807e-20 0.02125 0.000164622
0.02125 0 0.02625 0.000130553
-0.00125 -1.807e-20 0.03375 7.44313e-05
0.03375 0 0.00356872 0.000243957
-0.03375 0 0.00356873 0.000244476
0.00375 -1.807e-20 0.03375 7.48508e-05
-0.00375 -1.807e-20 0.03375 7.42197e-05
0.0325 0 0.00994629 0.000215311
-0.0325 0 0.00994629 0.0002209
0.0275 0 0.02 0.000169749
0.02 0 0.0275 0.000121659
-0.02 0 0.0275 0.000120163
-0.0275 0 0.02 0.000172457
0.01 0 0.0325 8.44487e-05
-0.01 0 0.0325 8.28828e-05
-0.034119 0 0 0.000191752
0.034119 0 0 0.000193849
0.03125 -1.807e-20 0.0137433 0.000199971
-0.03125 0 0.0137433 0.000205738
-0.01375 0 0.03125 9.18942e-05
0.01375 -1.807e-20 0.03125 9.38661e-05
-0.03375 -1.807e-20 0.00608215 0.000236097
0.03375 0 0.00608215 0.000232801
0.01875 0 0.02875 0.000112628
-0.01875 0 0.02875 0.000110702
-0.02875 -1.807e-20 0.01875 0.000180106
0.02875 0 0.01875 0.000176553
0.00625 -1.807e-20 0.03375 7.50587e-05
-0.00625 -1.807e-20 0.03375 7.4007e-05
0.03 0 0.0175 0.00018279
0.0175 0 0.03 0.000103353
-0.0175 0 0.03 0.00010118
-0.03 0 0.0175 0.000187115
0.0325 0 0.0124878 0.000205046
-0.0325 0 0.0124878 0.000211088
0.0125 0 0.0325 8.46386e-05
-0.0125 0 0.0325 8.2681e-05
-0.03375 0 0.008656 0.000225777
0.03375 0 0.008656 0.000220503
0.00875 3.61401e-20 0.03375 7.52655e-05
-0.00875 3.61401e-20 0.03375 7.3793e-05
0.035 0 0 0.000193889
-0.035 -1.0842e-19 0 0.000191737
-1.02402e-14 0 0.035 6.57169e-05
0.035 0 0.00233887 0.000220999
-0.035 -1.0842e-19 0.00233887 0.000220176
0.0025 0 0.035 6.59384e-05
-0.0025 0 0.035 6.54944e-05
0.03125 0 0.0162494 0.00018883
-0.03125 -1.807e-20 0.0162494 0.000193919
-0.01625 -1.807e-20 0.03125 9.17061e-05
0.01625 -1.807e-20 0.03125 9.4037e-05
0.035 0 0.00479858 0.000240578
-0.035 -1.0842e-19 0.00479858 0.000242571
0.025 0 0.025 0.000139052
0.005 0 0.035 6.61588e-05
-0.005 0 0.035 6.52708e-05
-0.025 0 0.025 0.000138651
0.02625 0 0.02375 0.000147322
0.02375 3.61401e-20 0.02625 0.000130599
-0.02375 -1.807e-20 0.02625 0.000129511
-0.02625 3.61401e-20 0.02375 0.000147684
0.0275 0 0.0225 0.000155085
0.0225 0 0.0275 0.00012174
-0.0225 0 0.0275 0.000120056
-0.0275 0 0.0225 0.000156272
0.03375 -1.807e-20 0.011217 0.000210087
-0.03375 1.807e-20 0.011217 0.0002163
0.01125 3.61401e-20 0.03375 7.54711e-05
-0.01125 3.61401e-20 0.03375 7.35778e-05
0.02875 0 0.02125 0.000162639
0.02125 0 0.02875 0.000112743
-0.02125 -1.807e-20 0.02875 0.00011056
-0.02875 5.42101e-20 0.02125 0.000164711
0.035 0 0.00736572 0.000226406
-0.035 0 0.00736572 0.000230919
0.0325 0 0.0149988 0.000194373
-0.0325 0 0.0149988 0.000200061
0.015 0 0.0325 8.48271e-05
-0.015 0 0.0325 8.24779e-05
0.0075 0 0.035 6.63782e-05
-0.0075 0 0.035 6.50463e-05
0.035881 5.42101e-20 0 0.00019393
-0.035881 0 0 0.000191723
0.03 0 0.02 0.000169632
0.02 0 0.03 0.000103497
-0.02 0 0.03 0.000101013
-0.03 0 0.02 0.000172585
-0.03625 -1.807e-20 0.00116943 0.000195393
0.03625 -2.71051e-20 0.00116943 0.000197445
0.00125 1.807e-20 0.03625 5.71397e-05
-0.00125 -3.61401e-20 0.03625 5.69081e-05
0.035 0 0.00994629 0.000215135
-0.035 0 0.00994629 0.000221163
0.01 0 0.035 6.65966e-05
-0.01 0 0.035 6.48206e-05
0.03625 2.71051e-20 0.00356872 0.000243958
-0.03625 0 0.00356873 0.000244522
-0.03375 -1.807e-20 0.0137433 0.000206007
0.03375 0 0.0137433 0.000199774
0.00375 0 0.03625 5.73706e-05
-0.01375 -1.807e-20 0.03375 7.33613e-05
0.01875 1.807e-20 0.03125 9.42064e-05
-0.01875 3.61401e-20 0.03125 9.15165e-05
0.03125 0 0.01875 0.000176411
-0.03125 0 0.01875 0.000180272
0.01375 3.61401e-20 0.03375 7.56756e-05
-0.00375 0 0.03625 5.66756e-05
-0.036619 0 0 0.000191712
0.036619 0 0 0.000193965
-0.03625 3.61401e-20 0.00608215 0.000236258
0.03625 9.03502e-21 0.00608215 0.000232709
0.00625 -1.807e-20 0.03625 5.76005e-05
-0.00625 3.61401e-20 0.03625 5.64423e-05
0.0325 0 0.0175 0.000182628
0.0175 0 0.0325 8.50145e-05
-0.0175 0 0.0325 8.22734e-05
-0.0325 0 0.0175 0.000187314
0.02625 0 0.02625 0.000130644
-0.02625 -1.807e-20 0.02625 0.000129439
0.035 0 0.0124878 0.000204851
-0.035 0 0.0124878 0.000211364
0.0275 0 0.025 0.000139062
0.025 0 0.0275 0.00012182
0.0125 0 0.035 6.6814e-05
-0.0125 0 0.035 6.4594e-05
-0.025 0 0.0275 0.000119947
-0.0275 0 0.025 0.000138618
0.03625 -1.807e-20 0.008656 0.000220347
-0.03625 -3.61401e-20 0.008656 0.000226022
-0.00875 0 0.03625 5.62082e-05
-0.02375 0 0.02875 0.000110416
0.02875 -1.807e-20 0.02375 0.000147297
0.02375 0 0.02875 0.000112856
-0.02875 1.807e-20 0.02375 0.000147692
0.00875 -3.61401e-20 0.03625 5.78297e-05
0.03375 -1.807e-20 0.0162494 0.000188651
-0.03375 -1.807e-20 0.0162494 0.000194148
0.01625 0 0.03375 7.58788e-05
-0.01625 0 0.03375 7.31438e-05
0.0375 0 0 0.000194008
-0.0375 -1.0842e-19 0 0.000191698
0.03 0 0.0225 0.000155028
0.0225 0 0.03 0.000103639
-1.024e-14 0 0.0375 4.87431e-05
-0.0225 0 0.03 0.000100845
-0.03 0 0.0225 0.000156321
0.0375 0 0.00233887 0.00022106
-0.0375 -1.0842e-19 0.00233887 0.000220178
0.0025 0 0.0375 4.8976e-05
-0.0025 0 0.0375 4.85099e-05
-0.02125 1.807e-20 0.03125 9.13255e-05
0.03125 -1.807e-20 0.02125 0.000162551
-0.03125 0 0.02125 0.0001648
0.02125 0 0.03125 9.43746e-05
0.0375 1.0842e-19 0.00479858 0.000240531
-0.0375 -1.0842e-19 0.00479858 0.000242676
0.005 0 0.0375 4.92083e-05
-0.005 0 0.0375 4.82762e-05
-0.03625 -3.61401e-20 0.011217 0.000216579
0.03625 0 0.011217 0.000209898
-0.01125 -1.807e-20 0.03625 5.59733e-05
0.01125 -1.807e-20 0.03625 5.8058e-05
0.035 0 0.0149988 0.000194184
-0.035 0 0.0149988 0.000200314
0.015 0 0.035 6.70303e-05
-0.015 0 0.035 6.43664e-05
0.0325 0 0.02 0.000169516
0.02 0 0.0325 8.52008e-05
-0.02 0 0.0325 8.20675e-05
-0.0325 0 0.02 0.000172713
0.0375 0 0.00736572 0.000226279
-0.0375 0 0.00736572 0.000231127
0.0075 0 0.0375 4.94402e-05
-0.0075 0 0.0375 4.80421e-05
0.038381 5.42101e-20 0 0.000194053
-0.038381 -5.42101e-20 0 0.000191686
0.03375 -1.807e-20 0.01875 0.000176269
-0.01875 -1.807e-20 0.03375 7.29248e-05
-0.03375 0 0.01875 0.000180439
0.01875 -3.61401e-20 0.03375 7.6081e-05
0.03875 9.03502e-21 0.00116943 0.000197561
-0.03875 -9.03502e-21 0.00116943 0.000195361
0.03625 5.42101e-20 0.0137433 0.000199578
-0.03625 -1.807e-20 0.0137433 0.000206279
0.01375 1.807e-20 0.03625 5.82854e-05
-0.01375 -1.807e-20 0.03625 5.57376e-05
0.00125 0 0.0387501 4.07881e-05
-0.00125 -1.807e-20 0.0387501 4.05575e-05
0.0375 0 0.00994629 0.00021496
-0.0375 0 0.00994629 0.00022143
0.01 0 0.0375 4.96716e-05
-0.01 0 0.0375 4.78076e-05
0.0275 0 0.0275 0.000121897
-0.0275 0 0.0275 0.000119836
0.03875 3.61401e-20 0.00356872 0.000243962
-0.03875 0 0.00356873 0.000244569
0.02625 3.61401e-20 0.02875 0.000112968
-0.02625 -1.807e-20 0.02875 0.000110271
0.02875 -1.807e-20 0.02625 0.000130687
-0.02875 0 0.02625 0.000129365
0.00375 1.807e-20 0.0387501 4.10187e-05
-0.00375 -1.807e-20 0.0387501 4.03269e-05
0.03 0 0.025 0.00013907
0.025 0 0.03 0.00010378
-0.025 0 0.03 0.000100674
-0.03 0 0.025 0.000138584
-0.039119 0 0 0.000191675
0.039119 -5.42101e-20 0 0.000194089
0.035 0 0.0175 0.000182468
0.0175 0 0.035 6.72456e-05
-0.0175 0 0.035 6.41377e-05
-0.035 0 0.0175 0.000187514
0.03875 9.03502e-21 0.00608215 0.000232614
-0.03875 -1.807e-20 0.00608215 0.000236422
-0.03125 -1.807e-20 0.02375 0.000147698
0.02375 0 0.03125 9.45413e-05
0.03125 -1.807e-20 0.02375 0.000147272
-0.02375 -1.807e-20 0.03125 9.11328e-05
0.00625 0 0.0387501 4.12493e-05
-0.00625 0 0.0387501 4.00962e-05
0.0375 0 0.0124878 0.000204658
-0.0375 0 0.0124878 0.000211644
0.0325 0 0.0225 0.000154971
0.0125 0 0.0375 4.99025e-05
0.0225 0 0.0325 8.5386e-05
-0.0125 0 0.0375 4.75727e-05
-0.0225 0 0.0325 8.18602e-05
-0.0325 0 0.0225 0.000156368
0.03875 -9.03502e-21 0.008656 0.00022019
-0.03875 -1.807e-20 0.00865601 0.00022627
0.03625 0 0.0162494 0.000188473
-0.03625 -3.61401e-20 0.0162494 0.00019438
0.01625 -1.807e-20 0.03625 5.8512e-05
-0.01625 -1.807e-20 0.03625 5.55012e-05
0.00875 0 0.0387501 4.14798e-05