# kMean  POINT_DATA 34187
# x  y  z  kMean
1.60275e-08 -1.0842e-19 0 0.0001922
-0.000880992 1.0842e-19 0 0.000192176
0.00088102 5.42101e-20 0 0.000192214
-0.00161899 0 0 0.000192155
0.00161901 -5.42101e-20 0 0.000192236
-0.00124999 2.71051e-20 0.00116943 0.000195552
0.00125001 -1.807e-20 0.00116943 0.000195605
6.3044e-09 1.0842e-19 0.00233887 0.0002184
-0.0025 -1.0842e-19 0 0.000192128
0.00250002 -1.0842e-19 0 0.000192275
-0.003381 0 0 0.000192096
0.00338102 0 0 0.000192299
-0.0025 -1.0842e-19 0.00233887 0.000218376
0.00250001 1.0842e-19 0.00233887 0.000218423
-0.00125 0 0.00356872 0.000240477
0.00125 1.807e-20 0.00356872 0.000240437
-0.00375 1.807e-20 0.00116943 0.000195477
0.00375001 9.03502e-21 0.00116944 0.000195683
0.004119 -5.42101e-20 0 0.000192319
-0.004119 -5.42101e-20 0 0.000192073
2.41733e-09 -1.0842e-19 0.00479858 0.000236262
0.005 -1.0842e-19 0 0.000192345
-0.00500001 1.0842e-19 0 0.000192051
-0.00375 -9.03502e-21 0.00356873 0.000240477
0.00375 1.807e-20 0.00356873 0.000240423
0.0025 -1.0842e-19 0.00479858 0.000236188
-0.0025 0 0.00479858 0.000236331
0.005 1.0842e-19 0.00233887 0.000218452
-0.005 0 0.00233887 0.000218343
0.005881 -5.42101e-20 0 0.000192356
-0.00588101 5.42101e-20 0 0.000192017
-0.00125 0 0.00608215 0.000227721
0.00125 0 0.00608215 0.000227593
0.00625 0 0.00116944 0.000195736
-0.00625 -1.807e-20 0.00116944 0.000195404
0.00661899 5.42101e-20 0 0.000192379
-0.006619 -5.42101e-20 0 0.000191995
0.005 -1.0842e-19 0.00479858 0.000236125
-0.005 0 0.00479858 0.000236393
-0.00375 0 0.00608215 0.00022782
0.00375 -1.807e-20 0.00608215 0.000227483
-0.00625 9.03502e-21 0.00356873 0.000240503
0.00625 0 0.00356873 0.000240405
7.8719e-10 0 0.00736572 0.000220663
0.00749999 -1.0842e-19 0 0.000192427
-0.0075 1.0842e-19 0 0.000191977
0.0025 0 0.00736572 0.000220503
-0.0025 0 0.00736572 0.000220819
0.0075 0 0.00233887 0.000218488
-0.0075 -1.0842e-19 0.00233887 0.000218314
0.00838099 -5.42101e-20 0 0.000192467
-0.008381 5.42101e-20 0 0.00019194
-0.00625 -3.61401e-20 0.00608215 0.000227944
0.00625 1.807e-20 0.00608215 0.000227368
-0.00125 3.61401e-20 0.008656 0.000214211
0.00125 3.61401e-20 0.00865601 0.000214009
-0.00874999 -9.03502e-21 0.00116944 0.000195334
0.00875 0 0.00116943 0.000195843
0.005 0 0.00736572 0.00022035
-0.005 0 0.00736572 0.000220976
0.0075 0 0.00479858 0.000236064
-0.0075 0 0.00479858 0.000236462
-0.00911899 -5.42101e-20 0 0.000191921
0.00911899 -5.42101e-20 0 0.000192493
0.00375 -1.807e-20 0.008656 0.000213813
-0.00375 -1.807e-20 0.008656 0.000214399
-0.00875 2.71051e-20 0.00356873 0.000240517
0.00875 1.807e-20 0.00356873 0.000240395
1.93058e-10 0 0.00994629 0.000208544
-0.00999999 0 0 0.000191911
0.00999999 -1.0842e-19 0 0.000192519
0.0025 0 0.00994629 0.000208318
-0.0025 0 0.00994629 0.000208764
-0.00999999 0 0.00233887 0.000218291
0.01 0 0.00233887 0.00021853
0.0075 0 0.00736572 0.000220199
-0.0075 0 0.00736572 0.000221141
-0.00875 -1.807e-20 0.00608215 0.000228062
0.00875 -3.61401e-20 0.00608215 0.000227263
-0.00625 0 0.008656 0.000214608
0.00625 1.807e-20 0.008656 0.000213624
0.010881 1.0842e-19 0 0.000192546
-0.010881 -5.42101e-20 0 0.00019189
0.01 0 0.00479858 0.000236006
-0.01 0 0.00479858 0.000236533
0.005 0 0.00994629 0.0002081
-0.005 0 0.00994629 0.00020899
-0.00125 -3.61401e-20 0.011217 0.000203325
0.00125 -3.61401e-20 0.011217 0.000203074
-0.01125 2.71051e-20 0.00116944 0.00019529
0.01125 -3.61401e-20 0.00116943 0.000195914
-0.011619 5.42101e-20 0 0.00019187
0.011619 0 0 0.000192568
-0.01125 -1.807e-20 0.00356872 0.000240543
0.01125 1.807e-20 0.00356873 0.000240387
-0.00375 1.807e-20 0.011217 0.000203557
0.00375 0 0.011217 0.000202833
0.00875 -1.807e-20 0.008656 0.000213435
-0.00875 -1.807e-20 0.008656 0.000214807
0.01 0 0.00736572 0.000220049
-0.01 0 0.00736572 0.000221305
0.0075 0 0.00994629 0.000207884
-0.0075 0 0.00994629 0.000209223
3.05206e-11 0 0.0124878 0.000197984
0.0125 -1.0842e-19 0 0.000192595
-0.0125 1.0842e-19 0 0.000191843
0.0125 0 0.00233887 0.000218563
-0.0125 1.0842e-19 0.00233887 0.000218268
0.0025 0 0.0124878 0.00019773
-0.0025 0 0.0124878 0.000198231
-0.01125 -9.03502e-21 0.00608215 0.000228185
0.01125 0 0.00608215 0.000227153
-0.00625 -3.61401e-20 0.011217 0.000203817
0.00625 -1.807e-20 0.011217 0.000202593
0.013381 -5.42101e-20 0 0.000192626
-0.013381 0 0 0.000191808
0.0125 0 0.00479858 0.000235946
-0.0125 -1.0842e-19 0.00479858 0.000236608
0.005 0 0.0124878 0.000197483
-0.005 0 0.0124878 0.000198482
0.01375 9.03502e-21 0.00116943 0.00019599
-0.01375 9.03502e-21 0.00116944 0.000195213
-0.00125 5.42101e-20 0.0137433 0.000192882
0.00125 0 0.0137433 0.000192619
0.01 0 0.00994629 0.000207669
-0.01 0 0.00994629 0.000209457
-0.014119 -1.0842e-19 0 0.00019179
0.014119 -5.42101e-20 0 0.000192653
0.01125 -1.807e-20 0.008656 0.00021325
-0.01125 -1.807e-20 0.00865601 0.000215019
-0.01375 0 0.00356873 0.000240562
0.01375 9.03502e-21 0.00356873 0.000240371
-0.00875 0 0.011217 0.000204068
0.00875 -1.807e-20 0.011217 0.000202357
0.00375 -1.807e-20 0.0137433 0.000192371
-0.00375 0 0.0137433 0.000193117
0.0125 0 0.00736572 0.000219902
-0.0125 0 0.00736572 0.000221477
0.0075 0 0.0124878 0.000197238
-0.0075 0 0.0124878 0.000198743
2.26617e-12 0 0.0149988 0.000187172
0.015 -1.0842e-19 0 0.000192687
-0.015 0 0 0.000191782
0.01375 -1.807e-20 0.00608215 0.000227052
-0.01375 3.61401e-20 0.00608215 0.00022832
0.00625 -1.807e-20 0.0137433 0.000192121
-0.00625 0 0.0137433 0.000193381
0.015 -1.0842e-19 0.00233887 0.000218604
-0.015 1.0842e-19 0.00233887 0.000218246
0.0025 0 0.0149988 0.000186927
-0.0025 0 0.0149988 0.00018741
0.015 0 0.00479858 0.000235888
-0.015 -1.0842e-19 0.00479858 0.000236683
0.005 0 0.0149988 0.00018669
-0.005 0 0.0149988 0.00018765
0.015881 -1.0842e-19 0 0.00019273
-0.015881 1.0842e-19 0 0.000191763
0.01125 0 0.011217 0.00020212
-0.01125 0 0.011217 0.000204336
0.0125 0 0.00994629 0.000207459
-0.0125 0 0.00994629 0.000209696
0.01 0 0.0124878 0.000196995
-0.01 0 0.0124878 0.000199005
-0.01375 -1.807e-20 0.008656 0.000215228
0.01375 -3.61401e-20 0.008656 0.000213066
0.01625 -1.807e-20 0.00116943 0.000196088
-0.01625 9.03502e-21 0.00116943 0.000195175
-0.00875 -1.807e-20 0.0137433 0.000193635
0.00875 0 0.0137433 0.000191877
-0.00125 1.807e-20 0.0162494 0.000181568
0.00125 -3.61401e-20 0.0162494 0.000181334
-0.016619 0 0 0.000191748
0.016619 -1.0842e-19 0 0.000192759
-0.01625 0 0.00356873 0.000240586
0.01625 -1.807e-20 0.00356872 0.000240365
0.00375 -1.807e-20 0.0162494 0.000181112
-0.00375 -1.807e-20 0.0162494 0.000181781
0.015 0 0.00736572 0.000219757
-0.015 0 0.00736572 0.000221652
0.0075 0 0.0149988 0.000186453
-0.0075 0 0.0149988 0.000187897
0.01625 -1.807e-20 0.00608215 0.000226945
-0.01625 -2.71051e-20 0.00608215 0.000228444
-0.00625 0 0.0162494 0.000182018
0.00625 0 0.0162494 0.000180885
0.0175 -1.0842e-19 0 0.000192784
-0.0175 -1.0842e-19 0 0.00019173
-1.02402e-14 0 0.0175 0.000175227
0.0175 -1.0842e-19 0.00233887 0.000218648
-0.0175 0 0.00233887 0.000218232
0.0125 0 0.0124878 0.000196757
-0.0125 0 0.0124878 0.000199271
0.0025 0 0.0175 0.00017502
-0.0025 0 0.0175 0.000175428
-0.01375 -1.807e-20 0.011217 0.000204591
0.01375 -1.807e-20 0.011217 0.000201894
0.01125 0 0.0137433 0.000191632
-0.01125 -1.807e-20 0.0137433 0.000193906
0.015 0 0.00994629 0.000207251
-0.015 0 0.00994629 0.000209937
0.01 0 0.0149988 0.000186218
-0.01 0 0.0149988 0.000188147
0.0175 0 0.00479858 0.000235832
-0.0175 0 0.00479858 0.000236761
0.005 0 0.0175 0.000174818
-0.005 0 0.0175 0.000175629
-0.018381 -1.0842e-19 0 0.000191711
0.018381 -5.42101e-20 0 0.000192824
0.01625 -1.807e-20 0.008656 0.000212884
-0.01625 -1.807e-20 0.008656 0.000215452
-0.00875 0 0.0162494 0.000182244
0.00875 1.807e-20 0.0162494 0.000180663
0.01875 0 0.00116943 0.000196175
-0.01875 -9.03502e-21 0.00116943 0.000195127
0.00125 -1.807e-20 0.01875 0.000168722
-0.00125 -1.807e-20 0.01875 0.000168909
0.0175 0 0.00736572 0.000219614
-0.0175 0 0.00736572 0.000221831
0.0075 0 0.0175 0.000174616
-0.0075 0 0.0175 0.000175837
0.01875 0 0.00356872 0.000240358
-0.01875 1.807e-20 0.00356873 0.000240613
0.019119 1.0842e-19 0 0.00019285
-0.019119 5.42101e-20 0 0.000191692
0.00375 -1.807e-20 0.01875 0.000168548
-0.00375 -1.807e-20 0.01875 0.000169072
0.01375 0 0.0137433 0.000191392
-0.01375 0 0.0137433 0.000194166
0.015 0 0.0124878 0.000196521
-0.015 0 0.0124878 0.000199537
0.0125 0 0.0149988 0.000185987
-0.0125 0 0.0149988 0.000188401
0.01875 -9.03502e-21 0.00608215 0.000226846
-0.01875 -1.807e-20 0.00608215 0.000228581
0.01625 -1.807e-20 0.011217 0.000201667
-0.01625 -1.807e-20 0.011217 0.000204855
0.01125 1.807e-20 0.0162494 0.000180441
-0.01125 -1.807e-20 0.0162494 0.000182486
0.00625 1.807e-20 0.01875 0.000168366
-0.00625 1.807e-20 0.01875 0.00016926
0.02 0 0 0.000192874
-0.02 -1.0842e-19 0 0.000191665
-1.024e-14 0 0.02 0.000161857
0.0175 0 0.00994629 0.000207045
-0.0175 0 0.00994629 0.000210185
0.02 1.0842e-19 0.00233887 0.00021869
-0.02 0 0.00233887 0.000218212
0.0025 0 0.02 0.000161705
0.01 0 0.0175 0.000174415
-0.0025 0 0.02 0.000162002
-0.01 0 0.0175 0.000176046
0.02 -1.0842e-19 0.00479858 0.000235779
-0.02 0 0.00479858 0.000236841
0.005 0 0.02 0.000161557
-0.005 0 0.02 0.000162146
0.01875 0 0.008656 0.000212709
-0.01875 -1.807e-20 0.008656 0.000215672
0.00875 0 0.01875 0.00016819
-0.00875 0 0.01875 0.000169437
-0.020881 5.42101e-20 0 0.000191636
0.020881 5.42101e-20 0 0.000192911
0.015 0 0.0149988 0.00018576
-0.015 0 0.0149988 0.000188656
-0.02125 -9.03502e-21 0.00116943 0.000195058
0.02125 0 0.00116944 0.000196256
-0.01625 -1.807e-20 0.0137433 0.00019444
0.01625 -1.807e-20 0.0137433 0.000191155
-0.01375 0 0.0162494 0.000182721
0.01375 0 0.0162494 0.000180228
0.00125 -1.807e-20 0.02125 0.000154647
-0.00125 -1.807e-20 0.02125 0.000154775
0.02 0 0.00736572 0.000219473
-0.02 0 0.00736572 0.000222013
0.0075 0 0.02 0.000161408
-0.0075 0 0.02 0.000162296
0.0175 0 0.0124878 0.000196288
-0.0175 0 0.0124878 0.000199809
0.0125 0 0.0175 0.000174217
-0.0125 0 0.0175 0.000176258
-0.02125 0 0.00356873 0.000240641
0.02125 -9.03502e-21 0.00356873 0.00024035
0.00375 -3.61401e-20 0.02125 0.00015453
-0.00375 -1.807e-20 0.02125 0.000154874
0.021619 0 0 0.000192939
-0.021619 5.42101e-20 0 0.000191619
-0.01875 -1.807e-20 0.011217 0.000205126
0.01875 0 0.011217 0.000201438
0.01125 -1.807e-20 0.01875 0.000168008
-0.01125 -1.807e-20 0.01875 0.000169626
-0.02125 -2.71051e-20 0.00608215 0.000228715
0.02125 1.807e-20 0.00608215 0.000226744
-0.00625 1.807e-20 0.02125 0.000154997
0.00625 -1.807e-20 0.02125 0.000154413
0.02 0 0.00994629 0.000206841
-0.02 0 0.00994629 0.000210437
0.01 0 0.02 0.00016126
-0.01 0 0.02 0.000162445
0.0225 0 0 0.000192968
-0.0225 -1.0842e-19 0 0.000191607
-1.02399e-14 0 0.0225 0.000147055
0.0225 -1.0842e-19 0.00233887 0.000218734
-0.0225 1.0842e-19 0.00233887 0.000218196
0.0025 0 0.0225 0.000146968
-0.0025 0 0.0225 0.000147132
-0.02125 -1.807e-20 0.008656 0.000215904
0.02125 -1.807e-20 0.008656 0.000212525
0.01625 -1.807e-20 0.0162494 0.000180012
-0.01625 0 0.0162494 0.000182968
0.00875 -1.807e-20 0.02125 0.000154296
-0.00875 -3.61401e-20 0.02125 0.000155106
0.0225 -1.0842e-19 0.00479858 0.000235725
-0.0225 -1.0842e-19 0.00479858 0.000236925
0.0175 0 0.0149988 0.000185533
-0.0175 0 0.0149988 0.000188915
0.005 0 0.0225 0.000146887
-0.005 0 0.0225 0.000147206
0.015 0 0.0175 0.000174023
-0.015 0 0.0175 0.000176472
0.01875 0 0.0137433 0.000190921
-0.01875 -1.807e-20 0.0137433 0.00019471
0.01375 5.42101e-20 0.01875 0.000167839
-0.01375 -3.61401e-20 0.01875 0.000169803
-0.023381 -5.42101e-20 0 0.000191591
0.023381 0 0 0.000193007
0.02 0 0.0124878 0.000196056
-0.02 0 0.0124878 0.000200085
0.0125 0 0.02 0.000161114
-0.0125 0 0.02 0.000162596
0.0225 0 0.00736572 0.000219336
-0.0225 0 0.00736572 0.000222199
0.0075 0 0.0225 0.000146804
-0.0075 0 0.0225 0.000147286
-0.02375 0 0.00116943 0.00019502
0.02375 0 0.00116944 0.000196347
0.00125 1.807e-20 0.02375 0.000139205
-0.00125 -1.807e-20 0.02375 0.000139259
0.02375 -3.61401e-20 0.00356873 0.000240346
-0.02375 1.807e-20 0.00356873 0.00024067
0.02125 -1.807e-20 0.011217 0.000201214
-0.02125 -1.807e-20 0.011217 0.000205403
-0.01125 -1.807e-20 0.02125 0.000155227
0.01125 -1.807e-20 0.02125 0.000154181
0.00375 -1.807e-20 0.02375 0.000139159
-0.00375 0 0.02375 0.000139287
0.024119 -5.42101e-20 0 0.00019304
-0.024119 5.42101e-20 0 0.000191577
0.02375 -1.807e-20 0.00608215 0.000226648
-0.02375 -1.807e-20 0.00608215 0.000228861
-0.00625 -1.807e-20 0.02375 0.000139335
0.00625 -1.807e-20 0.02375 0.000139113
0.0225 0 0.00994629 0.000206641
-0.0225 0 0.00994629 0.000210692
0.01 0 0.0225 0.000146722
-0.01 0 0.0225 0.000147365
0.0175 0 0.0175 0.000173829
-0.0175 0 0.0175 0.000176689
0.01875 -1.807e-20 0.0162494 0.000179799
-0.01875 -1.807e-20 0.0162494 0.000183209
0.01625 -1.807e-20 0.01875 0.000167664
-0.01625 -3.61401e-20 0.01875 0.000169996
0.02 0 0.0149988 0.00018531
-0.02 0 0.0149988 0.000189177
-0.025 -1.0842e-19 0 0.000191561
0.015 0 0.02 0.00016097
-0.015 0 0.02 0.000162747
0.025 0 0 0.000193077
-1.024e-14 0 0.025 0.000130978
0.025 0 0.00233887 0.000218787
-0.025 1.0842e-19 0.00233887 0.00021819
0.0025 0 0.025 0.000130965
-0.0025 0 0.025 0.000130982
0.02375 -1.807e-20 0.008656 0.00021236
-0.02375 -1.807e-20 0.008656 0.00021613
0.02125 -1.807e-20 0.0137433 0.00019069
-0.02125 -1.807e-20 0.0137433 0.00019499
0.01375 -1.807e-20 0.02125 0.000154067
0.00875 0 0.02375 0.000139064
-0.00875 0 0.02375 0.000139373
-0.01375 -3.61401e-20 0.02125 0.00015534
0.025 -1.0842e-19 0.00479858 0.000235675
-0.025 -1.0842e-19 0.00479858 0.000237013
0.005 0 0.025 0.000130955
-0.005 0 0.025 0.000130982
0.0225 0 0.0124878 0.000195828
-0.0225 0 0.0124878 0.000200366
0.0125 0 0.0225 0.000146641
-0.0125 0 0.0225 0.000147445
-0.025881 0 0 0.000191547
0.025881 -1.0842e-19 0 0.000193129
0.025 0 0.00736572 0.000219202
-0.025 0 0.00736572 0.000222387
0.0075 0 0.025 0.000130945
-0.0075 0 0.025 0.000130987
-0.02375 1.807e-20 0.011217 0.000205676
0.02375 -1.807e-20 0.011217 0.000200992
-0.02625 -9.03502e-21 0.00116943 0.000194981
0.02625 -9.03502e-21 0.00116944 0.000196462
0.00125 -3.61401e-20 0.02625 0.000122603
0.01125 0 0.02375 0.000139017
-0.01125 3.61401e-20 0.02375 0.000139419
-0.00125 0 0.02625 0.000122583
-0.02625 -1.807e-20 0.00356873 0.000240712
0.02625 -3.61401e-20 0.00356873 0.000240346
-0.01875 -1.807e-20 0.01875 0.000170182
0.01875 0 0.01875 0.000167493
0.00375 5.42101e-20 0.02625 0.000122629
-0.00375 -1.807e-20 0.02625 0.000122539
0.02 0 0.0175 0.000173636
0.0175 0 0.02 0.000160825
-0.0175 0 0.02 0.000162901
-0.02 0 0.0175 0.000176908
0.026619 1.0842e-19 0 0.00019316
-0.026619 -5.42101e-20 0 0.000191532
0.02125 -1.807e-20 0.0162494 0.000179589
-0.02125 0 0.0162494 0.000183457
0.01625 -1.807e-20 0.02125 0.000153951
-0.01625 -1.807e-20 0.02125 0.00015546
0.025 0 0.00994629 0.000206445
-0.025 0 0.00994629 0.000210949
0.01 0 0.025 0.000130933
-0.01 0 0.025 0.000130991
0.02625 1.807e-20 0.00608215 0.000226553
-0.02625 -1.807e-20 0.00608215 0.000228998
-0.00625 0 0.02625 0.000122509
0.00625 -1.807e-20 0.02625 0.000122656
0.0225 0 0.0149988 0.000185089
-0.0225 0 0.0149988 0.000189442
0.015 0 0.0225 0.000146559
-0.015 0 0.0225 0.000147523
0.02375 -1.807e-20 0.0137433 0.000190456
-0.02375 -1.807e-20 0.0137433 0.000195269
-0.01375 0 0.02375 0.000139454
0.01375 0 0.02375 0.000138969
-1.02401e-14 0 0.0275 0.000113885
0.0275 0 0 0.000193182
-0.0275 -1.0842e-19 0 0.000191511
0.0275 -1.0842e-19 0.00233887 0.000218841
-0.0275 -1.0842e-19 0.00233887 0.000218182
0.0025 0 0.0275 0.000113944
-0.0025 0 0.0275 0.000113817
0.02625 -1.807e-20 0.008656 0.000212188
-0.02625 -1.807e-20 0.008656 0.000216362
0.00875 0 0.02625 0.000122679
-0.00875 -3.61401e-20 0.02625 0.000122471
0.0275 -1.0842e-19 0.00479858 0.000235628
-0.0275 -1.0842e-19 0.00479858 0.000237102
0.025 0 0.0124878 0.000195601
-0.025 0 0.0124878 0.00020065
0.005 0 0.0275 0.000114007
-0.005 0 0.0275 0.000113743
0.0125 0 0.025 0.000130921
-0.0125 0 0.025 0.000130995
0.02 0 0.02 0.000160681
-0.02 0 0.02 0.000163056
0.01875 0 0.02125 0.000153834
-0.01875 0 0.02125 0.000155575
0.02125 0 0.01875 0.000167322
-0.02125 -1.807e-20 0.01875 0.000170377
-0.028381 -5.42101e-20 0 0.000191494
0.028381 -5.42101e-20 0 0.000193223
0.0275 0 0.00736572 0.00021907
-0.0275 0 0.00736572 0.000222578
0.0075 0 0.0275 0.000114068
-0.0075 0 0.0275 0.000113673
0.0175 0 0.0225 0.000146476
0.0225 0 0.0175 0.000173446
-0.0175 0 0.0225 0.000147604
-0.0225 0 0.0175 0.000177128
0.02625 0 0.011217 0.000200774
-0.02625 -1.807e-20 0.011217 0.000205958
-0.01125 0 0.02625 0.00012244
0.01125 5.42101e-20 0.02625 0.000122705
-0.02875 -2.71051e-20 0.00116943 0.000194934
0.02875 -1.807e-20 0.00116943 0.000196548
0.02375 0 0.0162494 0.000179382
-0.02375 0 0.0162494 0.000183702
0.00125 0 0.02875 0.000105145
0.01625 -1.807e-20 0.02375 0.000138921
-0.01625 -1.807e-20 0.02375 0.000139502
-0.00125 -1.807e-20 0.02875 0.000105054
-0.02875 -1.807e-20 0.00356873 0.000240741
0.02875 9.03502e-21 0.00356872 0.000240348
0.00375 -3.61401e-20 0.02875 0.000105242
-0.00375 -1.807e-20 0.02875 0.00010494
0.029119 5.42101e-20 0 0.000193252
-0.029119 0 0 0.000191482
0.025 0 0.0149988 0.000184868
-0.025 0 0.0149988 0.00018971
0.015 0 0.025 0.000130908
-0.015 0 0.025 0.000130998
0.0275 0 0.00994629 0.000206253
-0.0275 0 0.00994629 0.000211212
0.01 0 0.0275 0.000114128
-0.01 0 0.0275 0.000113603
-0.02875 1.807e-20 0.00608215 0.000229145
0.02875 9.03502e-21 0.00608215 0.000226458
0.00625 1.807e-20 0.02875 0.000105338
-0.00625 -3.61401e-20 0.02875 0.000104837
-0.02625 1.807e-20 0.0137433 0.00019556
0.02625 -1.807e-20 0.0137433 0.00019023
0.01375 -1.807e-20 0.02625 0.000122728
-0.01375 0 0.02625 0.000122403
0.03 0 0 0.000193278
-0.03 -1.0842e-19 0 0.000191467
-1.024e-14 0 0.03 9.61904e-05
-0.02875 1.807e-20 0.008656 0.000216597
0.02875 -1.807e-20 0.008656 0.000212027
-0.02125 -1.807e-20 0.02125 0.000155695
0.02125 5.42101e-20 0.02125 0.000153718
-0.00875 1.807e-20 0.02875 0.00010473
0.00875 0 0.02875 0.000105434
0.03 0 0.00233887 0.00021889
-0.03 -1.0842e-19 0.00233887 0.000218176
0.02 0 0.0225 0.000146392
0.0225 0 0.02 0.000160539
0.0025 0 0.03 9.63119e-05
-0.0025 0 0.03 9.60609e-05
-0.02 0 0.0225 0.000147683
-0.0225 0 0.02 0.000163211
0.0275 0 0.0124878 0.000195379
-0.0275 0 0.0124878 0.000200939
0.0125 0 0.0275 0.000114186
-0.0125 0 0.0275 0.000113533
0.02375 0 0.01875 0.000167156
-0.01875 -1.807e-20 0.02375 0.00013954
-0.02375 -3.61401e-20 0.01875 0.000170565
0.01875 -3.61401e-20 0.02375 0.000138871
0.03 0 0.00479858 0.000235582
-0.03 -1.0842e-19 0.00479858 0.000237192
0.005 0 0.03 9.64366e-05
-0.005 0 0.03 9.59255e-05
0.0175 0 0.025 0.000130893
0.025 0 0.0175 0.000173256
-0.0175 0 0.025 0.000131
-0.025 0 0.0175 0.000177349
0.02875 -1.807e-20 0.011217 0.000200561
-0.02875 0 0.011217 0.000206244
0.02625 0 0.0162494 0.000179172
-0.02625 -1.807e-20 0.0162494 0.000183953
0.01125 -1.807e-20 0.02875 0.000105526
0.01625 -1.807e-20 0.02625 0.000122747
-0.01125 0 0.02875 0.000104627
-0.01625 -1.807e-20 0.02625 0.000122369
0.030881 5.42101e-20 0 0.000193318
-0.030881 0 0 0.000191461
0.03 0 0.00736572 0.000218941
-0.03 0 0.00736572 0.000222775
0.0075 0 0.03 9.65588e-05
-0.0075 0 0.03 9.57941e-05
-0.03125 3.61401e-20 0.00116943 0.000194906
0.03125 -9.03502e-21 0.00116943 0.000196638
0.00125 0 0.03125 8.73637e-05
-0.00125 0 0.03125 8.72191e-05
0.0275 0 0.0149988 0.000184651
-0.0275 0 0.0149988 0.000189981
0.015 0 0.0275 0.000114242
-0.015 0 0.0275 0.00011346
-0.03125 0 0.00356873 0.000240783
0.03125 2.71051e-20 0.00356872 0.000240348
0.00375 -1.807e-20 0.03125 8.75142e-05
-0.00375 -3.61401e-20 0.03125 8.7056e-05
0.03 0 0.00994629 0.000206063
-0.03 0 0.00994629 0.000211481
-0.031619 0 0 0.000191446
0.031619 1.0842e-19 0 0.000193351
0.01 0 0.03 9.66789e-05
-0.01 0 0.03 9.56621e-05
0.0225 0 0.0225 0.00014631
-0.0225 0 0.0225 0.000147762
-0.03125 0 0.00608215 0.000229293
0.03125 0 0.00608215 0.000226369
-0.02875 1.807e-20 0.0137433 0.000195845
0.02875 0 0.0137433 0.00019001
0.00625 -1.807e-20 0.03125 8.76614e-05
-0.00625 0 0.03125 8.69024e-05
0.02125 -1.807e-20 0.02375 0.00013882
0.01375 0 0.02875 0.000105616
-0.01375 -1.807e-20 0.02875 0.000104519
0.02375 -1.807e-20 0.02125 0.000153607
-0.02375 -3.61401e-20 0.02125 0.000155812
-0.02125 0 0.02375 0.000139585
0.025 0 0.02 0.000160398
0.02 0 0.025 0.000130876
-0.02 0 0.025 0.000131001
-0.025 0 0.02 0.000163367
-0.01875 0 0.02625 0.00012233
-0.02625 -1.807e-20 0.01875 0.00017076
0.02625 0 0.01875 0.000166984
0.01875 3.61401e-20 0.02625 0.000122765
0.03125 -1.807e-20 0.008656 0.000211863
-0.03125 -1.807e-20 0.008656 0.000216847
-0.00875 0 0.03125 8.67452e-05
0.00875 3.61401e-20 0.03125 8.78058e-05
0.03 0 0.0124878 0.000195158
-0.03 0 0.0124878 0.000201231
0.0125 0 0.03 9.67977e-05
-0.0125 0 0.03 9.55298e-05
0.0325 -1.0842e-19 0 0.000193389
-0.0325 -1.0842e-19 0 0.000191417
-1.02401e-14 0 0.0325 7.85827e-05
0.0325 0 0.00233886 0.000218946
-0.0325 1.0842e-19 0.00233887 0.00021817
0.0275 0 0.0175 0.000173068
0.0175 0 0.0275 0.000114297
-0.0175 0 0.0275 0.000113386
-0.0275 0 0.0175 0.000177572
0.0025 0 0.0325 7.87468e-05
-0.0025 0 0.0325 7.84124e-05
0.0325 0 0.00479858 0.000235536
-0.0325 -1.0842e-19 0.00479858 0.000237287
0.005 0 0.0325 7.89131e-05
-0.005 0 0.0325 7.82361e-05
-0.02875 0 0.0162494 0.000184201
0.02875 -1.807e-20 0.0162494 0.000178969
-0.01625 -1.807e-20 0.02875 0.000104412
0.01625 -1.807e-20 0.02875 0.000105705
0.03125 -1.807e-20 0.011217 0.000200347
-0.03125 -1.807e-20 0.011217 0.000206539
0.01125 3.61401e-20 0.03125 8.79499e-05
-0.01125 3.61401e-20 0.03125 8.65907e-05
0.0325 0 0.00736572 0.000218814
-0.0325 0 0.00736572 0.000222978
0.0075 0 0.0325 7.90766e-05
-0.0075 0 0.0325 7.80642e-05
0.033381 0 0 0.000193436
-0.033381 0 0 0.000191395
0.03 0 0.0149988 0.000184433
-0.03 0 0.0149988 0.000190253
0.015 0 0.03 9.69154e-05
-0.015 0 0.03 9.53955e-05
-0.02375 -1.807e-20 0.02375 0.000139617
0.02375 -1.807e-20 0.02375 0.000138771
0.025 0 0.0225 0.000146228
0.0225 0 0.025 0.00013086
-0.0225 0 0.025 0.000131001
-0.025 0 0.0225 0.00014784
-0.03375 3.61401e-20 0.00116943 0.000194845
0.03375 1.807e-20 0.00116943 0.00019675
0.00125 0 0.03375 7.00501e-05
0.02625 0 0.02125 0.000153494
-0.02125 -1.807e-20 0.02625 0.000122292
-0.02625 -1.807e-20 0.02125 0.000155934
0.02125 0 0.02625 0.000122782
-0.00125 -1.807e-20 0.03375 6.98727e-05
0.03375 0 0.00356872 0.000240347
-0.03375 0 0.00356873 0.000240824
0.00375 -1.807e-20 0.03375 7.02333e-05
-0.00375 -1.807e-20 0.03375 6.96793e-05
0.0325 0 0.00994629 0.000205877
-0.0325 0 0.00994629 0.000211757
0.0275 0 0.02 0.000160256
0.02 0 0.0275 0.00011435
-0.02 0 0.0275 0.00011331
-0.0275 0 0.02 0.000163524
0.01 0 0.0325 7.9239e-05
-0.01 0 0.0325 7.78919e-05
-0.034119 0 0 0.000191381
0.034119 0 0 0.000193469
0.03125 -1.807e-20 0.0137433 0.000189781
-0.03125 0 0.0137433 0.000196139
-0.01375 0 0.03125 8.64309e-05
0.01375 -1.807e-20 0.03125 8.80931e-05
-0.03375 -1.807e-20 0.00608215 0.000229446
0.03375 0 0.00608215 0.000226277
0.01875 0 0.02875 0.000105794
-0.01875 0 0.02875 0.0001043
-0.02875 -1.807e-20 0.01875 0.000170952
0.02875 0 0.01875 0.000166819
0.00625 -1.807e-20 0.03375 7.04113e-05
-0.00625 -1.807e-20 0.03375 6.94914e-05
0.03 0 0.0175 0.00017288
0.0175 0 0.03 9.7032e-05
-0.0175 0 0.03 9.52596e-05
-0.03 0 0.0175 0.000177795
0.0325 0 0.0124878 0.000194942
-0.0325 0 0.0124878 0.000201527
0.0125 0 0.0325 7.94003e-05
-0.0125 0 0.0325 7.77183e-05
-0.03375 0 0.008656 0.000217096
0.03375 0 0.008656 0.000211703
0.00875 3.61401e-20 0.03375 7.05913e-05
-0.00875 3.61401e-20 0.03375 6.93053e-05
0.035 0 0 0.000193504
-0.035 -1.0842e-19 0 0.000191373
-1.02402e-14 0 0.035 6.16598e-05
0.035 0 0.00233887 0.000219004
-0.035 -1.0842e-19 0.00233887 0.000218168
0.0025 0 0.035 6.18524e-05
-0.0025 0 0.035 6.14632e-05
0.03125 0 0.0162494 0.000178758
-0.03125 -1.807e-20 0.0162494 0.000184457
-0.01625 -1.807e-20 0.03125 8.62737e-05
0.01625 -1.807e-20 0.03125 8.82363e-05
0.035 0 0.00479858 0.000235492
-0.035 -1.0842e-19 0.00479858 0.000237385
0.025 0 0.025 0.000130844
0.005 0 0.035 6.20471e-05
-0.005 0 0.035 6.12608e-05
-0.025 0 0.025 0.000130998
0.02625 0 0.02375 0.00013872
0.02375 3.61401e-20 0.02625 0.000122801
-0.02375 -1.807e-20 0.02625 0.00012225
-0.02625 3.61401e-20 0.02375 0.000139658
0.0275 0 0.0225 0.000146147
0.0225 0 0.0275 0.000114403
-0.0225 0 0.0275 0.000113233
-0.0275 0 0.0225 0.000147918
0.03375 -1.807e-20 0.011217 0.000200148
-0.03375 1.807e-20 0.011217 0.000206835
0.01125 3.61401e-20 0.03375 7.07681e-05
-0.01125 3.61401e-20 0.03375 6.91176e-05
0.02875 0 0.02125 0.000153383
0.02125 0 0.02875 0.00010588
-0.02125 -1.807e-20 0.02875 0.000104188
-0.02875 5.42101e-20 0.02125 0.000156051
0.035 0 0.00736572 0.000218689
-0.035 0 0.00736572 0.000223182
0.0325 0 0.0149988 0.00018422
-0.0325 0 0.0149988 0.00019053
0.015 0 0.0325 7.95605e-05
-0.015 0 0.0325 7.75435e-05
0.0075 0 0.035 6.22398e-05
-0.0075 0 0.035 6.10623e-05
0.035881 5.42101e-20 0 0.000193544
-0.035881 0 0 0.000191368
0.03 0 0.02 0.000160114
0.02 0 0.03 9.71467e-05
-0.02 0 0.03 9.51221e-05
-0.03 0 0.02 0.00016368
-0.03625 -1.807e-20 0.00116943 0.000194827
0.03625 -2.71051e-20 0.00116943 0.000196851
0.00125 1.807e-20 0.03625 5.35845e-05
-0.00125 -3.61401e-20 0.03625 5.33851e-05
0.035 0 0.00994629 0.000205694
-0.035 0 0.00994629 0.000212033
0.01 0 0.035 6.24314e-05
-0.01 0 0.035 6.08635e-05
0.03625 2.71051e-20 0.00356872 0.000240351
-0.03625 0 0.00356873 0.000240869
-0.03375 -1.807e-20 0.0137433 0.000196431
0.03375 0 0.0137433 0.00018957
0.00375 0 0.03625 5.37928e-05
-0.01375 -1.807e-20 0.03375 6.89284e-05
0.01875 1.807e-20 0.03125 8.83759e-05
-0.01875 3.61401e-20 0.03125 8.6113e-05
0.03125 0 0.01875 0.000166647
-0.03125 0 0.01875 0.000171146
0.01375 3.61401e-20 0.03375 7.09449e-05
-0.00375 0 0.03625 5.31712e-05
-0.036619 0 0 0.000191359
0.036619 0 0 0.000193579
-0.03625 3.61401e-20 0.00608215 0.0002296
0.03625 9.03502e-21 0.00608215 0.000226192
0.00625 -1.807e-20 0.03625 5.39963e-05
-0.00625 3.61401e-20 0.03625 5.29622e-05
0.0325 0 0.0175 0.000172695
0.0175 0 0.0325 7.97196e-05
-0.0175 0 0.0325 7.73679e-05
-0.0325 0 0.0175 0.000178022
0.02625 0 0.02625 0.000122818
-0.02625 -1.807e-20 0.02625 0.000122209
0.035 0 0.0124878 0.00019473
-0.035 0 0.0124878 0.000201822
0.0275 0 0.025 0.000130829
0.025 0 0.0275 0.000114454
0.0125 0 0.035 6.26217e-05
-0.0125 0 0.035 6.06634e-05
-0.025 0 0.0275 0.000113154
-0.0275 0 0.025 0.000130996
0.03625 -1.807e-20 0.008656 0.000211542
-0.03625 -3.61401e-20 0.008656 0.000217349
-0.00875 0 0.03625 5.27549e-05
-0.02375 0 0.02875 0.000104074
0.02875 -1.807e-20 0.02375 0.000138674
0.02375 0 0.02875 0.000105967
-0.02875 1.807e-20 0.02375 0.000139693
0.00875 -3.61401e-20 0.03625 5.42019e-05
0.03375 -1.807e-20 0.0162494 0.000178564
-0.03375 -1.807e-20 0.0162494 0.000184715
0.01625 0 0.03375 7.11193e-05
-0.01625 0 0.03375 6.87391e-05
0.0375 0 0 0.000193622
-0.0375 -1.0842e-19 0 0.000191343
0.03 0 0.0225 0.000146064
0.0225 0 0.03 9.72599e-05
-1.024e-14 0 0.0375 4.5718e-05
-0.0225 0 0.03 9.49834e-05
-0.03 0 0.0225 0.000147995
0.0375 0 0.00233887 0.000219069
-0.0375 -1.0842e-19 0.00233887 0.000218174
0.0025 0 0.0375 4.59243e-05
-0.0025 0 0.0375 4.55091e-05
-0.02125 1.807e-20 0.03125 8.59526e-05
0.03125 -1.807e-20 0.02125 0.000153267
-0.03125 0 0.02125 0.000156168
0.02125 0 0.03125 8.85161e-05
0.0375 1.0842e-19 0.00479858 0.000235452
-0.0375 -1.0842e-19 0.00479858 0.000237484
0.005 0 0.0375 4.6133e-05
-0.005 0 0.0375 4.52959e-05
-0.03625 -3.61401e-20 0.011217 0.000207129
0.03625 0 0.011217 0.000199943
-0.01125 -1.807e-20 0.03625 5.25454e-05
0.01125 -1.807e-20 0.03625 5.44008e-05
0.035 0 0.0149988 0.00018401
-0.035 0 0.0149988 0.000190807
0.015 0 0.035 6.2811e-05
-0.015 0 0.035 6.04624e-05
0.0325 0 0.02 0.000159975
0.02 0 0.0325 7.98779e-05
-0.02 0 0.0325 7.71909e-05
-0.0325 0 0.02 0.000163837
0.0375 0 0.00736572 0.000218568
-0.0375 0 0.00736572 0.000223389
0.0075 0 0.0375 4.63409e-05
-0.0075 0 0.0375 4.50859e-05
0.038381 5.42101e-20 0 0.000193679
-0.038381 -5.42101e-20 0 0.00019133
0.03375 -1.807e-20 0.01875 0.000166491
-0.01875 -1.807e-20 0.03375 6.85481e-05
-0.03375 0 0.01875 0.000171341
0.01875 -3.61401e-20 0.03375 7.12943e-05
0.03875 9.03502e-21 0.00116943 0.000196978
-0.03875 -9.03502e-21 0.00116943 0.000194794
0.03625 5.42101e-20 0.0137433 0.000189348
-0.03625 -1.807e-20 0.0137433 0.000196722
0.01375 1.807e-20 0.03625 5.46045e-05
-0.01375 -1.807e-20 0.03625 5.2335e-05
0.00125 0 0.0387501 3.82576e-05
-0.00125 -1.807e-20 0.0387501 3.80545e-05
0.0375 0 0.00994629 0.000205519
-0.0375 0 0.00994629 0.000212312
0.01 0 0.0375 4.65476e-05
-0.01 0 0.0375 4.48757e-05
0.0275 0 0.0275 0.000114506
-0.0275 0 0.0275 0.000113074
0.03875 3.61401e-20 0.00356872 0.000240366
-0.03875 0 0.00356873 0.000240916
0.02625 3.61401e-20 0.02875 0.000106049
-0.02625 -1.807e-20 0.02875 0.00010396
0.02875 -1.807e-20 0.02625 0.000122839
-0.02875 0 0.02625 0.000122166
0.00375 1.807e-20 0.0387501 3.8465e-05
-0.00375 -1.807e-20 0.0387501 3.78418e-05
0.03 0 0.025 0.000130811
0.025 0 0.03 9.73719e-05
-0.025 0 0.03 9.4843e-05
-0.03 0 0.025 0.000130991
-0.039119 0 0 0.000191321
0.039119 -5.42101e-20 0 0.00019371
0.035 0 0.0175 0.000172513
0.0175 0 0.035 6.29991e-05
-0.0175 0 0.035 6.02608e-05
-0.035 0 0.0175 0.000178251
0.03875 9.03502e-21 0.00608215 0.0002261
-0.03875 -1.807e-20 0.00608215 0.000229758
-0.03125 -1.807e-20 0.02375 0.000139728
0.02375 0 0.03125 8.86517e-05
0.03125 -1.807e-20 0.02375 0.00013862
-0.02375 -1.807e-20 0.03125 8.57882e-05
0.00625 0 0.0387501 3.86733e-05
-0.00625 0 0.0387501 3.7633e-05
0.0375 0 0.0124878 0.000194525
-0.0375 0 0.0124878 0.000202121
0.0325 0 0.0225 0.000145983
0.0125 0 0.0375 4.67538e-05
0.0225 0 0.0325 8.00349e-05
-0.0125 0 0.0375 4.46648e-05
-0.0225 0 0.0325 7.70124e-05
-0.0325 0 0.0225 0.000148072
0.03875 -9.03502e-21 0.008656 0.000211399
-0.03875 -1.807e-20 0.00865601 0.000217604
0.03625 0 0.0162494 0.00017836
-0.03625 -3.61401e-20 0.0162494 0.000184976
0.01625 -1.807e-20 0.03625 5.48043e-05
-0.01625 -1.807e-20 0.03625 5.21249e-05
0.00875 0 0.0387501 3.88811e-05
-0.00875 -1.807e-20 0.0387501 3.7425e-05