# kMean  POINT_DATA 35046
# x  y  z  kMean
0 -0.000880995 1.47237e-08 0.000192235
0 0.000368999 0.00116943 0.000192178
0 0.00161903 1.54918e-08 0.000192136
1.0842e-19 -0.00213101 0.00116943 0.000192292
1.27264e-19 -0.000881009 0.00233888 0.000218431
0 0.00161901 0.00233888 0.000218343
1.0842e-19 0.002869 0.00116943 0.000192093
0 -0.00338099 1.44485e-08 0.000192326
1.0842e-19 0.000368999 0.00356872 0.000245018
8.27181e-25 -0.00338099 0.00233888 0.000218509
0 0.00411903 1.63242e-08 0.000192028
1.0842e-19 -0.002131 0.00356872 0.000245073
1.0842e-19 0.002869 0.00356872 0.000244923
0 0.00411901 0.00233888 0.000218254
-1.0842e-19 -0.004631 0.00116943 0.000192359
4.1359e-25 -0.000881003 0.00479858 0.000236283
-4.1359e-25 0.001619 0.00479858 0.000236223
-1.0842e-19 0.005369 0.00116944 0.000191962
0 -0.004631 0.00356872 0.000245149
4.1359e-25 -0.003381 0.00479858 0.000236341
0 -0.00588099 1.42849e-08 0.000192388
1.0842e-19 0.000369 0.00608215 0.00022737
0 0.004119 0.00479858 0.000236165
4.09124e-21 -0.005881 0.00233887 0.000218577
-1.0842e-19 -0.002131 0.00608215 0.000227418
-1.0842e-19 0.005369 0.00356873 0.000244876
0 0.00661901 1.60129e-08 0.000191922
0 0.002869 0.00608215 0.000227328
0 0.00661901 0.00233888 0.000218173
0 -0.007131 0.00116944 0.000192416
0 -0.000881001 0.00736572 0.000220677
0 0.001619 0.00736572 0.000220638
-1.44385e-19 -0.005881 0.00479858 0.000236406
-1.0842e-19 -0.004631 0.00608215 0.000227472
2.1684e-19 0.00786899 0.00116944 0.000191881
-1.0842e-19 -0.007131 0.00356872 0.000245222
-1.03398e-25 -0.003381 0.00736572 0.000220722
-1.0842e-19 0.005369 0.00608215 0.00022728
0 0.006619 0.00479858 0.000236108
0 -0.00838099 4.50472e-10 0.000192462
1.03398e-25 0.004119 0.00736572 0.0002206
-2.1684e-19 0.007869 0.00356873 0.000244811
-1.0842e-19 0.000369 0.008656 0.000213934
5.65031e-20 -0.008381 0.00233887 0.000218653
0 -0.002131 0.008656 0.000213964
0 0.009119 1.29064e-08 0.000191812
-1.0842e-19 0.002869 0.008656 0.000213896
1.0842e-19 -0.007131 0.00608215 0.000227527
0 0.009119 0.00233887 0.000218082
-5.22573e-20 -0.005881 0.00736572 0.000220767
0 -0.008381 0.00479858 0.000236469
-2.1684e-19 -0.009631 0.00116943 0.000192508
0 -0.004631 0.008656 0.00021401
0 0.006619 0.00736572 0.000220553
0 0.007869 0.00608215 0.000227212
0 -0.000881 0.00994629 0.000208554
2.58494e-26 0.001619 0.00994629 0.000208525
0 0.005369 0.00865601 0.000213871
0 -0.009631 0.00356872 0.000245304
0 0.009119 0.00479858 0.000236045
2.1684e-19 0.010369 0.00116943 0.000191743
-2.58494e-26 -0.003381 0.00994629 0.00020858
-2.58494e-26 0.004119 0.00994629 0.000208499
0 -0.010881 1.32897e-08 0.000192551
0 0.010369 0.00356872 0.000244732
0 -0.010881 0.00233886 0.000218731
0 -0.008381 0.00736572 0.000220808
-1.0842e-19 -0.007131 0.00865601 0.000214035
0 0.000369 0.011217 0.000203174
-1.0842e-19 -0.009631 0.00608215 0.000227572
1.0842e-19 -0.002131 0.011217 0.0002032
0 -0.005881 0.00994629 0.000208606
-1.0842e-19 0.002869 0.011217 0.000203153
0 0.011619 7.15996e-09 0.000191701
-1.0842e-19 0.007869 0.008656 0.000213825
0 0.009119 0.00736572 0.000220508
5.74117e-20 0.011619 0.00233887 0.000217986
-2.06795e-25 -0.010881 0.00479858 0.000236526
-2.58494e-26 0.006619 0.00994629 0.000208468
1.0842e-19 0.010369 0.00608215 0.000227174
0 -0.004631 0.011217 0.000203205
0 -0.012131 0.00116943 0.000192594
0 0.012022 0.00233887 0.000217972
1.0842e-19 0.005369 0.011217 0.000203135
0 -0.000881 0.0124878 0.000197988
8.27181e-25 0.0125545 0 0.000191665
4.03897e-28 0.011619 0.00479858 0.000235982
-3.23117e-27 0.001619 0.0124878 0.000197976
-2.42338e-27 0.011619 0.00491649 0.000235269
2.1684e-19 -0.012131 0.00356872 0.000245357
0 0.012869 0.00116944 0.00019166
-4.32176e-20 -0.003381 0.0124878 0.000197999
-2.1684e-19 -0.009631 0.00865601 0.000214074
-7.46466e-20 -0.008381 0.00994629 0.000208634
-1.03398e-25 -0.010881 0.00736572 0.000220848
3.23117e-27 0.004119 0.0124878 0.000197963
0 -0.007131 0.011217 0.000203231
-1.0842e-19 0.012869 0.00356873 0.000244653
1.65436e-24 -0.013381 1.29863e-08 0.000192614
2.58494e-26 0.0112589 0.00736572 0.000220474
-4.67728e-20 0.009119 0.00994629 0.000208438
1.0842e-19 0.010369 0.008656 0.000213798
0 -0.012131 0.00608215 0.000227616
0 -0.013381 0.00233886 0.00021879
-2.1684e-19 0.007869 0.011217 0.000203097
1.0842e-19 0.000369 0.0137433 0.00019281
1.29247e-26 0.011619 0.00736572 0.000220468
3.16399e-20 -0.005881 0.0124878 0.000198014
1.0842e-19 -0.002131 0.0137433 0.000192811
0 0.002869 0.0137433 0.00019281
0 0.014119 1.19736e-08 0.000191604
0 0.006619 0.0124878 0.000197942
2.06795e-25 -0.013381 0.00479858 0.000236579
-1.0842e-19 0.012869 0.00608215 0.000227117
-9.36683e-20 0.014119 0.00233887 0.000217897
1.0842e-19 -0.004631 0.0137433 0.000192822
-1.0842e-19 -0.014631 0.00116943 0.000192633
0 -0.010881 0.00994629 0.000208665
1.0842e-19 0.005369 0.0137433 0.000192797
0 -0.009631 0.011217 0.000203254
-3.23117e-27 0.010999 0.00994629 0.00020842
0 -0.012131 0.00865601 0.000214106
2.15433e-20 0.014119 0.00479858 0.000235913
4.03897e-28 -0.000881 0.0149988 0.000187174
0 -0.008381 0.0124878 0.000198032
0 -0.014631 0.00356872 0.000245414
4.03897e-28 0.001619 0.0149988 0.000187169
0 -0.013381 0.00736572 0.00022089
0 0.010369 0.011217 0.000203089
0 0.011619 0.00994629 0.000208414
4.03897e-28 -0.003381 0.0149988 0.000187183
0 0.015369 0.00116944 0.000191548
-1.61559e-27 0.009119 0.0124878 0.000197927
0 -0.007131 0.0137433 0.00019284
0 0.012869 0.008656 0.00021376
0 0.004119 0.0149988 0.000187168
0 0.015369 0.00356873 0.000244569
0 0.007869 0.0137433 0.000192784
0 -0.014631 0.00608215 0.000227674
1.65436e-24 -0.015881 1.30339e-08 0.00019267
-1.06735e-20 0.014119 0.00736572 0.000220422
0 -0.015881 0.00233887 0.00021885
4.03897e-28 -0.005881 0.0149988 0.000187194
0 0.000369 0.0162494 0.000181539
0 -0.002131 0.0162494 0.00018155
0 0.006619 0.0149988 0.000187164
2.1684e-19 0.002869 0.0162494 0.000181532
8.07794e-28 0.010809 0.0124878 0.000197921
1.0842e-19 -0.012131 0.011217 0.000203282
0 0.015369 0.00608215 0.000227062
0 -0.010881 0.0124878 0.000198046
0 -0.015881 0.00479858 0.000236636
0 0.016619 1.58212e-08 0.000191496
-2.58494e-26 -0.013381 0.00994629 0.000208694
1.0842e-19 -0.009631 0.0137433 0.000192847
5.21943e-20 0.016619 0.00233888 0.000217807
1.0842e-19 -0.004631 0.0162494 0.000181563
-2.1684e-19 -0.014631 0.00865601 0.000214139
4.37642e-20 0.011619 0.0124878 0.000197919
2.1684e-19 0.012869 0.011217 0.000203065
1.0842e-19 0.005369 0.0162494 0.000181547
-2.1684e-19 -0.017131 0.00116943 0.000192708
-3.3645e-20 -0.008381 0.0149988 0.000187199
0 0.010369 0.0137433 0.00019278
2.63824e-20 0.014119 0.00994629 0.000208387
6.91577e-20 0.016619 0.00479858 0.000235854
0 -0.017131 0.00356872 0.000245482
0 -0.015881 0.00736572 0.00022093
4.89094e-29 -0.000881 0.0174897 0.000175276
0 -0.000881 0.0175 0.000175227
0 0.009119 0.0149988 0.000187165
-1.16751e-28 0.001619 0.0174863 0.000175292
-9.67102e-20 0.001619 0.0175 0.000175227
1.0842e-19 0.015369 0.008656 0.000213724
2.1684e-19 -0.007131 0.0162494 0.000181566
-1.86171e-28 -0.003381 0.0174919 0.000175271
-1.91544e-20 -0.003381 0.0175 0.000175232
0 0.017869 0.00116944 0.000191445
5.20648e-29 0.004119 0.0174843 0.000175312
0 0.004119 0.0175 0.000175237
0 0.007869 0.0162494 0.000181543
2.90125e-20 0.016619 0.00736572 0.000220383
1.0842e-19 -0.017131 0.00608215 0.000227721
1.0842e-19 0.017869 0.00356873 0.00024451
0 -0.013381 0.0124878 0.000198065
2.1684e-19 -0.012131 0.0137433 0.000192845
0 -0.018381 1.33208e-08 0.000192729
5.04871e-29 0.0106331 0.0149988 0.00018717
-1.0842e-19 -0.014631 0.011217 0.000203307
1.15174e-28 -0.005881 0.0174922 0.000175273
0 -0.005881 0.0175 0.000175236
-8.52699e-20 -0.018381 0.00233887 0.000218912
4.03897e-28 -0.010881 0.0149988 0.000187199
5.83757e-29 0.006619 0.0174833 0.000175326
0 0.006619 0.0175 0.000175247
0 -0.015881 0.00994629 0.000208718
1.0842e-19 0.000369 0.01875 0.000168912
-1.0842e-19 0.012869 0.0137433 0.000192783
-3.31687e-21 0.014119 0.0124878 0.000197908
0 -0.002131 0.01875 0.000168909
1.0842e-19 0.017869 0.00608215 0.000227022
1.0842e-19 -0.009631 0.0162494 0.000181559
-1.0842e-19 0.002869 0.01875 0.000168927
-1.18435e-19 0.011619 0.0149988 0.000187173
0 -0.018381 0.00479858 0.000236688
-1.0842e-19 0.015369 0.011217 0.000203055
0 0.019119 3.72709e-09 0.000191386
1.0842e-19 -0.017131 0.008656 0.000214161
-7.25777e-20 0.019119 0.00233888 0.000217711
0 0.010369 0.0162494 0.000181569
-1.0842e-19 -0.004631 0.01875 0.000168908
-1.35484e-19 0.016619 0.00994629 0.000208367
-7.25752e-29 -0.008381 0.017491 0.000175275
-9.67039e-20 -0.008381 0.0175 0.000175232
0 0.005369 0.01875 0.000168943
-1.0842e-19 -0.019631 0.00116943 0.00019275
-8.36193e-29 0.009119 0.0174731 0.000175387
5.37936e-20 0.019119 0.00479858 0.00023579
-1.91541e-20 0.009119 0.0175 0.000175259
0 -0.018381 0.00736572 0.000220964
2.1684e-19 0.017869 0.00865601 0.000213701
2.1684e-19 -0.019631 0.00356872 0.000245545
3.28979e-21 -0.000881 0.02 0.000161854
0 -0.007131 0.01875 0.000168908
-9.67102e-20 0.001619 0.02 0.000161863
0 -0.014631 0.0137433 0.000192871
0 -0.013381 0.0149988 0.000187205
-3.23117e-27 -0.015881 0.0124878 0.000198085
-1.0842e-19 -0.012131 0.0162494 0.000181559
8.08456e-20 -0.003381 0.02 0.000161847
-1.0842e-19 0.007869 0.01875 0.000168956
0 0.020369 0.00116944 0.000191328
-1.91544e-20 0.004119 0.02 0.000161882
1.0842e-19 -0.017131 0.011217 0.000203322
2.80747e-20 0.019119 0.00736572 0.000220346
-1.0842e-19 -0.019631 0.00608215 0.000227751
9.46633e-29 -0.010881 0.0174886 0.00017528
1.06152e-19 0.014119 0.0149988 0.000187173
-1.57772e-30 -0.010881 0.0175 0.000175225
2.1684e-19 0.015369 0.0137433 0.000192768
-1.0842e-19 0.020369 0.00356873 0.000244403
1.0842e-19 0.012869 0.0162494 0.000181576
3.94558e-20 0.016619 0.0124878 0.000197896
-1.91544e-20 -0.005881 0.02 0.00016184
0 -0.020881 1.38173e-08 0.000192774
-2.58494e-26 -0.018381 0.00994629 0.000208738
8.08459e-20 0.011619 0.0175 0.000175277
0 -0.020881 0.00233887 0.000218964
8.08456e-20 0.006619 0.02 0.0001619
0 -0.009631 0.01875 0.000168896
0 0.017869 0.011217 0.000203043
0 0.000369 0.02125 0.000154802
1.0842e-19 0.020369 0.00608215 0.000226972
-1.0842e-19 -0.002131 0.02125 0.000154793
-4.1359e-25 -0.020881 0.00479858 0.000236736
1.0842e-19 0.010369 0.01875 0.000168971
0 0.002869 0.02125 0.000154812
1.0842e-19 -0.019631 0.008656 0.000214198
-7.74775e-20 0.019119 0.00994629 0.000208343
0 0.021619 1.55288e-08 0.000191254
-9.67102e-20 -0.008381 0.02 0.000161831
4.75844e-20 0.021619 0.00233888 0.000217592
0 -0.004631 0.02125 0.000154776
-4.03897e-28 -0.015881 0.0149988 0.000187216
0 -0.014631 0.0162494 0.000181561
1.0842e-19 0.005369 0.02125 0.000154845
-1.0842e-19 -0.017131 0.0137433 0.000192882
-1.91544e-20 0.009119 0.02 0.000161916
7.25752e-29 -0.013381 0.0174867 0.000175286
0 -0.013381 0.0175 0.000175222
0 0.020369 0.008656 0.000213662
1.03398e-25 -0.020881 0.00736572 0.000220998
2.79546e-20 0.021619 0.00479858 0.000235715
-1.0842e-19 -0.022131 0.00116943 0.000192797
0 -0.018381 0.0124878 0.000198092
-1.0842e-19 -0.012131 0.01875 0.000168889
-1.0842e-19 0.015369 0.0162494 0.000181579
7.83112e-20 0.016619 0.0149988 0.000187169
1.0842e-19 -0.007131 0.02125 0.000154767
0 -0.022131 0.00356872 0.000245603
8.0838e-20 0.014119 0.0175 0.00017529
-3.54881e-20 -0.000881 0.0225 0.000147049
1.0842e-19 0.017869 0.0137433 0.000192758
-3.54881e-20 0.001619 0.0225 0.000147066
-1.0842e-19 -0.019631 0.011217 0.000203327
-1.0842e-19 0.007869 0.02125 0.000154854
1.0842e-19 0.012869 0.01875 0.000168992
8.08456e-20 -0.003381 0.0225 0.000147033
-1.91544e-20 -0.010881 0.02 0.000161821
-7.59876e-20 0.019119 0.0124878 0.000197886
-1.94261e-20 0.021619 0.00736572 0.000220306
-9.67102e-20 0.004119 0.0225 0.00014709
0 0.022869 0.00116944 0.00019118
-1.0842e-19 -0.022131 0.00608215 0.000227792
2.58494e-26 -0.020881 0.00994629 0.000208763
1.58401e-19 0.011619 0.02 0.000161942
0 0.022869 0.00356873 0.000244299
-1.0842e-19 0.020369 0.011217 0.000203019
-9.67102e-20 -0.005881 0.0225 0.000147017
0 -0.009631 0.02125 0.000154751
-3.30872e-24 -0.023381 1.45957e-08 0.000192812
8.08456e-20 0.006619 0.0225 0.000147114
-8.27181e-25 -0.023381 0.00233886 0.000219006
0 -0.017131 0.0162494 0.000181566
0 -0.015881 0.0174862 0.000175287
-1.57772e-30 -0.015881 0.0175 0.000175221
0 0.010369 0.02125 0.000154882
-2.1684e-19 0.022869 0.00608215 0.000226934
0 -0.018381 0.0149988 0.000187217
0 0.000369 0.02375 0.000139311
2.1684e-19 -0.022131 0.008656 0.000214227
0 -0.014631 0.01875 0.000168881
-1.131e-19 0.021619 0.00994629 0.000208318
-1.0842e-19 -0.002131 0.02375 0.000139291
-2.06795e-25 -0.023381 0.00479858 0.000236784
-8.27181e-25 0.0239177 0 0.00019114
1.0842e-19 0.002869 0.02375 0.000139337
1.0842e-19 -0.019631 0.0137433 0.00019288
8.08456e-20 -0.008381 0.0225 0.000147002
-1.91544e-20 -0.013381 0.02 0.000161812
0 0.024119 1.35972e-09 0.00019113
2.06795e-25 0.024119 0.000601223 0.000197905
1.58394e-19 0.016619 0.0175 0.0001753
-1.0842e-19 0.017869 0.0162494 0.000181586
0 -0.004631 0.02375 0.00013927
4.30854e-20 0.024119 0.00233887 0.000217484
-1.0842e-19 0.015369 0.01875 0.000169012
1.58401e-19 0.009119 0.0225 0.000147138
-1.11623e-19 0.019119 0.0149988 0.00018717
0 -0.020881 0.0124878 0.000198105
0 0.005369 0.02375 0.000139364
-1.0842e-19 0.022869 0.008656 0.000213631
0 -0.012131 0.02125 0.000154747
-1.91544e-20 0.014119 0.02 0.000161968
0 -0.023381 0.00736572 0.000221038
0 0.020369 0.0137433 0.000192767
-4.99634e-20 0.024119 0.00479858 0.000235641
-1.0842e-19 -0.024631 0.00116943 0.000192827
0 -0.007131 0.02375 0.000139253
1.0842e-19 -0.022131 0.011217 0.000203358
0 0.012869 0.02125 0.000154921
0 -0.024631 0.00356872 0.000245638
-1.01634e-19 0.021619 0.0124878 0.000197883
1.58401e-19 -0.010881 0.0225 0.000146987
-9.67102e-20 -0.000881 0.025 0.000130969
0 0.007869 0.02375 0.000139391
-1.13044e-19 0.001619 0.025 0.000130995
-1.082e-19 0.024119 0.00736572 0.000220264
1.58401e-19 -0.003381 0.025 0.000130946
-4.15987e-20 0.011619 0.0225 0.000147169
6.45119e-20 0.004119 0.025 0.000131024
3.15544e-29 -0.018381 0.0174859 0.000175284
1.0842e-19 -0.024631 0.00608215 0.000227848
-3.54843e-20 -0.018381 0.0175 0.000175216
1.0842e-19 0.025369 0.00116944 0.000191081
1.0842e-19 -0.017131 0.01875 0.000168878
0 -0.023381 0.00994629 0.000208792
0 0.022869 0.011217 0.000203016
0 -0.019631 0.0162494 0.000181556
-9.67102e-20 -0.015881 0.02 0.000161803
-2.1684e-19 0.025369 0.00356872 0.000244221
-1.0842e-19 -0.009631 0.02375 0.000139236
-1.91544e-20 -0.005881 0.025 0.000130927
2.01948e-28 -0.020881 0.0149988 0.000187222
1.0842e-19 -0.014631 0.02125 0.000154732
3.28979e-21 0.006619 0.025 0.000131053
0 -0.025881 1.52608e-08 0.000192873
0 0.017869 0.01875 0.000169023
0 0.010369 0.02375 0.000139422
1.58401e-19 0.019119 0.0175 0.000175307
0 -0.025881 0.00233887 0.000219068
1.58401e-19 0.016619 0.02 0.000161986
1.0842e-19 -0.022131 0.0137433 0.000192899
0 0.020369 0.0162494 0.000181583
1.0842e-19 0.025369 0.00608215 0.000226861
-4.7036e-20 0.024119 0.00994629 0.000208297
1.0842e-19 -0.024631 0.008656 0.00021426
-9.67102e-20 -0.013381 0.0225 0.000146974
-1.0842e-19 0.015369 0.02125 0.000154947
0 0.000369 0.02625 0.000122654
6.84855e-20 0.021619 0.0149988 0.000187181
2.06795e-25 -0.025881 0.00479858 0.000236838
0 -0.002131 0.02625 0.000122621
8.08456e-20 -0.008381 0.025 0.000130905
0 0.002869 0.02625 0.000122677
0 -0.023381 0.0124878 0.000198131
5.84013e-20 0.014119 0.0225 0.000147202
1.58401e-19 0.009119 0.025 0.000131083
-8.27181e-25 0.026619 5.1449e-09 0.000191014
0 -0.004631 0.02625 0.000122603
-1.0842e-19 -0.012131 0.02375 0.000139214
1.0842e-19 0.022869 0.0137433 0.000192773
-1.03398e-25 0.026619 0.00201018 0.000213678
4.85149e-20 0.026619 0.00233887 0.000217384
1.0842e-19 0.005369 0.02625 0.000122716
0 0.025369 0.008656 0.000213606
-1.03398e-25 -0.025881 0.00736572 0.000221078
0 0.012869 0.02375 0.000139449
1.16051e-19 0.026619 0.00479858 0.000235568
-2.1684e-19 -0.024631 0.011217 0.000203383
-1.0842e-19 -0.019631 0.01875 0.000168867
-1.0842e-19 -0.027131 0.00116943 0.000192919
-1.22885e-19 0.024119 0.0124878 0.000197875
3.28979e-21 -0.018381 0.02 0.000161789
0 -0.007131 0.02625 0.000122581
2.68213e-29 -0.020881 0.0174849 0.000175286
1.57772e-30 -0.020881 0.0175 0.000175213
-1.91544e-20 -0.010881 0.025 0.000130881
0 -0.017131 0.02125 0.000154719
-1.0842e-19 -0.027131 0.00356872 0.000245728
0 0.007869 0.02625 0.000122741
-1.0842e-19 -0.022131 0.0162494 0.000181567
-9.67102e-20 -0.000881 0.0275 0.000113874
-9.67102e-20 -0.015881 0.0225 0.000146957
-9.67102e-20 0.001619 0.0275 0.000113904
-4.15987e-20 0.011619 0.025 0.000131119
4.76561e-20 0.026619 0.00736572 0.000220218
-1.91544e-20 0.019119 0.02 0.000162004
-1.0842e-19 0.020369 0.01875 0.000169039
8.08456e-20 -0.003381 0.0275 0.000113847
0 -0.025881 0.00994629 0.000208819
0 0.025369 0.011217 0.00020299
-1.03398e-25 0.0276625 0.00233887 0.000217334
0 0.017869 0.02125 0.00015496
0 -0.023381 0.0149988 0.00018724
0 -0.027131 0.00608215 0.000227885
8.08456e-20 0.004119 0.0275 0.000113937
8.08353e-20 0.021619 0.0175 0.000175328
-1.0842e-19 0.027869 0.00116944 0.000190946
1.0842e-19 -0.014631 0.02375 0.000139202
-1.0842e-19 -0.009631 0.02625 0.000122548
-1.91544e-20 0.016619 0.0225 0.000147231
-1.0842e-19 0.022869 0.0162494 0.000181615
-1.0842e-19 0.027869 0.00356872 0.000244131
-1.91544e-20 -0.005881 0.0275 0.000113824
0 -0.024631 0.0137433 0.000192927
0 0.010369 0.02625 0.000122779
-1.91544e-20 0.006619 0.0275 0.000113971
0 0.015369 0.02375 0.000139491
8.08456e-20 -0.013381 0.025 0.000130862
3.30872e-24 -0.028381 1.56354e-08 0.000192946
3.69431e-20 0.024119 0.0149988 0.00018719
-6.0395e-20 0.026619 0.00994629 0.000208272
-9.03e-20 -0.028381 0.00233888 0.000219139
-2.1684e-19 -0.027131 0.008656 0.000214294
1.0842e-19 0.027869 0.00608215 0.000226808
5.84013e-20 0.014119 0.025 0.000131158
3.23117e-27 -0.025881 0.0124878 0.000198149
8.08456e-20 -0.008381 0.0275 0.000113796
0 0.000369 0.02875 0.000105126
5.32301e-20 -0.028381 0.00479858 0.00023689
-1.0842e-19 -0.002131 0.02875 0.000105097
1.0842e-19 0.025369 0.0137433 0.000192763
0 0.002869 0.02875 0.000105159
8.08456e-20 -0.020881 0.02 0.000161778
0 -0.012131 0.02625 0.000122524
-1.0842e-19 -0.019631 0.02125 0.000154692
3.28979e-21 0.009119 0.0275 0.000114005
0 -0.022131 0.01875 0.000168866
-1.91544e-20 -0.018381 0.0225 0.000146938
-1.65436e-24 0.029119 8.18133e-09 0.000190865
-1.0842e-19 -0.004631 0.02875 0.00010507
0 0.027869 0.008656 0.00021357
-7.41529e-29 -0.023381 0.0174821 0.000175305
-1.91512e-20 -0.023381 0.0175 0.000175219
-2.06795e-25 0.029119 0.00233887 0.000217264
0 0.012869 0.02625 0.000122826
0 0.005369 0.02875 0.000105195
0 -0.017131 0.02375 0.000139174
0 -0.028381 0.00736572 0.000221111
0 -0.027131 0.011217 0.000203395
-3.55229e-20 0.026619 0.0124878 0.000197862
0 0.020369 0.02125 0.000154995
-1.91544e-20 0.021619 0.02 0.000162038
6.13923e-26 0.0290996 0.00479858 0.000235494
0 -0.024631 0.0162494 0.000181583
-1.09497e-20 0.029119 0.00479858 0.000235494
-1.91544e-20 0.019119 0.0225 0.000147262
-8.07794e-28 0.029119 0.00495435 0.000234564
-1.0842e-19 0.022869 0.01875 0.000169075
8.08456e-20 -0.010881 0.0275 0.000113768
8.08456e-20 -0.015881 0.025 0.000130841
0 -0.007131 0.02875 0.000105042
0 -0.029631 0.00116943 0.000192972
0 0.017869 0.02375 0.000139526
1.58393e-19 0.024119 0.0175 0.000175353
0 0.007869 0.02875 0.000105231
0 -0.029631 0.00356872 0.000245775
8.08456e-20 0.011619 0.0275 0.000114045
0 -0.025881 0.0149988 0.000187257
-3.54881e-20 -0.000881 0.03 9.61801e-05
5.84013e-20 0.016619 0.025 0.000131198
0 0.029119 0.00736572 0.000220169
-1.0842e-19 0.027869 0.011217 0.000202976
8.08456e-20 0.001619 0.03 9.62094e-05
1.0842e-19 -0.014631 0.02625 0.000122506
1.29247e-26 -0.028381 0.00994629 0.000208843
-1.0842e-19 0.025369 0.0162494 0.000181623
6.45119e-20 -0.003381 0.03 9.61506e-05
0 -0.029631 0.00608215 0.000227916
8.08456e-20 0.004119 0.03 9.62438e-05
-1.0842e-19 -0.009631 0.02875 0.000105014
0 0.030369 0.00116944 0.000190784
1.0842e-19 -0.027131 0.0137433 0.000192936
0 0.015369 0.02625 0.000122869
3.47103e-20 0.026619 0.0149988 0.000187189
1.0842e-19 0.010369 0.02875 0.00010527
6.45119e-20 -0.005881 0.03 9.61227e-05
0 0.030369 0.00356872 0.000244041
5.84013e-20 -0.013381 0.0275 0.000113744
0 -0.022131 0.02125 0.000154687
1.58401e-19 -0.020881 0.0225 0.000146925
3.28979e-21 0.006619 0.03 9.62801e-05
-1.91544e-20 -0.023381 0.02 0.000161777
0 0.029119 0.00994629 0.000208247
-1.0842e-19 -0.019631 0.02375 0.000139166
0 -0.029631 0.008656 0.000214325
0 -0.030881 1.5949e-08 0.000192978
5.84013e-20 0.014119 0.0275 0.00011409
0 -0.024631 0.01875 0.000168863
0 -0.030881 0.00233888 0.000219182
1.0842e-19 0.030369 0.00608215 0.000226746
0 -0.028381 0.0124878 0.000198164
-1.91544e-20 -0.018381 0.025 0.000130823
0 0.027869 0.0137433 0.000192758
3.28979e-21 -0.008381 0.03 9.60957e-05
-1.91544e-20 0.021619 0.0225 0.000147305
-1.0842e-19 -0.012131 0.02875 0.000104987
0 0.022869 0.02125 0.000155043
1.21485e-28 -0.025881 0.0174764 0.000175339
8.08456e-20 -0.025881 0.0175 0.000175225
0 -0.030881 0.00479858 0.000236938
1.0842e-19 0.000369 0.03125 8.72633e-05
0 0.020369 0.02375 0.000139568
0 -0.002131 0.03125 8.72347e-05
8.08456e-20 0.024119 0.02 0.000162074
-1.0842e-19 -0.017131 0.02625 0.000122483
1.9387e-26 0.0304751 0.00736572 0.000220144
3.28979e-21 0.009119 0.03 9.63178e-05
-1.0842e-19 0.002869 0.03125 8.72899e-05
5.84013e-20 0.019119 0.025 0.000131238
1.0842e-19 0.012869 0.02875 0.000105308
0 0.025369 0.01875 0.000169098
-1.0842e-19 0.030369 0.008656 0.000213529
1.0842e-19 -0.004631 0.03125 8.72018e-05
-1.65436e-24 0.031619 9.51851e-09 0.000190714
0 -0.027131 0.0162494 0.000181599
-1.0842e-19 -0.029631 0.011217 0.000203417
1.12206e-19 0.029119 0.0124878 0.000197857
9.40707e-20 0.031619 0.00233887 0.000217143
1.0842e-19 0.005369 0.03125 8.73318e-05
0 -0.030881 0.00736572 0.00022115
0 0.017869 0.02625 0.000122905
5.84013e-20 -0.015881 0.0275 0.00011372
8.08393e-20 0.026619 0.0175 0.000175367
1.58401e-19 -0.010881 0.03 9.60679e-05
5.63731e-20 0.031619 0.00479858 0.000235419
1.0842e-19 -0.007131 0.03125 8.71778e-05
0 -0.028381 0.0149988 0.000187268
1.58401e-19 0.016619 0.0275 0.000114136
0 -0.032131 0.00116943 0.000192983
1.58401e-19 0.011619 0.03 9.63571e-05
-1.0842e-19 0.007869 0.03125 8.73625e-05
0 -0.014631 0.02875 0.000104957
-1.0842e-19 0.027869 0.0162494 0.000181625
0 -0.032131 0.00356872 0.000245836
-1.0842e-19 0.030369 0.011217 0.000202968
0 -0.030881 0.00994629 0.000208871
5.84013e-20 -0.023381 0.0225 0.000146918
-1.0842e-19 -0.022131 0.02375 0.000139154
0 0.031619 0.00736572 0.000220123
-9.67102e-20 -0.000881 0.0325 7.85724e-05
-1.0842e-19 -0.024631 0.02125 0.000154692
8.08456e-20 0.001619 0.0325 7.86016e-05
5.84013e-20 -0.020881 0.025 0.000130809
-1.0842e-19 0.015369 0.02875 0.000105359
-1.0842e-19 -0.029631 0.0137433 0.000192952
-1.13044e-19 -0.003381 0.0325 7.85415e-05
0 -0.009631 0.03125 8.71497e-05
2.1684e-19 -0.032131 0.00608215 0.000227969
0 0.0311547 0.00994629 0.000208225
-1.91544e-20 -0.025881 0.02 0.000161771
-4.00585e-20 0.029119 0.0149988 0.000187196
8.08456e-20 0.004119 0.0325 7.86352e-05
0 -0.019631 0.02625 0.000122468
-4.15987e-20 -0.013381 0.03 9.60404e-05
-2.1684e-19 0.032869 0.00116944 0.000190644
-1.0842e-19 0.010369 0.03125 8.74081e-05
0 0.022869 0.02375 0.000139616
0 -0.027131 0.01875 0.000168858
1.58401e-19 0.024119 0.0225 0.000147349
-1.30438e-20 -0.005881 0.0325 7.85133e-05
5.84013e-20 0.021619 0.025 0.000131287
1.0842e-19 0.032869 0.00356872 0.000243948
0 -0.018381 0.0275 0.000113699
0 0.025369 0.02125 0.000155078
0 0.031619 0.00994629 0.000208221
-4.15987e-20 0.014119 0.03 9.64014e-05
8.08456e-20 0.006619 0.0325 7.86705e-05
0 0.020369 0.02625 0.000122954
0 -0.032131 0.008656 0.000214367
-3.54881e-20 0.026619 0.02 0.000162102
0 -0.030881 0.0124878 0.000198178
5.6798e-29 -0.028381 0.0174652 0.000175397
1.0842e-19 0.030369 0.0137433 0.000192765
1.57772e-30 -0.028381 0.0175 0.00017523
0 -0.033381 1.52992e-08 0.000193016
1.0842e-19 0.032869 0.00608215 0.000226694
0 -0.033381 0.00233888 0.000219232
-1.0842e-19 -0.017131 0.02875 0.000104934
5.84013e-20 0.019119 0.0275 0.000114182
-1.0842e-19 -0.012131 0.03125 8.71211e-05
6.45119e-20 -0.008381 0.0325 7.84875e-05
0 0.027869 0.01875 0.000169122
0 -0.033381 0.00479858 0.000236998
1.0842e-19 0.000369 0.03375 6.99106e-05
-1.91544e-20 0.009119 0.0325 7.8708e-05
0 -0.029631 0.0162494 0.000181601
0 0.012869 0.03125 8.74435e-05
1.0842e-19 -0.002131 0.03375 6.98811e-05
-1.0842e-19 0.017869 0.02875 0.00010541
-1.0842e-19 0.002869 0.03375 6.99426e-05
-5.04871e-29 0.0315631 0.0124878 0.000197849
-1.91544e-20 -0.015881 0.03 9.60137e-05
-9.67102e-20 0.029119 0.0175 0.000175386
0 0.032869 0.00865601 0.0002135
0 0.031619 0.0124878 0.000197848
-1.0842e-19 -0.032131 0.011217 0.000203433
0 -0.004631 0.03375 6.98484e-05
0 0.034119 8.73377e-09 0.000190591
1.0842e-19 0.005369 0.03375 6.99765e-05
0 -0.033381 0.00736572 0.0002212
0 0.034119 0.00233887 0.000217041
-1.0842e-19 -0.024631 0.02375 0.000139138
-4.15987e-20 -0.023381 0.025 0.000130791
8.08456e-20 -0.010881 0.0325 7.846e-05
-1.91544e-20 -0.025881 0.0225 0.000146906
1.58401e-19 0.016619 0.03 9.64503e-05
5.04871e-29 -0.030881 0.0149988 0.000187272
-1.0842e-19 -0.022131 0.02625 0.000122448
0 0.030369 0.0162494 0.000181649
0 0.034119 0.00479858 0.000235353
0 -0.027131 0.02125 0.000154669
1.0842e-19 -0.007131 0.03375 6.98252e-05
-1.0842e-19 -0.014631 0.03125 8.70966e-05
1.58401e-19 0.011619 0.0325 7.87478e-05
8.08456e-20 -0.020881 0.0275 0.000113677
2.1684e-19 -0.034631 0.00116944 0.000193049
0 0.007869 0.03375 7.00111e-05
-1.26218e-29 0.031619 0.0142466 0.000190393
-1.91544e-20 -0.028381 0.02 0.000161766
2.1684e-19 0.032869 0.011217 0.00020294
5.84013e-20 0.024119 0.025 0.000131337
-1.0842e-19 0.025369 0.02375 0.000139659
1.0842e-19 -0.019631 0.02875 0.000104911
0 -0.034631 0.00356872 0.000245897
-1.0842e-19 0.022869 0.02625 0.000123012
0 0.015369 0.03125 8.74954e-05
0 -0.033381 0.00994629 0.000208904
3.28979e-21 0.026619 0.0225 0.000147388
-2.58494e-26 0.034119 0.00736572 0.000220082
1.0842e-19 -0.032131 0.0137433 0.000192955
1.58401e-19 0.021619 0.0275 0.000114234
-4.38726e-20 0.031619 0.0149988 0.000187204
-9.67102e-20 -0.000881 0.035 6.16493e-05
-1.91544e-20 0.001619 0.035 6.1679e-05
1.0842e-19 0.027869 0.02125 0.00015511
1.0842e-19 -0.029631 0.01875 0.000168865
0 -0.009631 0.03375 6.97974e-05
-1.91544e-20 -0.013381 0.0325 7.84339e-05
-1.0842e-19 -0.034631 0.00608215 0.000228035
6.45119e-20 -0.003381 0.035 6.16201e-05
2.52435e-29 -0.031818 0.0149988 0.000187276
-1.57772e-30 -0.018381 0.03 9.59898e-05
0 0.020369 0.02875 0.00010546
1.58401e-19 0.004119 0.035 6.17116e-05
0 0.010369 0.03375 7.00506e-05
-3.54881e-20 0.029119 0.02 0.000162134
-2.52435e-29 0.0320461 0.0149988 0.000187204
-1.0842e-19 0.035369 0.00116944 0.000190537
-4.15987e-20 0.014119 0.0325 7.87902e-05
-3.15544e-30 -0.030881 0.0174159 0.000175639
-1.30438e-20 -0.005881 0.035 6.15939e-05
-1.91534e-20 -0.030881 0.0175 0.000175234
0 0.034119 0.00994629 0.000208192
1.0842e-19 0.035369 0.00356872 0.00024388
8.08456e-20 0.019119 0.03 9.64982e-05
1.65436e-24 0.0355748 0 0.000190502
8.08456e-20 0.006619 0.035 6.17455e-05
1.0842e-19 0.032869 0.0137433 0.000192761
0 -0.017131 0.03125 8.70678e-05
0 -0.033381 0.0124878 0.000198197
0 0.030369 0.01875 0.00016915
0 -0.034631 0.008656 0.000214406
1.00974e-28 -0.0335264 0.0124878 0.000198199
1.0842e-19 -0.012131 0.03375 6.97718e-05
0 -0.035881 1.26451e-08 0.00019308
-1.0842e-19 0.035369 0.00608215 0.000226643
0 -0.035881 0.00233887 0.000219296
5.84013e-20 -0.025881 0.025 0.000130772
-3.54881e-20 -0.008381 0.035 6.15678e-05
0 -0.024631 0.02625 0.000122426
0 0.017869 0.03125 8.75371e-05
1.0842e-19 -0.032131 0.0162494 0.000181596
1.0842e-19 -0.027131 0.02375 0.000139125
-1.91544e-20 -0.023381 0.0275 0.000113654
0 0.012869 0.03375 7.00891e-05
-3.54895e-20 0.031619 0.0175 0.000175407
-5.04871e-29 -0.033381 0.0139009 0.000192054
3.28979e-21 0.009119 0.035 6.1782e-05
8.08456e-20 -0.015881 0.0325 7.84076e-05
0 -0.035881 0.00479858 0.000237058
-1.91544e-20 -0.028381 0.0225 0.000146894
-1.0842e-19 0.000369 0.03625 5.34184e-05
0 -0.022131 0.02875 0.000104881
-1.0842e-19 -0.002131 0.03625 5.33871e-05
0 0.034119 0.0124878 0.000197833
0 0.002869 0.03625 5.34446e-05
1.0842e-19 -0.034631 0.011217 0.000203468
1.0842e-19 0.035369 0.008656 0.000213468
-1.0842e-19 -0.029631 0.02125 0.000154672
-4.15987e-20 0.016619 0.0325 7.88358e-05
-1.0842e-19 0.025369 0.02625 0.000123062
8.08456e-20 0.026619 0.025 0.000131382
0 -0.004631 0.03625 5.33637e-05
8.08456e-20 -0.020881 0.03 9.59655e-05
-1.91544e-20 0.024119 0.0275 0.000114288
1.1385e-19 -0.033381 0.0149988 0.000187282
1.0842e-19 0.027869 0.02375 0.000139703
0 0.036619 6.26428e-09 0.000190438
0 -0.035881 0.00736572 0.000221245
0 0.005369 0.03625 5.34828e-05
-9.67102e-20 -0.010881 0.035 6.15402e-05
0 0.032869 0.0162494 0.000181654
0 0.0365979 0.00233887 0.000216926
1.61559e-27 0.036619 0.00233887 0.000216925
-1.29247e-26 0.036619 0.00246721 0.000217883
0 0.022869 0.02875 0.000105511
0 -0.014631 0.03375 6.97459e-05
-1.91544e-20 -0.030881 0.02 0.000161773
6.45119e-20 0.029119 0.0225 0.000147429
-4.84676e-27 -0.0354682 0.00994629 0.000208928
-3.54881e-20 0.011619 0.035 6.18207e-05
1.0842e-19 -0.019631 0.03125 8.7047e-05
0 0.036619 0.00479858 0.000235288
0 -0.007131 0.03625 5.33384e-05
-9.67102e-20 0.021619 0.03 9.65503e-05
0 0.030369 0.02125 0.000155154
-1.0842e-19 0.015369 0.03375 7.01328e-05
0 0.007869 0.03625 5.35117e-05
-1.0842e-19 0.035369 0.011217 0.000202915
0 -0.037131 0.00116943 0.000193111
0 -0.035881 0.00981197 0.000209574
0 -0.032131 0.01875 0.000168876
0 -0.035881 0.00994629 0.000208933
0 -0.034631 0.0137433 0.000192976
1.00974e-28 0.034119 0.0149988 0.000187207
1.0842e-19 -0.037131 0.00356872 0.000245967
-1.0842e-19 0.020369 0.03125 8.75861e-05
-1.57772e-30 -0.018381 0.0325 7.83826e-05
0 0.036619 0.00736572 0.00022004
-1.30438e-20 0.031619 0.02 0.000162166
-1.91544e-20 -0.013381 0.035 6.15146e-05
-1.0842e-19 -0.009631 0.03625 5.33103e-05