# omega  POINT_DATA 34187
# x  y  z  omega
1.60275e-08 -1.0842e-19 0 78.8277
-0.000880992 1.0842e-19 0 78.8254
0.00088102 5.42101e-20 0 78.8301
-0.00161899 0 0 78.8234
0.00161901 -5.42101e-20 0 78.8322
-0.00124999 2.71051e-20 0.00116943 75.6472
0.00125001 -1.807e-20 0.00116943 75.6541
6.3044e-09 1.0842e-19 0.00233887 54.2288
-0.0025 -1.0842e-19 0 78.8208
0.00250002 -1.0842e-19 0 78.8347
-0.003381 0 0 78.8184
0.00338102 0 0 78.8374
-0.0025 -1.0842e-19 0.00233887 54.2211
0.00250001 1.0842e-19 0.00233887 54.2365
-0.00125 0 0.00356872 31.6007
0.00125 1.807e-20 0.00356872 31.6087
-0.00375 1.807e-20 0.00116943 75.6401
0.00375001 9.03502e-21 0.00116944 75.6614
0.004119 -5.42101e-20 0 78.8395
-0.004119 -5.42101e-20 0 78.8164
2.41733e-09 -1.0842e-19 0.00479858 22.5816
0.005 -1.0842e-19 0 78.842
-0.00500001 1.0842e-19 0 78.814
-0.00375 -9.03502e-21 0.00356873 31.5929
0.00375 1.807e-20 0.00356873 31.6165
0.0025 -1.0842e-19 0.00479858 22.587
-0.0025 0 0.00479858 22.5763
0.005 1.0842e-19 0.00233887 54.2443
-0.005 0 0.00233887 54.2135
0.005881 -5.42101e-20 0 78.8447
-0.00588101 5.42101e-20 0 78.8119
-0.00125 0 0.00608215 16.3735
0.00125 0 0.00608215 16.376
0.00625 0 0.00116944 75.6689
-0.00625 -1.807e-20 0.00116944 75.6335
0.00661899 5.42101e-20 0 78.847
-0.006619 -5.42101e-20 0 78.81
0.005 -1.0842e-19 0.00479858 22.5923
-0.005 0 0.00479858 22.5709
-0.00375 0 0.00608215 16.3712
0.00375 -1.807e-20 0.00608215 16.3784
-0.00625 9.03502e-21 0.00356873 31.5848
0.00625 0 0.00356873 31.6244
7.8719e-10 0 0.00736572 13.291
0.00749999 -1.0842e-19 0 78.8497
-0.0075 1.0842e-19 0 78.8076
0.0025 0 0.00736572 13.2913
-0.0025 0 0.00736572 13.2909
0.0075 0 0.00233887 54.2523
-0.0075 -1.0842e-19 0.00233887 54.2061
0.00838099 -5.42101e-20 0 78.8526
-0.008381 5.42101e-20 0 78.8054
-0.00625 -3.61401e-20 0.00608215 16.3688
0.00625 1.807e-20 0.00608215 16.3808
-0.00125 3.61401e-20 0.008656 10.9173
0.00125 3.61401e-20 0.00865601 10.9155
-0.00874999 -9.03502e-21 0.00116944 75.6269
0.00875 0 0.00116943 75.6768
0.005 0 0.00736572 13.2915
-0.005 0 0.00736572 13.2908
0.0075 0 0.00479858 22.5976
-0.0075 0 0.00479858 22.5655
-0.00911899 -5.42101e-20 0 78.8036
0.00911899 -5.42101e-20 0 78.8549
0.00375 -1.807e-20 0.008656 10.9138
-0.00375 -1.807e-20 0.008656 10.9192
-0.00875 2.71051e-20 0.00356873 31.5769
0.00875 1.807e-20 0.00356873 31.6322
1.93058e-10 0 0.00994629 9.51757
-0.00999999 0 0 78.8015
0.00999999 -1.0842e-19 0 78.8576
0.0025 0 0.00994629 9.51446
-0.0025 0 0.00994629 9.52079
-0.00999999 0 0.00233887 54.1987
0.01 0 0.00233887 54.2603
0.0075 0 0.00736572 13.2918
-0.0075 0 0.00736572 13.2907
-0.00875 -1.807e-20 0.00608215 16.3665
0.00875 -3.61401e-20 0.00608215 16.3832
-0.00625 0 0.008656 10.9211
0.00625 1.807e-20 0.008656 10.9122
0.010881 1.0842e-19 0 78.8606
-0.010881 -5.42101e-20 0 78.7995
0.01 0 0.00479858 22.603
-0.01 0 0.00479858 22.5601
0.005 0 0.00994629 9.51141
-0.005 0 0.00994629 9.52408
-0.00125 -3.61401e-20 0.011217 8.36497
0.00125 -3.61401e-20 0.011217 8.36063
-0.01125 2.71051e-20 0.00116944 75.6209
0.01125 -3.61401e-20 0.00116943 75.6848
-0.011619 5.42101e-20 0 78.7977
0.011619 0 0 78.863
-0.01125 -1.807e-20 0.00356872 31.5688
0.01125 1.807e-20 0.00356873 31.6401
-0.00375 1.807e-20 0.011217 8.36944
0.00375 0 0.011217 8.35636
0.00875 -1.807e-20 0.008656 10.9106
-0.00875 -1.807e-20 0.008656 10.9231
0.01 0 0.00736572 13.2921
-0.01 0 0.00736572 13.2906
0.0075 0 0.00994629 9.50843
-0.0075 0 0.00994629 9.52744
3.05206e-11 0 0.0124878 7.59717
0.0125 -1.0842e-19 0 78.8658
-0.0125 1.0842e-19 0 78.7956
0.0125 0 0.00233887 54.2685
-0.0125 1.0842e-19 0.00233887 54.1915
0.0025 0 0.0124878 7.59214
-0.0025 0 0.0124878 7.60229
-0.01125 -9.03502e-21 0.00608215 16.3641
0.01125 0 0.00608215 16.3857
-0.00625 -3.61401e-20 0.011217 8.37395
0.00625 -1.807e-20 0.011217 8.35217
0.013381 -5.42101e-20 0 78.8688
-0.013381 0 0 78.7935
0.0125 0 0.00479858 22.6082
-0.0125 -1.0842e-19 0.00479858 22.5547
0.005 0 0.0124878 7.58718
-0.005 0 0.0124878 7.60749
0.01375 9.03502e-21 0.00116943 75.6931
-0.01375 9.03502e-21 0.00116944 75.6148
-0.00125 5.42101e-20 0.0137433 6.9366
0.00125 0 0.0137433 6.93095
0.01 0 0.00994629 9.50552
-0.01 0 0.00994629 9.53087
-0.014119 -1.0842e-19 0 78.7918
0.014119 -5.42101e-20 0 78.8713
0.01125 -1.807e-20 0.008656 10.909
-0.01125 -1.807e-20 0.00865601 10.9251
-0.01375 0 0.00356873 31.5608
0.01375 9.03502e-21 0.00356873 31.6478
-0.00875 0 0.011217 8.37858
0.00875 -1.807e-20 0.011217 8.34806
0.00375 -1.807e-20 0.0137433 6.92537
-0.00375 0 0.0137433 6.94234
0.0125 0 0.00736572 13.2925
-0.0125 0 0.00736572 13.2907
0.0075 0 0.0124878 7.58231
-0.0075 0 0.0124878 7.61278
2.26617e-12 0 0.0149988 6.45208
0.015 -1.0842e-19 0 78.8743
-0.015 0 0 78.7899
0.01375 -1.807e-20 0.00608215 16.3882
-0.01375 3.61401e-20 0.00608215 16.3619
0.00625 -1.807e-20 0.0137433 6.91987
-0.00625 0 0.0137433 6.94815
0.015 -1.0842e-19 0.00233887 54.2769
-0.015 1.0842e-19 0.00233887 54.1843
0.0025 0 0.0149988 6.44623
-0.0025 0 0.0149988 6.458
0.015 0 0.00479858 22.6135
-0.015 -1.0842e-19 0.00479858 22.5493
0.005 0 0.0149988 6.44045
-0.005 0 0.0149988 6.464
0.015881 -1.0842e-19 0 78.8775
-0.015881 1.0842e-19 0 78.7881
0.01125 0 0.011217 8.34403
-0.01125 0 0.011217 8.38328
0.0125 0 0.00994629 9.50268
-0.0125 0 0.00994629 9.53441
0.01 0 0.0124878 7.57752
-0.01 0 0.0124878 7.61816
-0.01375 -1.807e-20 0.008656 10.9273
0.01375 -3.61401e-20 0.008656 10.9076
0.01625 -1.807e-20 0.00116943 75.7018
-0.01625 9.03502e-21 0.00116943 75.6092
-0.00875 -1.807e-20 0.0137433 6.95406
0.00875 0 0.0137433 6.91446
-0.00125 1.807e-20 0.0162494 6.0222
0.00125 -3.61401e-20 0.0162494 6.01618
-0.016619 0 0 78.7865
0.016619 -1.0842e-19 0 78.88
-0.01625 0 0.00356873 31.5527
0.01625 -1.807e-20 0.00356872 31.6558
0.00375 -1.807e-20 0.0162494 6.01023
-0.00375 -1.807e-20 0.0162494 6.02829
0.015 0 0.00736572 13.2929
-0.015 0 0.00736572 13.2907
0.0075 0 0.0149988 6.43474
-0.0075 0 0.0149988 6.47008
0.01625 -1.807e-20 0.00608215 16.3907
-0.01625 -2.71051e-20 0.00608215 16.3596
-0.00625 0 0.0162494 6.03444
0.00625 0 0.0162494 6.00434
0.0175 -1.0842e-19 0 78.883
-0.0175 -1.0842e-19 0 78.7845
-1.02402e-14 0 0.0175 5.68152
0.0175 -1.0842e-19 0.00233887 54.2853
-0.0175 0 0.00233887 54.1772
0.0125 0 0.0124878 7.5728
-0.0125 0 0.0124878 7.62363
0.0025 0 0.0175 5.67563
-0.0025 0 0.0175 5.68747
-0.01375 -1.807e-20 0.011217 8.38808
0.01375 -1.807e-20 0.011217 8.34007
0.01125 0 0.0137433 6.90911
-0.01125 -1.807e-20 0.0137433 6.96004
0.015 0 0.00994629 9.49992
-0.015 0 0.00994629 9.53802
0.01 0 0.0149988 6.42911
-0.01 0 0.0149988 6.47623
0.0175 0 0.00479858 22.6188
-0.0175 0 0.00479858 22.5438
0.005 0 0.0175 5.66979
-0.005 0 0.0175 5.69347
-0.018381 -1.0842e-19 0 78.7827
0.018381 -5.42101e-20 0 78.8862
0.01625 -1.807e-20 0.008656 10.9062
-0.01625 -1.807e-20 0.008656 10.9295
-0.00875 0 0.0162494 6.04066
0.00875 1.807e-20 0.0162494 5.99851
0.01875 0 0.00116943 75.7105
-0.01875 -9.03502e-21 0.00116943 75.6036
0.00125 -1.807e-20 0.01875 5.36707
-0.00125 -1.807e-20 0.01875 5.37282
0.0175 0 0.00736572 13.2934
-0.0175 0 0.00736572 13.2908
0.0075 0 0.0175 5.66401
-0.0075 0 0.0175 5.69953
0.01875 0 0.00356872 31.6635
-0.01875 1.807e-20 0.00356873 31.5445
0.019119 1.0842e-19 0 78.8888
-0.019119 5.42101e-20 0 78.7811
0.00375 -1.807e-20 0.01875 5.36136
-0.00375 -1.807e-20 0.01875 5.37862
0.01375 0 0.0137433 6.90385
-0.01375 0 0.0137433 6.96611
0.015 0 0.0124878 7.56816
-0.015 0 0.0124878 7.62918
0.0125 0 0.0149988 6.42354
-0.0125 0 0.0149988 6.48245
0.01875 -9.03502e-21 0.00608215 16.3931
-0.01875 -1.807e-20 0.00608215 16.3573
0.01625 -1.807e-20 0.011217 8.33618
-0.01625 -1.807e-20 0.011217 8.39297
0.01125 1.807e-20 0.0162494 5.99275
-0.01125 -1.807e-20 0.0162494 6.04695
0.00625 1.807e-20 0.01875 5.3557
-0.00625 1.807e-20 0.01875 5.38445
0.02 0 0 78.8918
-0.02 -1.0842e-19 0 78.7792
-1.024e-14 0 0.02 5.11272
0.0175 0 0.00994629 9.49722
-0.0175 0 0.00994629 9.54172
0.02 1.0842e-19 0.00233887 54.2938
-0.02 0 0.00233887 54.1702
0.0025 0 0.02 5.1073
0.01 0 0.0175 5.65828
-0.0025 0 0.02 5.11818
-0.01 0 0.0175 5.70564
0.02 -1.0842e-19 0.00479858 22.624
-0.02 0 0.00479858 22.5383
0.005 0 0.02 5.10191
-0.005 0 0.02 5.12367
0.01875 0 0.008656 10.9048
-0.01875 -1.807e-20 0.008656 10.9318
0.00875 0 0.01875 5.35008
-0.00875 0 0.01875 5.39035
-0.020881 5.42101e-20 0 78.7775
0.020881 5.42101e-20 0 78.895
0.015 0 0.0149988 6.41804
-0.015 0 0.0149988 6.48875
-0.02125 -9.03502e-21 0.00116943 75.5983
0.02125 0 0.00116944 75.7194
-0.01625 -1.807e-20 0.0137433 6.97226
0.01625 -1.807e-20 0.0137433 6.89866
-0.01375 0 0.0162494 6.0533
0.01375 0 0.0162494 5.98703
0.00125 -1.807e-20 0.02125 4.86824
-0.00125 -1.807e-20 0.02125 4.87333
0.02 0 0.00736572 13.2938
-0.02 0 0.00736572 13.291
0.0075 0 0.02 5.09656
-0.0075 0 0.02 5.1292
0.0175 0 0.0124878 7.56359
-0.0175 0 0.0124878 7.63483
0.0125 0 0.0175 5.65261
-0.0125 0 0.0175 5.71181
-0.02125 0 0.00356873 31.5363
0.02125 -9.03502e-21 0.00356873 31.6712
0.00375 -3.61401e-20 0.02125 4.86318
-0.00375 -1.807e-20 0.02125 4.87845
0.021619 0 0 78.8977
-0.021619 5.42101e-20 0 78.7761
-0.01875 -1.807e-20 0.011217 8.39796
0.01875 0 0.011217 8.33238
0.01125 -1.807e-20 0.01875 5.34452
-0.01125 -1.807e-20 0.01875 5.39627
-0.02125 -2.71051e-20 0.00608215 16.3551
0.02125 1.807e-20 0.00608215 16.3956
-0.00625 1.807e-20 0.02125 4.88359
0.00625 -1.807e-20 0.02125 4.85814
0.02 0 0.00994629 9.49457
-0.02 0 0.00994629 9.54552
0.01 0 0.02 5.09125
-0.01 0 0.02 5.13476
0.0225 0 0 78.901
-0.0225 -1.0842e-19 0 78.7743
-1.02399e-14 0 0.0225 4.66234
0.0225 -1.0842e-19 0.00233887 54.3023
-0.0225 1.0842e-19 0.00233887 54.1633
0.0025 0 0.0225 4.65768
-0.0025 0 0.0225 4.66703
-0.02125 -1.807e-20 0.008656 10.9342
0.02125 -1.807e-20 0.008656 10.9035
0.01625 -1.807e-20 0.0162494 5.98139
-0.01625 0 0.0162494 6.05972
0.00875 -1.807e-20 0.02125 4.85313
-0.00875 -3.61401e-20 0.02125 4.88876
0.0225 -1.0842e-19 0.00479858 22.6292
-0.0225 -1.0842e-19 0.00479858 22.5328
0.0175 0 0.0149988 6.41261
-0.0175 0 0.0149988 6.49514
0.005 0 0.0225 4.65303
-0.005 0 0.0225 4.67173
0.015 0 0.0175 5.64699
-0.015 0 0.0175 5.71804
0.01875 0 0.0137433 6.89353
-0.01875 -1.807e-20 0.0137433 6.97851
0.01375 5.42101e-20 0.01875 5.33898
-0.01375 -3.61401e-20 0.01875 5.40226
-0.023381 -5.42101e-20 0 78.7728
0.023381 0 0 78.9043
0.02 0 0.0124878 7.5591
-0.02 0 0.0124878 7.64058
0.0125 0 0.02 5.08597
-0.0125 0 0.02 5.14035
0.0225 0 0.00736572 13.2943
-0.0225 0 0.00736572 13.2913
0.0075 0 0.0225 4.6484
-0.0075 0 0.0225 4.67645
-0.02375 0 0.00116943 75.5933
0.02375 0 0.00116944 75.7286
0.00125 1.807e-20 0.02375 4.46157
-0.00125 -1.807e-20 0.02375 4.46582
0.02375 -3.61401e-20 0.00356873 31.6789
-0.02375 1.807e-20 0.00356873 31.5281
0.02125 -1.807e-20 0.011217 8.32864
-0.02125 -1.807e-20 0.011217 8.40304
-0.01125 -1.807e-20 0.02125 4.89395
0.01125 -1.807e-20 0.02125 4.84815
0.00375 -1.807e-20 0.02375 4.45732
-0.00375 0 0.02375 4.47008
0.024119 -5.42101e-20 0 78.9071
-0.024119 5.42101e-20 0 78.7714
0.02375 -1.807e-20 0.00608215 16.3982
-0.02375 -1.807e-20 0.00608215 16.3529
-0.00625 -1.807e-20 0.02375 4.47435
0.00625 -1.807e-20 0.02375 4.45309
0.0225 0 0.00994629 9.49198
-0.0225 0 0.00994629 9.54942
0.01 0 0.0225 4.64379
-0.01 0 0.0225 4.68119
0.0175 0 0.0175 5.64142
-0.0175 0 0.0175 5.72432
0.01875 -1.807e-20 0.0162494 5.97581
-0.01875 -1.807e-20 0.0162494 6.06621
0.01625 -1.807e-20 0.01875 5.3335
-0.01625 -3.61401e-20 0.01875 5.40828
0.02 0 0.0149988 6.40724
-0.02 0 0.0149988 6.5016
-0.025 -1.0842e-19 0 78.7697
0.015 0 0.02 5.08073
-0.015 0 0.02 5.14599
0.025 0 0 78.9104
-1.024e-14 0 0.025 4.28782
0.025 0 0.00233887 54.3111
-0.025 1.0842e-19 0.00233887 54.1565
0.0025 0 0.025 4.28399
-0.0025 0 0.025 4.29165
0.02375 -1.807e-20 0.008656 10.9022
-0.02375 -1.807e-20 0.008656 10.9366
0.02125 -1.807e-20 0.0137433 6.88849
-0.02125 -1.807e-20 0.0137433 6.98484
0.01375 -1.807e-20 0.02125 4.84319
0.00875 0 0.02375 4.44888
-0.00875 0 0.02375 4.47863
-0.01375 -3.61401e-20 0.02125 4.89917
0.025 -1.0842e-19 0.00479858 22.6345
-0.025 -1.0842e-19 0.00479858 22.5273
0.005 0 0.025 4.28017
-0.005 0 0.025 4.29549
0.0225 0 0.0124878 7.55468
-0.0225 0 0.0124878 7.64641
0.0125 0 0.0225 4.6392
-0.0125 0 0.0225 4.68595
-0.025881 0 0 78.7681
0.025881 -1.0842e-19 0 78.9139
0.025 0 0.00736572 13.2949
-0.025 0 0.00736572 13.2916
0.0075 0 0.025 4.27636
-0.0075 0 0.025 4.29933
-0.02375 1.807e-20 0.011217 8.40823
0.02375 -1.807e-20 0.011217 8.32497
-0.02625 -9.03502e-21 0.00116943 75.5884
0.02625 -9.03502e-21 0.00116944 75.7381
0.00125 -3.61401e-20 0.02625 4.11717
0.01125 0 0.02375 4.44467
-0.01125 3.61401e-20 0.02375 4.48293
-0.00125 0 0.02625 4.12058
-0.02625 -1.807e-20 0.00356873 31.5199
0.02625 -3.61401e-20 0.00356873 31.6867
-0.01875 -1.807e-20 0.01875 5.41434
0.01875 0 0.01875 5.32807
0.00375 5.42101e-20 0.02625 4.11376
-0.00375 -1.807e-20 0.02625 4.12399
0.02 0 0.0175 5.6359
0.0175 0 0.02 5.07552
-0.0175 0 0.02 5.15165
-0.02 0 0.0175 5.73067
0.026619 1.0842e-19 0 78.9167
-0.026619 -5.42101e-20 0 78.7668
0.02125 -1.807e-20 0.0162494 5.97029
-0.02125 0 0.0162494 6.07277
0.01625 -1.807e-20 0.02125 4.83826
-0.01625 -1.807e-20 0.02125 4.90441
0.025 0 0.00994629 9.48947
-0.025 0 0.00994629 9.5534
0.01 0 0.025 4.27255
-0.01 0 0.025 4.30318
0.02625 1.807e-20 0.00608215 16.4007
-0.02625 -1.807e-20 0.00608215 16.3508
-0.00625 0 0.02625 4.12741
0.00625 -1.807e-20 0.02625 4.11036
0.0225 0 0.0149988 6.40195
-0.0225 0 0.0149988 6.50814
0.015 0 0.0225 4.63462
-0.015 0 0.0225 4.69072
0.02375 -1.807e-20 0.0137433 6.88351
-0.02375 -1.807e-20 0.0137433 6.99127
-0.01375 0 0.02375 4.48723
0.01375 0 0.02375 4.44048
-1.02401e-14 0 0.0275 3.96702
0.0275 0 0 78.9202
-0.0275 -1.0842e-19 0 78.7652
0.0275 -1.0842e-19 0.00233887 54.32
-0.0275 -1.0842e-19 0.00233887 54.1498
0.0025 0 0.0275 3.96401
-0.0025 0 0.0275 3.97003
0.02625 -1.807e-20 0.008656 10.901
-0.02625 -1.807e-20 0.008656 10.9392
0.00875 0 0.02625 4.10696
-0.00875 -3.61401e-20 0.02625 4.13082
0.0275 -1.0842e-19 0.00479858 22.6397
-0.0275 -1.0842e-19 0.00479858 22.5218
0.025 0 0.0124878 7.55033
-0.025 0 0.0124878 7.65235
0.005 0 0.0275 3.961
-0.005 0 0.0275 3.97303
0.0125 0 0.025 4.26875
-0.0125 0 0.025 4.30703
0.02 0 0.02 5.07035
-0.02 0 0.02 5.15736
0.01875 0 0.02125 4.83336
-0.01875 0 0.02125 4.90968
0.02125 0 0.01875 5.32267
-0.02125 -1.807e-20 0.01875 5.42046
-0.028381 -5.42101e-20 0 78.7638
0.028381 -5.42101e-20 0 78.9239
0.0275 0 0.00736572 13.2954
-0.0275 0 0.00736572 13.2919
0.0075 0 0.0275 3.958
-0.0075 0 0.0275 3.97604
0.0175 0 0.0225 4.63007
0.0225 0 0.0175 5.63044
-0.0175 0 0.0225 4.6955
-0.0225 0 0.0175 5.73707
0.02625 0 0.011217 8.32138
-0.02625 -1.807e-20 0.011217 8.41352
-0.01125 0 0.02625 4.13424
0.01125 5.42101e-20 0.02625 4.10355
-0.02875 -2.71051e-20 0.00116943 75.5838
0.02875 -1.807e-20 0.00116943 75.748
0.02375 0 0.0162494 5.96483
-0.02375 0 0.0162494 6.0794
0.00125 0 0.02875 3.81936
0.01625 -1.807e-20 0.02375 4.4363
-0.01625 -1.807e-20 0.02375 4.49154
-0.00125 -1.807e-20 0.02875 3.822
-0.02875 -1.807e-20 0.00356873 31.5116
0.02875 9.03502e-21 0.00356872 31.6944
0.00375 -3.61401e-20 0.02875 3.81672
-0.00375 -1.807e-20 0.02875 3.82464
0.029119 5.42101e-20 0 78.9268
-0.029119 0 0 78.7625
0.025 0 0.0149988 6.39671
-0.025 0 0.0149988 6.51476
0.015 0 0.025 4.26496
-0.015 0 0.025 4.31089
0.0275 0 0.00994629 9.48701
-0.0275 0 0.00994629 9.55748
0.01 0 0.0275 3.95499
-0.01 0 0.0275 3.97904
-0.02875 1.807e-20 0.00608215 16.3486
0.02875 9.03502e-21 0.00608215 16.4032
0.00625 1.807e-20 0.02875 3.81409
-0.00625 -3.61401e-20 0.02875 3.82727
-0.02625 1.807e-20 0.0137433 6.99778
0.02625 -1.807e-20 0.0137433 6.8786
0.01375 -1.807e-20 0.02625 4.10015
-0.01375 0 0.02625 4.13765
0.03 0 0 78.9303
-0.03 -1.0842e-19 0 78.761
-1.024e-14 0 0.03 3.68904
-0.02875 1.807e-20 0.008656 10.9418
0.02875 -1.807e-20 0.008656 10.8998
-0.02125 -1.807e-20 0.02125 4.91496
0.02125 5.42101e-20 0.02125 4.82848
-0.00875 1.807e-20 0.02875 3.8299
0.00875 0 0.02875 3.81144
0.03 0 0.00233887 54.329
-0.03 -1.0842e-19 0.00233887 54.1432
0.02 0 0.0225 4.62554
0.0225 0 0.02 5.06521
0.0025 0 0.03 3.6866
-0.0025 0 0.03 3.69148
-0.02 0 0.0225 4.70031
-0.0225 0 0.02 5.16309
0.0275 0 0.0124878 7.54605
-0.0275 0 0.0124878 7.65838
0.0125 0 0.0275 3.95198
-0.0125 0 0.0275 3.98205
0.02375 0 0.01875 5.31732
-0.01875 -1.807e-20 0.02375 4.49586
-0.02375 -3.61401e-20 0.01875 5.42663
0.01875 -3.61401e-20 0.02375 4.43213
0.03 0 0.00479858 22.6449
-0.03 -1.0842e-19 0.00479858 22.5162
0.005 0 0.03 3.68416
-0.005 0 0.03 3.69391
0.0175 0 0.025 4.26118
0.025 0 0.0175 5.62503
-0.0175 0 0.025 4.31475
-0.025 0 0.0175 5.74352
0.02875 -1.807e-20 0.011217 8.31784
-0.02875 0 0.011217 8.41891
0.02625 0 0.0162494 5.95943
-0.02625 -1.807e-20 0.0162494 6.0861
0.01125 -1.807e-20 0.02875 3.8088
0.01625 -1.807e-20 0.02625 4.09676
-0.01125 0 0.02875 3.83252
-0.01625 -1.807e-20 0.02625 4.14107
0.030881 5.42101e-20 0 78.934
-0.030881 0 0 78.7596
0.03 0 0.00736572 13.296
-0.03 0 0.00736572 13.2923
0.0075 0 0.03 3.68172
-0.0075 0 0.03 3.69635
-0.03125 3.61401e-20 0.00116943 75.5793
0.03125 -9.03502e-21 0.00116943 75.7579
0.00125 0 0.03125 3.56092
-0.00125 0 0.03125 3.56318
0.0275 0 0.0149988 6.39154
-0.0275 0 0.0149988 6.52146
0.015 0 0.0275 3.94898
-0.015 0 0.0275 3.98505
-0.03125 0 0.00356873 31.5032
0.03125 2.71051e-20 0.00356872 31.7023
0.00375 -1.807e-20 0.03125 3.55866
-0.00375 -3.61401e-20 0.03125 3.56544
0.03 0 0.00994629 9.48462
-0.03 0 0.00994629 9.56165
-0.031619 0 0 78.7584
0.031619 1.0842e-19 0 78.937
0.01 0 0.03 3.67927
-0.01 0 0.03 3.69877
0.0225 0 0.0225 4.62103
-0.0225 0 0.0225 4.70513
-0.03125 0 0.00608215 16.3465
0.03125 0 0.00608215 16.4057
-0.02875 1.807e-20 0.0137433 7.00439
0.02875 0 0.0137433 6.87376
0.00625 -1.807e-20 0.03125 3.55639
-0.00625 0 0.03125 3.56769
0.02125 -1.807e-20 0.02375 4.42798
0.01375 0 0.02875 3.80616
-0.01375 -1.807e-20 0.02875 3.83515
0.02375 -1.807e-20 0.02125 4.82363
-0.02375 -3.61401e-20 0.02125 4.92028
-0.02125 0 0.02375 4.50018
0.025 0 0.02 5.06011
0.02 0 0.025 4.2574
-0.02 0 0.025 4.31862
-0.025 0 0.02 5.16886
-0.01875 0 0.02625 4.14449
-0.02625 -1.807e-20 0.01875 5.43283
0.02625 0 0.01875 5.31202
0.01875 3.61401e-20 0.02625 4.09337
0.03125 -1.807e-20 0.008656 10.8988
-0.03125 -1.807e-20 0.008656 10.9445
-0.00875 0 0.03125 3.56994
0.00875 3.61401e-20 0.03125 3.55413
0.03 0 0.0124878 7.54184
-0.03 0 0.0124878 7.66451
0.0125 0 0.03 3.67682
-0.0125 0 0.03 3.7012
0.0325 -1.0842e-19 0 78.9405
-0.0325 -1.0842e-19 0 78.7569
-1.02401e-14 0 0.0325 3.44716
0.0325 0 0.00233886 54.3381
-0.0325 1.0842e-19 0.00233887 54.1366
0.0275 0 0.0175 5.61967
0.0175 0 0.0275 3.94597
-0.0175 0 0.0275 3.98805
-0.0275 0 0.0175 5.75004
0.0025 0 0.0325 3.44514
-0.0025 0 0.0325 3.44917
0.0325 0 0.00479858 22.65
-0.0325 -1.0842e-19 0.00479858 22.5106
0.005 0 0.0325 3.44311
-0.005 0 0.0325 3.45117
-0.02875 0 0.0162494 6.09286
0.02875 -1.807e-20 0.0162494 5.95408
-0.01625 -1.807e-20 0.02875 3.83778
0.01625 -1.807e-20 0.02875 3.80351
0.03125 -1.807e-20 0.011217 8.31439
-0.03125 -1.807e-20 0.011217 8.4244
0.01125 3.61401e-20 0.03125 3.55186
-0.01125 3.61401e-20 0.03125 3.57218
0.0325 0 0.00736572 13.2966
-0.0325 0 0.00736572 13.2928
0.0075 0 0.0325 3.44107
-0.0075 0 0.0325 3.45316
0.033381 0 0 78.9442
-0.033381 0 0 78.7557
0.03 0 0.0149988 6.38644
-0.03 0 0.0149988 6.52825
0.015 0 0.03 3.67437
-0.015 0 0.03 3.70362
-0.02375 -1.807e-20 0.02375 4.50452
0.02375 -1.807e-20 0.02375 4.42384
0.025 0 0.0225 4.61654
0.0225 0 0.025 4.25363
-0.0225 0 0.025 4.32248
-0.025 0 0.0225 4.70996
-0.03375 3.61401e-20 0.00116943 75.5751
0.03375 1.807e-20 0.00116943 75.768
0.00125 0 0.03375 3.33349
0.02625 0 0.02125 4.81881
-0.02125 -1.807e-20 0.02625 4.1479
-0.02625 -1.807e-20 0.02125 4.92562
0.02125 0 0.02625 4.08997
-0.00125 -1.807e-20 0.03375 3.3352
0.03375 0 0.00356872 31.7098
-0.03375 0 0.00356873 31.4948
0.00375 -1.807e-20 0.03375 3.33176
-0.00375 -1.807e-20 0.03375 3.3369
0.0325 0 0.00994629 9.48228
-0.0325 0 0.00994629 9.56593
0.0275 0 0.02 5.05505
0.02 0 0.0275 3.94296
-0.02 0 0.0275 3.99105
-0.0275 0 0.02 5.17467
0.01 0 0.0325 3.43903
-0.01 0 0.0325 3.45515
-0.034119 0 0 78.7546
0.034119 0 0 78.9473
0.03125 -1.807e-20 0.0137433 6.869
-0.03125 0 0.0137433 7.01109
-0.01375 0 0.03125 3.57442
0.01375 -1.807e-20 0.03125 3.54958
-0.03375 -1.807e-20 0.00608215 16.3444
0.03375 0 0.00608215 16.4082
0.01875 0 0.02875 3.80086
-0.01875 0 0.02875 3.8404
-0.02875 -1.807e-20 0.01875 5.43908
0.02875 0 0.01875 5.30675
0.00625 -1.807e-20 0.03375 3.33002
-0.00625 -1.807e-20 0.03375 3.33858
0.03 0 0.0175 5.61436
0.0175 0 0.03 3.67192
-0.0175 0 0.03 3.70604
-0.03 0 0.0175 5.75661
0.0325 0 0.0124878 7.53769
-0.0325 0 0.0124878 7.67075
0.0125 0 0.0325 3.43698
-0.0125 0 0.0325 3.45712
-0.03375 0 0.008656 10.9473
0.03375 0 0.008656 10.8976
0.00875 3.61401e-20 0.03375 3.32826
-0.00875 3.61401e-20 0.03375 3.34025
0.035 0 0 78.9509
-0.035 -1.0842e-19 0 78.7532
-1.02402e-14 0 0.035 3.22151
0.035 0 0.00233887 54.3472
-0.035 -1.0842e-19 0.00233887 54.1301
0.0025 0 0.035 3.22036
-0.0025 0 0.035 3.22264
0.03125 0 0.0162494 5.9488
-0.03125 -1.807e-20 0.0162494 6.09971
-0.01625 -1.807e-20 0.03125 3.57665
0.01625 -1.807e-20 0.03125 3.5473
0.035 0 0.00479858 22.6552
-0.035 -1.0842e-19 0.00479858 22.505
0.025 0 0.025 4.24987
0.005 0 0.035 3.21919
-0.005 0 0.035 3.22374
-0.025 0 0.025 4.32635
0.02625 0 0.02375 4.41971
0.02375 3.61401e-20 0.02625 4.08659
-0.02375 -1.807e-20 0.02625 4.15131
-0.02625 3.61401e-20 0.02375 4.50886
0.0275 0 0.0225 4.61206
0.0225 0 0.0275 3.93994
-0.0225 0 0.0275 3.99405
-0.0275 0 0.0225 4.71481
0.03375 -1.807e-20 0.011217 8.31097
-0.03375 1.807e-20 0.011217 8.43
0.01125 3.61401e-20 0.03375 3.32649
-0.01125 3.61401e-20 0.03375 3.3419
0.02875 0 0.02125 4.81402
0.02125 0 0.02875 3.79819
-0.02125 -1.807e-20 0.02875 3.84302
-0.02875 5.42101e-20 0.02125 4.93098
0.035 0 0.00736572 13.2973
-0.035 0 0.00736572 13.2934
0.0325 0 0.0149988 6.3814
-0.0325 0 0.0149988 6.53511
0.015 0 0.0325 3.43492
-0.015 0 0.0325 3.45908
0.0075 0 0.035 3.218
-0.0075 0 0.035 3.22481
0.035881 5.42101e-20 0 78.9546
-0.035881 0 0 78.752
0.03 0 0.02 5.05002
0.02 0 0.03 3.66946
-0.02 0 0.03 3.70846
-0.03 0 0.02 5.18051
-0.03625 -1.807e-20 0.00116943 75.5711
0.03625 -2.71051e-20 0.00116943 75.7783
0.00125 1.807e-20 0.03625 3.10573
-0.00125 -3.61401e-20 0.03625 3.10619
0.035 0 0.00994629 9.47999
-0.035 0 0.00994629 9.57032
0.01 0 0.035 3.21678
-0.01 0 0.035 3.22586
0.03625 2.71051e-20 0.00356872 31.7176
-0.03625 0 0.00356873 31.4864
-0.03375 -1.807e-20 0.0137433 7.01789
0.03375 0 0.0137433 6.86428
0.00375 0 0.03625 3.10523
-0.01375 -1.807e-20 0.03375 3.34353
0.01875 1.807e-20 0.03125 3.54502
-0.01875 3.61401e-20 0.03125 3.57888
0.03125 0 0.01875 5.30153
-0.03125 0 0.01875 5.44538
0.01375 3.61401e-20 0.03375 3.32471
-0.00375 0 0.03625 3.10663
-0.036619 0 0 78.7509
0.036619 0 0 78.9578
-0.03625 3.61401e-20 0.00608215 16.3424
0.03625 9.03502e-21 0.00608215 16.4108
0.00625 -1.807e-20 0.03625 3.1047
-0.00625 3.61401e-20 0.03625 3.10702
0.0325 0 0.0175 5.6091
0.0175 0 0.0325 3.43285
-0.0175 0 0.0325 3.46104
-0.0325 0 0.0175 5.76324
0.02625 0 0.02625 4.08321
-0.02625 -1.807e-20 0.02625 4.15473
0.035 0 0.0124878 7.53361
-0.035 0 0.0124878 7.67708
0.0275 0 0.025 4.24612
0.025 0 0.0275 3.93692
0.0125 0 0.035 3.21555
-0.0125 0 0.035 3.22689
-0.025 0 0.0275 3.99705
-0.0275 0 0.025 4.33023
0.03625 -1.807e-20 0.008656 10.8966
-0.03625 -3.61401e-20 0.008656 10.9503
-0.00875 0 0.03625 3.1074
-0.02375 0 0.02875 3.84564
0.02875 -1.807e-20 0.02375 4.4156
0.02375 0 0.02875 3.79551
-0.02875 1.807e-20 0.02375 4.51321
0.00875 -3.61401e-20 0.03625 3.10414
0.03375 -1.807e-20 0.0162494 5.94356
-0.03375 -1.807e-20 0.0162494 6.10662
0.01625 0 0.03375 3.32292
-0.01625 0 0.03375 3.34515
0.0375 0 0 78.9618
-0.0375 -1.0842e-19 0 78.7496
0.03 0 0.0225 4.60761
0.0225 0 0.03 3.667
-1.024e-14 0 0.0375 2.97494
-0.0225 0 0.03 3.71087
-0.03 0 0.0225 4.71967
0.0375 0 0.00233887 54.3566
-0.0375 -1.0842e-19 0.00233887 54.1237
0.0025 0 0.0375 2.97539
-0.0025 0 0.0375 2.97445
-0.02125 1.807e-20 0.03125 3.58111
0.03125 -1.807e-20 0.02125 4.80925
-0.03125 0 0.02125 4.93636
0.02125 0 0.03125 3.54275
0.0375 1.0842e-19 0.00479858 22.6603
-0.0375 -1.0842e-19 0.00479858 22.4994
0.005 0 0.0375 2.9758
-0.005 0 0.0375 2.97392
-0.03625 -3.61401e-20 0.011217 8.4357
0.03625 0 0.011217 8.30765
-0.01125 -1.807e-20 0.03625 3.10773
0.01125 -1.807e-20 0.03625 3.10355
0.035 0 0.0149988 6.37642
-0.035 0 0.0149988 6.54207
0.015 0 0.035 3.21429
-0.015 0 0.035 3.22789
0.0325 0 0.02 5.04502
0.02 0 0.0325 3.43078
-0.02 0 0.0325 3.46298
-0.0325 0 0.02 5.18638
0.0375 0 0.00736572 13.2979
-0.0375 0 0.00736572 13.294
0.0075 0 0.0375 2.97617
-0.0075 0 0.0375 2.97335
0.038381 5.42101e-20 0 78.9659
-0.038381 -5.42101e-20 0 78.7485
0.03375 -1.807e-20 0.01875 5.29635
-0.01875 -1.807e-20 0.03375 3.34675
-0.03375 0 0.01875 5.45172
0.01875 -3.61401e-20 0.03375 3.32111
0.03875 9.03502e-21 0.00116943 75.7894
-0.03875 -9.03502e-21 0.00116943 75.5673
0.03625 5.42101e-20 0.0137433 6.85965
-0.03625 -1.807e-20 0.0137433 7.02478
0.01375 1.807e-20 0.03625 3.10293
-0.01375 -1.807e-20 0.03625 3.10803
0.00125 0 0.0387501 2.83687
-0.00125 -1.807e-20 0.0387501 2.83539
0.0375 0 0.00994629 9.47776
-0.0375 0 0.00994629 9.57482
0.01 0 0.0375 2.9765
-0.01 0 0.0375 2.97274
0.0275 0 0.0275 3.93389
-0.0275 0 0.0275 4.00004
0.03875 3.61401e-20 0.00356872 31.7251
-0.03875 0 0.00356873 31.4779
0.02625 3.61401e-20 0.02875 3.79282
-0.02625 -1.807e-20 0.02875 3.84825
0.02875 -1.807e-20 0.02625 4.07982
-0.02875 0 0.02625 4.15814
0.00375 1.807e-20 0.0387501 2.83832
-0.00375 -1.807e-20 0.0387501 2.83386
0.03 0 0.025 4.24238
0.025 0 0.03 3.66453
-0.025 0 0.03 3.71329
-0.03 0 0.025 4.3341
-0.039119 0 0 78.7476
0.039119 -5.42101e-20 0 78.9692
0.035 0 0.0175 5.60389
0.0175 0 0.035 3.21301
-0.0175 0 0.035 3.22887
-0.035 0 0.0175 5.76993
0.03875 9.03502e-21 0.00608215 16.4133
-0.03875 -1.807e-20 0.00608215 16.3404
-0.03125 -1.807e-20 0.02375 4.51756
0.02375 0 0.03125 3.54048
0.03125 -1.807e-20 0.02375 4.4115
-0.02375 -1.807e-20 0.03125 3.58333
0.00625 0 0.0387501 2.83971
-0.00625 0 0.0387501 2.83228
0.0375 0 0.0124878 7.52959
-0.0375 0 0.0124878 7.68352
0.0325 0 0.0225 4.60318
0.0125 0 0.0375 2.9768
0.0225 0 0.0325 3.42873
-0.0125 0 0.0375 2.97209
-0.0225 0 0.0325 3.46491
-0.0325 0 0.0225 4.72454
0.03875 -9.03502e-21 0.008656 10.8956
-0.03875 -1.807e-20 0.00865601 10.9533
0.03625 0 0.0162494 5.9384
-0.03625 -3.61401e-20 0.0162494 6.11361
0.01625 -1.807e-20 0.03625 3.10228
-0.01625 -1.807e-20 0.03625 3.1083
0.00875 0 0.0387501 2.84106
-0.00875 -1.807e-20 0.0387501 2.83065
0.03375 -1.807e-20 0.02125 4.80451
-0.02125 1.807e-20 0.03375 3.34833
0.02125 0 0.03375 3.3193
-0.03375 -1.807e-20 0.02125 4.94177
0.04 0 0 78.973
-0.04 -1.0842e-19 0 78.7464
-1.02399e-14 0 0.0400002 2.66824
0.04 1.0842e-19 0.00233887 54.3661
-0.04 -1.0842e-19 0.00233887 54.1174
0.0025 0 0.0400002 2.67092
-0.0025 0 0.0400002 2.66551
0.04 0 0.00479858 22.6655
-0.04 -1.0842e-19 0.00479858 22.4938
0.035 0 0.02 5.04006
0.02 0 0.035 3.21172
-0.02 0 0.035 3.22982
-0.035 0 0.02 5.19228
0.005 0 0.0400002 2.67355
-0.005 0 0.0400002 2.66273
-0.03875 1.807e-20 0.011217 8.44153
0.03875 -1.807e-20 0.011217 8.30435
-0.01125 -3.61401e-20 0.0387501 2.82898
0.01125 -1.807e-20 0.0387501 2.84236
0.0375 0 0.0149988 6.3715
-0.0375 0 0.0149988 6.5491
0.015 0 0.0375 2.97706
-0.015 0 0.0375 2.97139
0.02875 -1.807e-20 0.02875 3.79011
-0.02875 0 0.02875 3.85087
0.04 0 0.00736572 13.2986
-0.04 0 0.00736572 13.2947
0.03 0 0.0275 3.93085
0.0275 0 0.03 3.66207
-0.0275 0 0.03 3.7157
-0.03 0 0.0275 4.00303
0.0075 0 0.0400002 2.67613
-0.0075 0 0.0400002 2.6599
0.03125 -1.807e-20 0.02625 4.07644
0.02625 -3.61401e-20 0.03125 3.53822
-0.02625 0 0.03125 3.58554
-0.03125 1.807e-20 0.02625 4.16155
-0.03625 1.807e-20 0.01875 5.45811
0.03625 -1.807e-20 0.01875 5.29122
0.01875 1.807e-20 0.03625 3.10161
-0.01875 -3.61401e-20 0.03625 3.10853
0.040881 0 0 78.9769
-0.040881 -1.0842e-19 0 78.7455
0.0325 0 0.025 4.23864
0.025 0 0.0325 3.42667
-0.025 0 0.0325 3.46683
-0.0325 0 0.025 4.33797
0.03875 -1.807e-20 0.0137433 6.85505
-0.03875 -1.807e-20 0.0137433 7.03177
-0.01375 0 0.0387501 2.82726
0.01375 0 0.0387501 2.84362
0.04 0 0.00994629 9.47558
-0.04 0 0.00994629 9.57941
0.01 0 0.0400002 2.67867
-0.01 0 0.0400002 2.65703
0.04125 9.03502e-21 0.00116943 75.8002
-0.04125 -3.61401e-20 0.00116943 75.5638
0.02375 -1.807e-20 0.03375 3.3175
-0.02375 -1.807e-20 0.03375 3.3499
-0.03375 0 0.02375 4.52192
0.03375 -1.807e-20 0.02375 4.40742
0.00125 -1.807e-20 0.0412513 2.49031
-0.00125 0 0.0412513 2.48639
0.0375 0 0.0175 5.59873
0.0175 0 0.0375 2.97728
-0.0175 0 0.0375 2.97066
-0.0375 0 0.0175 5.77668
-0.04125 0 0.00356873 31.4694
0.04125 1.807e-20 0.00356872 31.733
-0.00375 0 0.0412513 2.48238
0.00375 -1.807e-20 0.0412513 2.49422
0.035 0 0.0225 4.59877
0.0225 0 0.035 3.21041
-0.0225 0 0.035 3.23075
-0.035 0 0.0225 4.72943
-0.041619 0 0 78.7445
0.041619 -5.42101e-20 0 78.9802
0.04125 0 0.00608215 16.4159
-0.04125 -1.807e-20 0.00608215 16.3384
-0.00625 -1.807e-20 0.0412513 2.47835
0.00625 -3.61401e-20 0.0412513 2.49806
0.04 0 0.0124878 7.52564
-0.04 0 0.0124878 7.69007
0.0125 0 0.0400002 2.68116
-0.0125 0 0.0400002 2.65411
0.03875 -1.807e-20 0.0162494 5.93327
-0.03875 0 0.0162494 6.12065
0.03625 0 0.02125 4.7998
0.02125 -3.61401e-20 0.03625 3.10089
-0.03625 -3.61401e-20 0.02125 4.94719
-0.02125 -3.61401e-20 0.03625 3.10873
0.01625 0 0.0387501 2.84483
-0.01625 -3.61401e-20 0.0387501 2.82549
0.04125 -1.807e-20 0.008656 10.8947
-0.04125 -1.807e-20 0.008656 10.9564
-0.00875 1.807e-20 0.0412513 2.47426
0.00875 -1.807e-20 0.0412513 2.50187
0.03 0 0.03 3.65959
-0.03 0 0.03 3.7181
0.03125 -1.807e-20 0.02875 3.7874
-0.03125 -1.807e-20 0.02875 3.85348
0.02875 -3.61401e-20 0.03125 3.53596
-0.02875 1.807e-20 0.03125 3.58776
0.0375 0 0.02 5.03514
0.02 0 0.0375 2.97746
-0.02 0 0.0375 2.96989
-0.0375 0 0.02 5.19822
-0.0425 -1.0842e-19 0 78.7433
0.0425 -1.0842e-19 0 78.9841
-1.02399e-14 0 0.0425024 2.26902
0.0425 0 0.00233886 54.3756
-0.0425 -1.0842e-19 0.00233887 54.1112
0.0325 0 0.0275 3.92781