# omega  POINT_DATA 35046
# x  y  z  omega
0 -0.000880995 1.47237e-08 78.8305
0 0.000368999 0.00116943 78.8266
0 0.00161903 1.54918e-08 78.8225
1.0842e-19 -0.00213101 0.00116943 78.8343
1.27264e-19 -0.000881009 0.00233888 54.2302
0 0.00161901 0.00233888 54.2263
1.0842e-19 0.002869 0.00116943 78.8184
0 -0.00338099 1.44485e-08 78.838
1.0842e-19 0.000368999 0.00356872 29.2361
8.27181e-25 -0.00338099 0.00233888 54.234
0 0.00411903 1.63242e-08 78.8141
1.0842e-19 -0.002131 0.00356872 29.2361
1.0842e-19 0.002869 0.00356872 29.2365
0 0.00411901 0.00233888 54.2223
-1.0842e-19 -0.004631 0.00116943 78.8418
4.1359e-25 -0.000881003 0.00479858 22.5816
-4.1359e-25 0.001619 0.00479858 22.5818
-1.0842e-19 0.005369 0.00116944 78.8098
0 -0.004631 0.00356872 29.2361
4.1359e-25 -0.003381 0.00479858 22.5815
0 -0.00588099 1.42849e-08 78.8453
1.0842e-19 0.000369 0.00608215 15.8309
0 0.004119 0.00479858 22.5821
4.09124e-21 -0.005881 0.00233887 54.2377
-1.0842e-19 -0.002131 0.00608215 15.8307
-1.0842e-19 0.005369 0.00356873 29.237
0 0.00661901 1.60129e-08 78.8055
0 0.002869 0.00608215 15.8312
0 0.00661901 0.00233888 54.2182
0 -0.007131 0.00116944 78.8488
0 -0.000881001 0.00736572 13.291
0 0.001619 0.00736572 13.2912
-1.44385e-19 -0.005881 0.00479858 22.5815
-1.0842e-19 -0.004631 0.00608215 15.8307
2.1684e-19 0.00786899 0.00116944 78.8011
-1.0842e-19 -0.007131 0.00356872 29.2363
-1.03398e-25 -0.003381 0.00736572 13.2908
-1.0842e-19 0.005369 0.00608215 15.8315
0 0.006619 0.00479858 22.5826
0 -0.00838099 4.50472e-10 78.8525
1.03398e-25 0.004119 0.00736572 13.2914
-2.1684e-19 0.007869 0.00356873 29.2376
-1.0842e-19 0.000369 0.008656 10.7466
5.65031e-20 -0.008381 0.00233887 54.2414
0 -0.002131 0.008656 10.7464
0 0.009119 1.29064e-08 78.7966
-1.0842e-19 0.002869 0.008656 10.7468
1.0842e-19 -0.007131 0.00608215 15.8307
0 0.009119 0.00233887 54.2141
-5.22573e-20 -0.005881 0.00736572 13.2908
0 -0.008381 0.00479858 22.5817
-2.1684e-19 -0.009631 0.00116943 78.8561
0 -0.004631 0.008656 10.7463
0 0.006619 0.00736572 13.2917
0 0.007869 0.00608215 15.832
0 -0.000881 0.00994629 9.51751
2.58494e-26 0.001619 0.00994629 9.51769
0 0.005369 0.00865601 10.747
0 -0.009631 0.00356872 29.2367
0 0.009119 0.00479858 22.5833
2.1684e-19 0.010369 0.00116943 78.792
-2.58494e-26 -0.003381 0.00994629 9.51736
-2.58494e-26 0.004119 0.00994629 9.51791
0 -0.010881 1.32897e-08 78.8594
0 0.010369 0.00356872 29.2385
0 -0.010881 0.00233886 54.2452
0 -0.008381 0.00736572 13.2908
-1.0842e-19 -0.007131 0.00865601 10.7463
0 0.000369 0.011217 8.29507
-1.0842e-19 -0.009631 0.00608215 15.8308
1.0842e-19 -0.002131 0.011217 8.29489
0 -0.005881 0.00994629 9.51726
-1.0842e-19 0.002869 0.011217 8.29527
0 0.011619 7.15996e-09 78.7872
-1.0842e-19 0.007869 0.008656 10.7473
0 0.009119 0.00736572 13.2922
5.74117e-20 0.011619 0.00233887 54.2098
-2.06795e-25 -0.010881 0.00479858 22.582
-2.58494e-26 0.006619 0.00994629 9.51818
1.0842e-19 0.010369 0.00608215 15.8325
0 -0.004631 0.011217 8.29476
0 -0.012131 0.00116943 78.8627
0 0.012022 0.00233887 54.2091
1.0842e-19 0.005369 0.011217 8.29551
0 -0.000881 0.0124878 7.59709
8.27181e-25 0.0125545 0 78.7835
4.03897e-28 0.011619 0.00479858 22.5841
-3.23117e-27 0.001619 0.0124878 7.5973
-2.42338e-27 0.011619 0.00491649 22.1573
2.1684e-19 -0.012131 0.00356872 29.2372
0 0.012869 0.00116944 78.7824
-4.32176e-20 -0.003381 0.0124878 7.59691
-2.1684e-19 -0.009631 0.00865601 10.7463
-7.46466e-20 -0.008381 0.00994629 9.51721
-1.03398e-25 -0.010881 0.00736572 13.2909
3.23117e-27 0.004119 0.0124878 7.59753
0 -0.007131 0.011217 8.29464
-1.0842e-19 0.012869 0.00356873 29.2396
1.65436e-24 -0.013381 1.29863e-08 78.8657
2.58494e-26 0.0112589 0.00736572 13.2926
-4.67728e-20 0.009119 0.00994629 9.51849
1.0842e-19 0.010369 0.008656 10.7477
0 -0.012131 0.00608215 15.831
0 -0.013381 0.00233886 54.2487
-2.1684e-19 0.007869 0.011217 8.29579
1.0842e-19 0.000369 0.0137433 6.90216
1.29247e-26 0.011619 0.00736572 13.2927
3.16399e-20 -0.005881 0.0124878 7.59676
1.0842e-19 -0.002131 0.0137433 6.90195
0 0.002869 0.0137433 6.90239
0 0.014119 1.19736e-08 78.7774
0 0.006619 0.0124878 7.5978
2.06795e-25 -0.013381 0.00479858 22.5824
-1.0842e-19 0.012869 0.00608215 15.8332
-9.36683e-20 0.014119 0.00233887 54.2055
1.0842e-19 -0.004631 0.0137433 6.90176
-1.0842e-19 -0.014631 0.00116943 78.8688
0 -0.010881 0.00994629 9.51718
1.0842e-19 0.005369 0.0137433 6.90266
0 -0.009631 0.011217 8.29456
-3.23117e-27 0.010999 0.00994629 9.51878
0 -0.012131 0.00865601 10.7463
2.15433e-20 0.014119 0.00479858 22.585
4.03897e-28 -0.000881 0.0149988 6.45199
0 -0.008381 0.0124878 7.59664
0 -0.014631 0.00356872 29.2378
4.03897e-28 0.001619 0.0149988 6.45224
0 -0.013381 0.00736572 13.291
0 0.010369 0.011217 8.2961
0 0.011619 0.00994629 9.51887
4.03897e-28 -0.003381 0.0149988 6.45176
0 0.015369 0.00116944 78.7725
-1.61559e-27 0.009119 0.0124878 7.5981
0 -0.007131 0.0137433 6.90159
0 0.012869 0.008656 10.7481
0 0.004119 0.0149988 6.45251
0 0.015369 0.00356873 29.241
0 0.007869 0.0137433 6.90295
0 -0.014631 0.00608215 15.8312
1.65436e-24 -0.015881 1.30339e-08 78.8717
-1.06735e-20 0.014119 0.00736572 13.2933
0 -0.015881 0.00233887 54.2519
4.03897e-28 -0.005881 0.0149988 6.45156
0 0.000369 0.0162494 6.00265
0 -0.002131 0.0162494 6.00239
0 0.006619 0.0149988 6.45281
2.1684e-19 0.002869 0.0162494 6.00294
8.07794e-28 0.010809 0.0124878 7.59833
1.0842e-19 -0.012131 0.011217 8.29451
0 0.015369 0.00608215 15.834
0 -0.010881 0.0124878 7.59655
0 -0.015881 0.00479858 22.5828
0 0.016619 1.58212e-08 78.7672
-2.58494e-26 -0.013381 0.00994629 9.51717
1.0842e-19 -0.009631 0.0137433 6.90146
5.21943e-20 0.016619 0.00233888 54.2011
1.0842e-19 -0.004631 0.0162494 6.00214
-2.1684e-19 -0.014631 0.00865601 10.7463
4.37642e-20 0.011619 0.0124878 7.59843
2.1684e-19 0.012869 0.011217 8.29645
1.0842e-19 0.005369 0.0162494 6.00325
-2.1684e-19 -0.017131 0.00116943 78.8746
-3.3645e-20 -0.008381 0.0149988 6.45138
0 0.010369 0.0137433 6.90326
2.63824e-20 0.014119 0.00994629 9.51931
6.91577e-20 0.016619 0.00479858 22.5862
0 -0.017131 0.00356872 29.2384
0 -0.015881 0.00736572 13.2911
4.89094e-29 -0.000881 0.0174897 5.68458
0 -0.000881 0.0175 5.68141
0 0.009119 0.0149988 6.45313
-1.16751e-28 0.001619 0.0174863 5.68593
-9.67102e-20 0.001619 0.0175 5.68172
1.0842e-19 0.015369 0.008656 10.7486
2.1684e-19 -0.007131 0.0162494 6.00193
-1.86171e-28 -0.003381 0.0174919 5.68363
-1.91544e-20 -0.003381 0.0175 5.68113
0 0.017869 0.00116944 78.762
5.20648e-29 0.004119 0.0174843 5.68688
0 0.004119 0.0175 5.68204
0 0.007869 0.0162494 6.00358
2.90125e-20 0.016619 0.00736572 13.294
1.0842e-19 -0.017131 0.00608215 15.8314
1.0842e-19 0.017869 0.00356873 29.2425
0 -0.013381 0.0124878 7.59648
2.1684e-19 -0.012131 0.0137433 6.90135
0 -0.018381 1.33208e-08 78.8775
5.04871e-29 0.0106331 0.0149988 6.45335
-1.0842e-19 -0.014631 0.011217 8.29449
1.15174e-28 -0.005881 0.0174922 5.68327
0 -0.005881 0.0175 5.68088
-8.52699e-20 -0.018381 0.00233887 54.2552
4.03897e-28 -0.010881 0.0149988 6.45123
5.83757e-29 0.006619 0.0174833 5.68752
0 0.006619 0.0175 5.68239
0 -0.015881 0.00994629 9.51721
1.0842e-19 0.000369 0.01875 5.36052
-1.0842e-19 0.012869 0.0137433 6.90361
-3.31687e-21 0.014119 0.0124878 7.59882
0 -0.002131 0.01875 5.3602
1.0842e-19 0.017869 0.00608215 15.835
1.0842e-19 -0.009631 0.0162494 6.00173
-1.0842e-19 0.002869 0.01875 5.36086
-1.18435e-19 0.011619 0.0149988 6.45348
0 -0.018381 0.00479858 22.5833
-1.0842e-19 0.015369 0.011217 8.29687
0 0.019119 3.72709e-09 78.7565
1.0842e-19 -0.017131 0.008656 10.7464
-7.25777e-20 0.019119 0.00233888 54.1965
0 0.010369 0.0162494 6.00393
-1.0842e-19 -0.004631 0.01875 5.3599
-1.35484e-19 0.016619 0.00994629 9.51983
-7.25752e-29 -0.008381 0.017491 5.68342
-9.67039e-20 -0.008381 0.0175 5.68065
0 0.005369 0.01875 5.36122
-1.0842e-19 -0.019631 0.00116943 78.8803
-8.36193e-29 0.009119 0.0174731 5.69106
5.37936e-20 0.019119 0.00479858 22.5876
-1.91541e-20 0.009119 0.0175 5.68276
0 -0.018381 0.00736572 13.2914
2.1684e-19 0.017869 0.00865601 10.7493
2.1684e-19 -0.019631 0.00356872 29.2392
3.28979e-21 -0.000881 0.02 5.11259
0 -0.007131 0.01875 5.35964
-9.67102e-20 0.001619 0.02 5.11295
0 -0.014631 0.0137433 6.90126
0 -0.013381 0.0149988 6.4511
-3.23117e-27 -0.015881 0.0124878 7.59644
-1.0842e-19 -0.012131 0.0162494 6.00157
8.08456e-20 -0.003381 0.02 5.11226
-1.0842e-19 0.007869 0.01875 5.36161
0 0.020369 0.00116944 78.751
-1.91544e-20 0.004119 0.02 5.11333
1.0842e-19 -0.017131 0.011217 8.2945
2.80747e-20 0.019119 0.00736572 13.2949
-1.0842e-19 -0.019631 0.00608215 15.8318
9.46633e-29 -0.010881 0.0174886 5.68396
1.06152e-19 0.014119 0.0149988 6.45388
-1.57772e-30 -0.010881 0.0175 5.68044
2.1684e-19 0.015369 0.0137433 6.90401
-1.0842e-19 0.020369 0.00356873 29.2444
1.0842e-19 0.012869 0.0162494 6.00432
3.94558e-20 0.016619 0.0124878 7.59926
-1.91544e-20 -0.005881 0.02 5.11196
0 -0.020881 1.38173e-08 78.8832
-2.58494e-26 -0.018381 0.00994629 9.51729
8.08459e-20 0.011619 0.0175 5.68315
0 -0.020881 0.00233887 54.2585
8.08456e-20 0.006619 0.02 5.11373
0 -0.009631 0.01875 5.35939
0 0.017869 0.011217 8.29736
0 0.000369 0.02125 4.86501
1.0842e-19 0.020369 0.00608215 15.8361
-1.0842e-19 -0.002131 0.02125 4.86464
-4.1359e-25 -0.020881 0.00479858 22.584
1.0842e-19 0.010369 0.01875 5.36202
0 0.002869 0.02125 4.8654
1.0842e-19 -0.019631 0.008656 10.7466
-7.74775e-20 0.019119 0.00994629 9.52045
0 0.021619 1.55288e-08 78.7452
-9.67102e-20 -0.008381 0.02 5.11168
4.75844e-20 0.021619 0.00233888 54.1919
0 -0.004631 0.02125 4.8643
-4.03897e-28 -0.015881 0.0149988 6.451
0 -0.014631 0.0162494 6.00143
1.0842e-19 0.005369 0.02125 4.86582
-1.0842e-19 -0.017131 0.0137433 6.9012
-1.91544e-20 0.009119 0.02 5.11415
7.25752e-29 -0.013381 0.0174867 5.68437
0 -0.013381 0.0175 5.68026
0 0.020369 0.008656 10.75
1.03398e-25 -0.020881 0.00736572 13.2917
2.79546e-20 0.021619 0.00479858 22.5892
-1.0842e-19 -0.022131 0.00116943 78.886
0 -0.018381 0.0124878 7.59643
-1.0842e-19 -0.012131 0.01875 5.35918
-1.0842e-19 0.015369 0.0162494 6.00474
7.83112e-20 0.016619 0.0149988 6.45432
1.0842e-19 -0.007131 0.02125 4.86398
0 -0.022131 0.00356872 29.2403
8.0838e-20 0.014119 0.0175 5.68359
-3.54881e-20 -0.000881 0.0225 4.6622
1.0842e-19 0.017869 0.0137433 6.90447
-3.54881e-20 0.001619 0.0225 4.6626
-1.0842e-19 -0.019631 0.011217 8.29455
-1.0842e-19 0.007869 0.02125 4.86626
1.0842e-19 0.012869 0.01875 5.36245
8.08456e-20 -0.003381 0.0225 4.66183
-1.91544e-20 -0.010881 0.02 5.11143
-7.59876e-20 0.019119 0.0124878 7.59978
-1.94261e-20 0.021619 0.00736572 13.2959
-9.67102e-20 0.004119 0.0225 4.66303
0 0.022869 0.00116944 78.7395
-1.0842e-19 -0.022131 0.00608215 15.8322
2.58494e-26 -0.020881 0.00994629 9.51742
1.58401e-19 0.011619 0.02 5.1146
0 0.022869 0.00356873 29.2467
-1.0842e-19 0.020369 0.011217 8.29796
-9.67102e-20 -0.005881 0.0225 4.66148
0 -0.009631 0.02125 4.86369
-3.30872e-24 -0.023381 1.45957e-08 78.8887
8.08456e-20 0.006619 0.0225 4.66348
-8.27181e-25 -0.023381 0.00233886 54.2619
0 -0.017131 0.0162494 6.00131
0 -0.015881 0.0174862 5.68436
-1.57772e-30 -0.015881 0.0175 5.68011
0 0.010369 0.02125 4.86672
-2.1684e-19 0.022869 0.00608215 15.8374
0 -0.018381 0.0149988 6.45092
0 0.000369 0.02375 4.45978
2.1684e-19 -0.022131 0.008656 10.7468
0 -0.014631 0.01875 5.35899
-1.131e-19 0.021619 0.00994629 9.52118
-1.0842e-19 -0.002131 0.02375 4.45937
-2.06795e-25 -0.023381 0.00479858 22.5847
-8.27181e-25 0.0239177 0 78.7344
1.0842e-19 0.002869 0.02375 4.46022
1.0842e-19 -0.019631 0.0137433 6.90116
8.08456e-20 -0.008381 0.0225 4.66116
-1.91544e-20 -0.013381 0.02 5.1112
0 0.024119 1.35972e-09 78.7334
2.06795e-25 0.024119 0.000601223 72.4236
1.58394e-19 0.016619 0.0175 5.68406
-1.0842e-19 0.017869 0.0162494 6.00522
0 -0.004631 0.02375 4.45899
4.30854e-20 0.024119 0.00233887 54.1871
-1.0842e-19 0.015369 0.01875 5.36293
1.58401e-19 0.009119 0.0225 4.66396
-1.11623e-19 0.019119 0.0149988 6.45482
0 -0.020881 0.0124878 7.59645
0 0.005369 0.02375 4.46068
-1.0842e-19 0.022869 0.008656 10.7509
0 -0.012131 0.02125 4.86344
-1.91544e-20 0.014119 0.02 5.11509
0 -0.023381 0.00736572 13.292
0 0.020369 0.0137433 6.905
-4.99634e-20 0.024119 0.00479858 22.5912
-1.0842e-19 -0.024631 0.00116943 78.8913
0 -0.007131 0.02375 4.45863
1.0842e-19 -0.022131 0.011217 8.29462
0 0.012869 0.02125 4.86721
0 -0.024631 0.00356872 29.2412
-1.01634e-19 0.021619 0.0124878 7.60038
1.58401e-19 -0.010881 0.0225 4.66087
-9.67102e-20 -0.000881 0.025 4.28766
0 0.007869 0.02375 4.46117
-1.13044e-19 0.001619 0.025 4.28811
-1.082e-19 0.024119 0.00736572 13.2971
1.58401e-19 -0.003381 0.025 4.28725
-4.15987e-20 0.011619 0.0225 4.66446
6.45119e-20 0.004119 0.025 4.28858
3.15544e-29 -0.018381 0.0174859 5.68431
1.0842e-19 -0.024631 0.00608215 15.8327
-3.54843e-20 -0.018381 0.0175 5.67998
1.0842e-19 0.025369 0.00116944 78.7274
1.0842e-19 -0.017131 0.01875 5.35881
0 -0.023381 0.00994629 9.51756
0 0.022869 0.011217 8.29864
0 -0.019631 0.0162494 6.00121
-9.67102e-20 -0.015881 0.02 5.111
-2.1684e-19 0.025369 0.00356872 29.2493
-1.0842e-19 -0.009631 0.02375 4.45832
-1.91544e-20 -0.005881 0.025 4.28686
2.01948e-28 -0.020881 0.0149988 6.45087
1.0842e-19 -0.014631 0.02125 4.8632
3.28979e-21 0.006619 0.025 4.28907
0 -0.025881 1.52608e-08 78.8938
0 0.017869 0.01875 5.36345
0 0.010369 0.02375 4.46168
1.58401e-19 0.019119 0.0175 5.68458
0 -0.025881 0.00233887 54.2648
1.58401e-19 0.016619 0.02 5.11561
1.0842e-19 -0.022131 0.0137433 6.90115
0 0.020369 0.0162494 6.00575
1.0842e-19 0.025369 0.00608215 15.8391
-4.7036e-20 0.024119 0.00994629 9.52204
1.0842e-19 -0.024631 0.008656 10.747
-9.67102e-20 -0.013381 0.0225 4.6606
-1.0842e-19 0.015369 0.02125 4.86774
0 0.000369 0.02625 4.11597
6.84855e-20 0.021619 0.0149988 6.45538
2.06795e-25 -0.025881 0.00479858 22.5854
0 -0.002131 0.02625 4.11552
8.08456e-20 -0.008381 0.025 4.2865
0 0.002869 0.02625 4.11645
0 -0.023381 0.0124878 7.59649
5.84013e-20 0.014119 0.0225 4.665
1.58401e-19 0.009119 0.025 4.2896
-8.27181e-25 0.026619 5.1449e-09 78.721
0 -0.004631 0.02625 4.1151
-1.0842e-19 -0.012131 0.02375 4.45802
1.0842e-19 0.022869 0.0137433 6.9056
-1.03398e-25 0.026619 0.00201018 57.6308
4.85149e-20 0.026619 0.00233887 54.1822
1.0842e-19 0.005369 0.02625 4.11695
0 0.025369 0.008656 10.752
-1.03398e-25 -0.025881 0.00736572 13.2924
0 0.012869 0.02375 4.46223
1.16051e-19 0.026619 0.00479858 22.5934
-2.1684e-19 -0.024631 0.011217 8.29471
-1.0842e-19 -0.019631 0.01875 5.35867
-1.0842e-19 -0.027131 0.00116943 78.8962
-1.22885e-19 0.024119 0.0124878 7.60107
3.28979e-21 -0.018381 0.02 5.11082
0 -0.007131 0.02625 4.11471
2.68213e-29 -0.020881 0.0174849 5.68453
1.57772e-30 -0.020881 0.0175 5.67987
-1.91544e-20 -0.010881 0.025 4.28618
0 -0.017131 0.02125 4.86299
-1.0842e-19 -0.027131 0.00356872 29.2422
0 0.007869 0.02625 4.11749
-1.0842e-19 -0.022131 0.0162494 6.00114
-9.67102e-20 -0.000881 0.0275 3.96685
-9.67102e-20 -0.015881 0.0225 4.66036
-9.67102e-20 0.001619 0.0275 3.96732
-4.15987e-20 0.011619 0.025 4.29015
4.76561e-20 0.026619 0.00736572 13.2985
-1.91544e-20 0.019119 0.02 5.11618
-1.0842e-19 0.020369 0.01875 5.36401
8.08456e-20 -0.003381 0.0275 3.9664
0 -0.025881 0.00994629 9.51775
0 0.025369 0.011217 8.29943
-1.03398e-25 0.0276625 0.00233887 54.1802
0 0.017869 0.02125 4.86831
0 -0.023381 0.0149988 6.45084
0 -0.027131 0.00608215 15.8332
8.08456e-20 0.004119 0.0275 3.96783
8.08353e-20 0.021619 0.0175 5.68516
-1.0842e-19 0.027869 0.00116944 78.7146
1.0842e-19 -0.014631 0.02375 4.45775
-1.0842e-19 -0.009631 0.02625 4.11435
-1.91544e-20 0.016619 0.0225 4.66557
-1.0842e-19 0.022869 0.0162494 6.00635
-1.0842e-19 0.027869 0.00356872 29.2522
-1.91544e-20 -0.005881 0.0275 3.96599
0 -0.024631 0.0137433 6.90117
0 0.010369 0.02625 4.11805
-1.91544e-20 0.006619 0.0275 3.96836
0 0.015369 0.02375 4.46281
8.08456e-20 -0.013381 0.025 4.28588
3.30872e-24 -0.028381 1.56354e-08 78.8986
3.69431e-20 0.024119 0.0149988 6.45602
-6.0395e-20 0.026619 0.00994629 9.52301
-9.03e-20 -0.028381 0.00233888 54.2678
-2.1684e-19 -0.027131 0.008656 10.7473
1.0842e-19 0.027869 0.00608215 15.8408
5.84013e-20 0.014119 0.025 4.29074
3.23117e-27 -0.025881 0.0124878 7.59656
8.08456e-20 -0.008381 0.0275 3.96561
0 0.000369 0.02875 3.81819
5.32301e-20 -0.028381 0.00479858 22.5862
-1.0842e-19 -0.002131 0.02875 3.81772
1.0842e-19 0.025369 0.0137433 6.90629
0 0.002869 0.02875 3.81869
8.08456e-20 -0.020881 0.02 5.11067
0 -0.012131 0.02625 4.11402
-1.0842e-19 -0.019631 0.02125 4.8628
3.28979e-21 0.009119 0.0275 3.96892
0 -0.022131 0.01875 5.35855
-1.91544e-20 -0.018381 0.0225 4.66014
-1.65436e-24 0.029119 8.18133e-09 78.708
-1.0842e-19 -0.004631 0.02875 3.81728
0 0.027869 0.008656 10.7531
-7.41529e-29 -0.023381 0.0174821 5.68528
-1.91512e-20 -0.023381 0.0175 5.67978
-2.06795e-25 0.029119 0.00233887 54.1773
0 0.012869 0.02625 4.11864
0 0.005369 0.02875 3.81922
0 -0.017131 0.02375 4.4575
0 -0.028381 0.00736572 13.2928
0 -0.027131 0.011217 8.29485
-3.55229e-20 0.026619 0.0124878 7.60185
0 0.020369 0.02125 4.86893
-1.91544e-20 0.021619 0.02 5.11679
6.13923e-26 0.0290996 0.00479858 22.5959
0 -0.024631 0.0162494 6.00109
-1.09497e-20 0.029119 0.00479858 22.5959
-1.91544e-20 0.019119 0.0225 4.66619
-8.07794e-28 0.029119 0.00495435 22.0319
-1.0842e-19 0.022869 0.01875 5.36464
8.08456e-20 -0.010881 0.0275 3.96526
8.08456e-20 -0.015881 0.025 4.2856
0 -0.007131 0.02875 3.81687
0 -0.029631 0.00116943 78.901
0 0.017869 0.02375 4.46342
1.58393e-19 0.024119 0.0175 5.6858
0 0.007869 0.02875 3.81977
0 -0.029631 0.00356872 29.2432
8.08456e-20 0.011619 0.0275 3.9695
0 -0.025881 0.0149988 6.45084
-3.54881e-20 -0.000881 0.03 3.68888
5.84013e-20 0.016619 0.025 4.29136
0 0.029119 0.00736572 13.3001
-1.0842e-19 0.027869 0.011217 8.30031
8.08456e-20 0.001619 0.03 3.68934
1.0842e-19 -0.014631 0.02625 4.11371
1.29247e-26 -0.028381 0.00994629 9.51797
-1.0842e-19 0.025369 0.0162494 6.00701
6.45119e-20 -0.003381 0.03 3.68844
0 -0.029631 0.00608215 15.8338
8.08456e-20 0.004119 0.03 3.68983
-1.0842e-19 -0.009631 0.02875 3.8165
0 0.030369 0.00116944 78.7014
1.0842e-19 -0.027131 0.0137433 6.90121
0 0.015369 0.02625 4.11926
3.47103e-20 0.026619 0.0149988 6.45673
1.0842e-19 0.010369 0.02875 3.82036
6.45119e-20 -0.005881 0.03 3.68804
0 0.030369 0.00356872 29.2555
5.84013e-20 -0.013381 0.0275 3.96493
0 -0.022131 0.02125 4.86264
1.58401e-19 -0.020881 0.0225 4.65995
3.28979e-21 0.006619 0.03 3.69035
-1.91544e-20 -0.023381 0.02 5.11053
0 0.029119 0.00994629 9.52408
-1.0842e-19 -0.019631 0.02375 4.45728
0 -0.029631 0.008656 10.7476
0 -0.030881 1.5949e-08 78.9033
5.84013e-20 0.014119 0.0275 3.97012
0 -0.024631 0.01875 5.35845
0 -0.030881 0.00233888 54.2707
1.0842e-19 0.030369 0.00608215 15.8427
0 -0.028381 0.0124878 7.59666
-1.91544e-20 -0.018381 0.025 4.28535
0 0.027869 0.0137433 6.90705
3.28979e-21 -0.008381 0.03 3.68767
-1.91544e-20 0.021619 0.0225 4.66685
-1.0842e-19 -0.012131 0.02875 3.81615
0 0.022869 0.02125 4.86959
1.21485e-28 -0.025881 0.0174764 5.687
8.08456e-20 -0.025881 0.0175 5.67972
0 -0.030881 0.00479858 22.5871
1.0842e-19 0.000369 0.03125 3.56001
0 0.020369 0.02375 4.46409
0 -0.002131 0.03125 3.55959
8.08456e-20 0.024119 0.02 5.11746
-1.0842e-19 -0.017131 0.02625 4.11344
1.9387e-26 0.0304751 0.00736572 13.301
3.28979e-21 0.009119 0.03 3.69089
-1.0842e-19 0.002869 0.03125 3.56047
5.84013e-20 0.019119 0.025 4.29202
1.0842e-19 0.012869 0.02875 3.82097
0 0.025369 0.01875 5.36532
-1.0842e-19 0.030369 0.008656 10.7544
1.0842e-19 -0.004631 0.03125 3.55919
-1.65436e-24 0.031619 9.51851e-09 78.6945
0 -0.027131 0.0162494 6.00107
-1.0842e-19 -0.029631 0.011217 8.29501
1.12206e-19 0.029119 0.0124878 7.60271
9.40707e-20 0.031619 0.00233887 54.1722
1.0842e-19 0.005369 0.03125 3.56094
0 -0.030881 0.00736572 13.2932
0 0.017869 0.02625 4.11993
5.84013e-20 -0.015881 0.0275 3.96463
8.08393e-20 0.026619 0.0175 5.68651
1.58401e-19 -0.010881 0.03 3.68732
5.63731e-20 0.031619 0.00479858 22.5987
1.0842e-19 -0.007131 0.03125 3.55882
0 -0.028381 0.0149988 6.45086
1.58401e-19 0.016619 0.0275 3.97078
0 -0.032131 0.00116943 78.9056
1.58401e-19 0.011619 0.03 3.69147
-1.0842e-19 0.007869 0.03125 3.56145
0 -0.014631 0.02875 3.81583
-1.0842e-19 0.027869 0.0162494 6.00774
0 -0.032131 0.00356872 29.2444
-1.0842e-19 0.030369 0.011217 8.30127
0 -0.030881 0.00994629 9.51821
5.84013e-20 -0.023381 0.0225 4.65977
-1.0842e-19 -0.022131 0.02375 4.45707
0 0.031619 0.00736572 13.3018
-9.67102e-20 -0.000881 0.0325 3.44701
-1.0842e-19 -0.024631 0.02125 4.86249
8.08456e-20 0.001619 0.0325 3.44743
5.84013e-20 -0.020881 0.025 4.28512
-1.0842e-19 0.015369 0.02875 3.82162
-1.0842e-19 -0.029631 0.0137433 6.90128
-1.13044e-19 -0.003381 0.0325 3.44661
0 -0.009631 0.03125 3.55848
2.1684e-19 -0.032131 0.00608215 15.8344
0 0.0311547 0.00994629 9.52503
-1.91544e-20 -0.025881 0.02 5.11041
-4.00585e-20 0.029119 0.0149988 6.45751
8.08456e-20 0.004119 0.0325 3.44788
0 -0.019631 0.02625 4.11318
-4.15987e-20 -0.013381 0.03 3.68701
-2.1684e-19 0.032869 0.00116944 78.6876
-1.0842e-19 0.010369 0.03125 3.56198
0 0.022869 0.02375 4.46479
0 -0.027131 0.01875 5.35836
1.58401e-19 0.024119 0.0225 4.66756
-1.30438e-20 -0.005881 0.0325 3.44624
5.84013e-20 0.021619 0.025 4.29273
1.0842e-19 0.032869 0.00356872 29.2592
0 -0.018381 0.0275 3.96435
0 0.025369 0.02125 4.87031
0 0.031619 0.00994629 9.52525
-4.15987e-20 0.014119 0.03 3.69207
8.08456e-20 0.006619 0.0325 3.44835
0 0.020369 0.02625 4.12064
0 -0.032131 0.008656 10.7479
-3.54881e-20 0.026619 0.02 5.11819
0 -0.030881 0.0124878 7.5968
5.6798e-29 -0.028381 0.0174652 5.69039
1.0842e-19 0.030369 0.0137433 6.90788
1.57772e-30 -0.028381 0.0175 5.67967
0 -0.033381 1.52992e-08 78.9078
1.0842e-19 0.032869 0.00608215 15.8449
0 -0.033381 0.00233888 54.2736
-1.0842e-19 -0.017131 0.02875 3.81553
5.84013e-20 0.019119 0.0275 3.97148
-1.0842e-19 -0.012131 0.03125 3.55817
6.45119e-20 -0.008381 0.0325 3.4459
0 0.027869 0.01875 5.36605
0 -0.033381 0.00479858 22.588
1.0842e-19 0.000369 0.03375 3.33441
-1.91544e-20 0.009119 0.0325 3.44886
0 -0.029631 0.0162494 6.00107
0 0.012869 0.03125 3.56255
1.0842e-19 -0.002131 0.03375 3.33401
-1.0842e-19 0.017869 0.02875 3.82231
-1.0842e-19 0.002869 0.03375 3.33483
-5.04871e-29 0.0315631 0.0124878 7.60362
-1.91544e-20 -0.015881 0.03 3.68671
-9.67102e-20 0.029119 0.0175 5.68727
0 0.032869 0.00865601 10.7558
0 0.031619 0.0124878 7.60365
-1.0842e-19 -0.032131 0.011217 8.29521
0 -0.004631 0.03375 3.33364
0 0.034119 8.73377e-09 78.6804
1.0842e-19 0.005369 0.03375 3.33527
0 -0.033381 0.00736572 13.2937
0 0.034119 0.00233887 54.167
-1.0842e-19 -0.024631 0.02375 4.45688
-4.15987e-20 -0.023381 0.025 4.2849
8.08456e-20 -0.010881 0.0325 3.44559
-1.91544e-20 -0.025881 0.0225 4.65961
1.58401e-19 0.016619 0.03 3.69271
5.04871e-29 -0.030881 0.0149988 6.45091
-1.0842e-19 -0.022131 0.02625 4.11293
0 0.030369 0.0162494 6.00852
0 0.034119 0.00479858 22.6018
0 -0.027131 0.02125 4.86235
1.0842e-19 -0.007131 0.03375 3.33331
-1.0842e-19 -0.014631 0.03125 3.55788
1.58401e-19 0.011619 0.0325 3.44939
8.08456e-20 -0.020881 0.0275 3.96408
2.1684e-19 -0.034631 0.00116944 78.91
0 0.007869 0.03375 3.33574
-1.26218e-29 0.031619 0.0142466 6.80145
-1.91544e-20 -0.028381 0.02 5.11032
2.1684e-19 0.032869 0.011217 8.30234
5.84013e-20 0.024119 0.025 4.29349
-1.0842e-19 0.025369 0.02375 4.46555
1.0842e-19 -0.019631 0.02875 3.81524
0 -0.034631 0.00356872 29.2456
-1.0842e-19 0.022869 0.02625 4.1214
0 0.015369 0.03125 3.56314
0 -0.033381 0.00994629 9.51849
3.28979e-21 0.026619 0.0225 4.66833
-2.58494e-26 0.034119 0.00736572 13.3036
1.0842e-19 -0.032131 0.0137433 6.90138
1.58401e-19 0.021619 0.0275 3.97223
-4.38726e-20 0.031619 0.0149988 6.45834
-9.67102e-20 -0.000881 0.035 3.22136
-1.91544e-20 0.001619 0.035 3.22179
1.0842e-19 0.027869 0.02125 4.87108
1.0842e-19 -0.029631 0.01875 5.3583
0 -0.009631 0.03375 3.33299
-1.91544e-20 -0.013381 0.0325 3.44529
-1.0842e-19 -0.034631 0.00608215 15.835
6.45119e-20 -0.003381 0.035 3.22095
2.52435e-29 -0.031818 0.0149988 6.45094
-1.57772e-30 -0.018381 0.03 3.68643
0 0.020369 0.02875 3.82304
1.58401e-19 0.004119 0.035 3.22224
0 0.010369 0.03375 3.33624
-3.54881e-20 0.029119 0.02 5.11897
-2.52435e-29 0.0320461 0.0149988 6.4585
-1.0842e-19 0.035369 0.00116944 78.6732
-4.15987e-20 0.014119 0.0325 3.44994
-3.15544e-30 -0.030881 0.0174159 5.70559
-1.30438e-20 -0.005881 0.035 3.22058
-1.91534e-20 -0.030881 0.0175 5.67965
0 0.034119 0.00994629 9.52652
1.0842e-19 0.035369 0.00356872 29.2633
8.08456e-20 0.019119 0.03 3.69339
1.65436e-24 0.0355748 0 78.6719
8.08456e-20 0.006619 0.035 3.22273
1.0842e-19 0.032869 0.0137433 6.90878
0 -0.017131 0.03125 3.5576
0 -0.033381 0.0124878 7.59696
0 0.030369 0.01875 5.36685
0 -0.034631 0.008656 10.7483
1.00974e-28 -0.0335264 0.0124878 7.59697
1.0842e-19 -0.012131 0.03375 3.3327
0 -0.035881 1.26451e-08 78.9121
-1.0842e-19 0.035369 0.00608215 15.8473
0 -0.035881 0.00233887 54.2764
5.84013e-20 -0.025881 0.025 4.2847
-3.54881e-20 -0.008381 0.035 3.22023
0 -0.024631 0.02625 4.1127
0 0.017869 0.03125 3.56377
1.0842e-19 -0.032131 0.0162494 6.00109
1.0842e-19 -0.027131 0.02375 4.4567
-1.91544e-20 -0.023381 0.0275 3.96384
0 0.012869 0.03375 3.33676
-3.54895e-20 0.031619 0.0175 5.68808
-5.04871e-29 -0.033381 0.0139009 6.95203
3.28979e-21 0.009119 0.035 3.22324
8.08456e-20 -0.015881 0.0325 3.44502
0 -0.035881 0.00479858 22.5889
-1.91544e-20 -0.028381 0.0225 4.65946
-1.0842e-19 0.000369 0.03625 3.10872
0 -0.022131 0.02875 3.81498
-1.0842e-19 -0.002131 0.03625 3.10828
0 0.034119 0.0124878 7.60466
0 0.002869 0.03625 3.10919
1.0842e-19 -0.034631 0.011217 8.29544
1.0842e-19 0.035369 0.008656 10.7574
-1.0842e-19 -0.029631 0.02125 4.86224
-4.15987e-20 0.016619 0.0325 3.45054
-1.0842e-19 0.025369 0.02625 4.1222
8.08456e-20 0.026619 0.025 4.29429
0 -0.004631 0.03625 3.10787
8.08456e-20 -0.020881 0.03 3.68617
-1.91544e-20 0.024119 0.0275 3.97302
1.1385e-19 -0.033381 0.0149988 6.45099
1.0842e-19 0.027869 0.02375 4.46636
0 0.036619 6.26428e-09 78.6657
0 -0.035881 0.00736572 13.2942
0 0.005369 0.03625 3.10968
-9.67102e-20 -0.010881 0.035 3.21991
0 0.032869 0.0162494 6.00937
0 0.0365979 0.00233887 54.1618
1.61559e-27 0.036619 0.00233887 54.1618
-1.29247e-26 0.036619 0.00246721 52.5152
0 0.022869 0.02875 3.82382
0 -0.014631 0.03375 3.33242
-1.91544e-20 -0.030881 0.02 5.11024
6.45119e-20 0.029119 0.0225 4.66914
-4.84676e-27 -0.0354682 0.00994629 9.51878
-3.54881e-20 0.011619 0.035 3.22377
1.0842e-19 -0.019631 0.03125 3.55735
0 0.036619 0.00479858 22.6052
0 -0.007131 0.03625 3.10749
-9.67102e-20 0.021619 0.03 3.69412
0 0.030369 0.02125 4.8719
-1.0842e-19 0.015369 0.03375 3.33732
0 0.007869 0.03625 3.1102
-1.0842e-19 0.035369 0.011217 8.30348
0 -0.037131 0.00116943 78.9142
0 -0.035881 0.00981197 9.71534
0 -0.032131 0.01875 5.35826
0 -0.035881 0.00994629 9.51883
0 -0.034631 0.0137433 6.90151
1.00974e-28 0.034119 0.0149988 6.45924
1.0842e-19 -0.037131 0.00356872 29.2469
-1.0842e-19 0.020369 0.03125 3.56444
-1.57772e-30 -0.018381 0.0325 3.44476
0 0.036619 0.00736572 13.3057
-1.30438e-20 0.031619 0.02 5.1198
-1.91544e-20 -0.013381 0.035 3.2196
-1.0842e-19 -0.009631 0.03625 3.10713
-3.54881e-20 -0.000881 0.0375 2.97476
8.08456e-20 0.001619 0.0375 2.97527
2.1684e-19 -0.037131 0.00608215 15.8357
6.45119e-20 -0.003381 0.0375 2.97428
1.58399e-19 -0.033381 0.0175 5.67965
0 0.010369 0.03625 3.11075
1.58401e-19 0.019119 0.0325 3.45117
-1.91544e-20 0.004119 0.0375 2.97581
-1.57772e-30 0.014119 0.035 3.22434
0 -0.027131 0.02625 4.11249
-4.1359e-25 -0.0377563 0 78.9153
-1.91544e-20 -0.025881 0.0275 3.9636
8.08456e-20 -0.028381 0.025 4.28451
1.0842e-19 0.032869 0.01875 5.36769
0 -0.017131 0.03375 3.33217
0 -0.024631 0.02875 3.81473
-1.0842e-19 0.037869 0.00116944 78.6583
0 0.035369 0.0137433 6.90973
-6.46235e-27 0.036619 0.00994629 9.52792
6.45119e-20 -0.005881 0.0375 2.97383
1.0842e-19 -0.029631 0.02375 4.45654
-3.01219e-20 -0.035881 0.0124878 7.59716
8.08456e-20 -0.023381 0.03 3.68592
1.0842e-19 0.037869 0.00356872 29.2679
-1.91544e-20 0.006619 0.0375 2.97638
0 -0.037131 0.008656 10.7488
0 0.017869 0.03375 3.33791
-1.91544e-20 -0.030881 0.0225 4.65932
1.0842e-19 -0.012131 0.03625 3.1068
-1.0842e-19 -0.034631 0.0162494 6.00114
-1.91544e-20 0.026619 0.0275 3.97386
1.0842e-19 0.027869 0.02625 4.12306
-1.0842e-19 -0.022131 0.03125 3.5571
-1.73549e-29 0.034119 0.0174571 5.70216
-1.0842e-19 0.025369 0.02875 3.82465
0 0.034119 0.0175 5.68895
-1.0842e-19 0.037869 0.00608215 15.8498
3.28979e-21 0.029119 0.025 4.29515
0 -0.038381 4.21191e-09 78.9163
0 -0.038381 0.00181873 59.7582
-3.54881e-20 -0.008381 0.0375 2.9734
1.58401e-19 -0.015881 0.035 3.21931
-5.84829e-20 -0.038381 0.00233887 54.2791
0 0.012869 0.03625 3.11133
-9.67102e-20 0.024119 0.03 3.69489
0 -0.032131 0.02125 4.86213
0 0.030369 0.02375 4.46721
8.08456e-20 0.009119 0.0375 2.97699
-9.67102e-20 -0.020881 0.0325 3.44452
5.07265e-20 -0.038381 0.00479858 22.59
0 0.036619 0.0124878 7.60574
0 0.022869 0.03125 3.56516
0 0.016619 0.035 3.22494
0 0.000369 0.0387501 2.84129
1.0842e-19 -0.037131 0.011217 8.29571
3.28979e-21 0.031619 0.0225 4.67
0 -0.002131 0.0387501 2.84073
-1.0842e-19 0.037869 0.008656 10.7591
1.0842e-19 0.002869 0.0387501 2.84187
-7.67444e-20 -0.035881 0.0149988 6.45109
-1.91544e-20 -0.033381 0.02 5.11017
0 0.035369 0.0162494 6.01026
0 -0.004631 0.0387501 2.84022
-9.67102e-20 0.021619 0.0325 3.45183
-1.0842e-19 -0.019631 0.03375 3.33192
8.08456e-20 -0.010881 0.0375 2.973
0 -0.038381 0.00736572 13.2948
-1.0842e-19 -0.014631 0.03625 3.10647
0 0.039119 6.81623e-09 78.6505
-1.0842e-19 0.005369 0.0387501 2.8425
0 0.032869 0.02125 4.87276
8.12828e-20 0.039119 0.00233887 54.1564
-3.54881e-20 0.011619 0.0375 2.97762
-1.29247e-26 0.039006 0.00479858 22.6088
1.0842e-19 0.015369 0.03625 3.11195
0 -0.038381 0.00881812 11.1698
0 -0.034631 0.01875 5.35823
0 -0.007131 0.0387501 2.83972
-8.89767e-20 0.039119 0.00479858 22.6089
-1.0842e-19 0.020369 0.03375 3.33854
0 0.037869 0.011217 8.3047
3.28979e-21 -0.028381 0.0275 3.96338
-1.0842e-19 -0.027131 0.02875 3.81449
1.58401e-19 -0.018381 0.035 3.21903
1.0842e-19 0.007869 0.0387501 2.84315
-3.54881e-20 0.034119 0.02 5.12067
0 0.036619 0.0149988 6.46019
-1.0842e-19 -0.029631 0.02625 4.11228
0 -0.037131 0.0137433 6.90167
0 0.039119 0.00614416 17.7338