# p  POINT_DATA 35046
# x  y  z  p
0 -0.000880995 1.47237e-08 0.00540609
0 0.000368999 0.00116943 0.00540779
0 0.00161903 1.54918e-08 0.00540953
1.0842e-19 -0.00213101 0.00116943 0.0054044
1.27264e-19 -0.000881009 0.00233888 0.00540613
0 0.00161901 0.00233888 0.00540957
1.0842e-19 0.002869 0.00116943 0.00541128
0 -0.00338099 1.44485e-08 0.00540274
1.0842e-19 0.000368999 0.00356872 0.00540787
8.27181e-25 -0.00338099 0.00233888 0.00540278
0 0.00411903 1.63242e-08 0.00541306
1.0842e-19 -0.002131 0.00356872 0.00540447
1.0842e-19 0.002869 0.00356872 0.00541135
0 0.00411901 0.00233888 0.0054131
-1.0842e-19 -0.004631 0.00116943 0.00540109
4.1359e-25 -0.000881003 0.00479858 0.00540616
-4.1359e-25 0.001619 0.00479858 0.0054096
-1.0842e-19 0.005369 0.00116944 0.00541485
0 -0.004631 0.00356872 0.00540116
4.1359e-25 -0.003381 0.00479858 0.0054028
0 -0.00588099 1.42849e-08 0.00539947
1.0842e-19 0.000369 0.00608215 0.00540784
0 0.004119 0.00479858 0.00541313
4.09124e-21 -0.005881 0.00233887 0.00539951
-1.0842e-19 -0.002131 0.00608215 0.00540445
-1.0842e-19 0.005369 0.00356873 0.00541493
0 0.00661901 1.60129e-08 0.00541668
0 0.002869 0.00608215 0.00541133
0 0.00661901 0.00233888 0.00541672
0 -0.007131 0.00116944 0.00539786
0 -0.000881001 0.00736572 0.00540611
0 0.001619 0.00736572 0.00540955
-1.44385e-19 -0.005881 0.00479858 0.00539953
-1.0842e-19 -0.004631 0.00608215 0.00540113
2.1684e-19 0.00786899 0.00116944 0.00541852
-1.0842e-19 -0.007131 0.00356872 0.00539794
-1.03398e-25 -0.003381 0.00736572 0.00540276
-1.0842e-19 0.005369 0.00608215 0.0054149
0 0.006619 0.00479858 0.00541675
0 -0.00838099 4.50472e-10 0.00539629
1.03398e-25 0.004119 0.00736572 0.00541308
-2.1684e-19 0.007869 0.00356873 0.0054186
-1.0842e-19 0.000369 0.008656 0.00540777
5.65031e-20 -0.008381 0.00233887 0.00539632
0 -0.002131 0.008656 0.00540438
0 0.009119 1.29064e-08 0.0054204
-1.0842e-19 0.002869 0.008656 0.00541126
1.0842e-19 -0.007131 0.00608215 0.00539791
0 0.009119 0.00233887 0.00542044
-5.22573e-20 -0.005881 0.00736572 0.00539949
0 -0.008381 0.00479858 0.00539635
-2.1684e-19 -0.009631 0.00116943 0.00539472
0 -0.004631 0.008656 0.00540107
0 0.006619 0.00736572 0.0054167
0 0.007869 0.00608215 0.00541857
0 -0.000881 0.00994629 0.00540602
2.58494e-26 0.001619 0.00994629 0.00540946
0 0.005369 0.00865601 0.00541483
0 -0.009631 0.00356872 0.00539479
0 0.009119 0.00479858 0.00542047
2.1684e-19 0.010369 0.00116943 0.00542228
-2.58494e-26 -0.003381 0.00994629 0.00540267
-2.58494e-26 0.004119 0.00994629 0.00541299
0 -0.010881 1.32897e-08 0.00539319
0 0.010369 0.00356872 0.00542237
0 -0.010881 0.00233886 0.00539322
0 -0.008381 0.00736572 0.00539631
-1.0842e-19 -0.007131 0.00865601 0.00539785
0 0.000369 0.011217 0.00540767
-1.0842e-19 -0.009631 0.00608215 0.00539477
1.0842e-19 -0.002131 0.011217 0.00540428
0 -0.005881 0.00994629 0.00539941
-1.0842e-19 0.002869 0.011217 0.00541115
0 0.011619 7.15996e-09 0.00542421
-1.0842e-19 0.007869 0.008656 0.0054185
0 0.009119 0.00736572 0.00542042
5.74117e-20 0.011619 0.00233887 0.00542425
-2.06795e-25 -0.010881 0.00479858 0.00539325
-2.58494e-26 0.006619 0.00994629 0.00541661
1.0842e-19 0.010369 0.00608215 0.00542234
0 -0.004631 0.011217 0.00540097
0 -0.012131 0.00116943 0.00539166
0 0.012022 0.00233887 0.00542488
1.0842e-19 0.005369 0.011217 0.00541472
0 -0.000881 0.0124878 0.00540592
8.27181e-25 0.0125545 0 0.00542567
4.03897e-28 0.011619 0.00479858 0.00542428
-3.23117e-27 0.001619 0.0124878 0.00540936
-2.42338e-27 0.011619 0.00491649 0.00542428
2.1684e-19 -0.012131 0.00356872 0.00539173
0 0.012869 0.00116944 0.00542614
-4.32176e-20 -0.003381 0.0124878 0.00540258
-2.1684e-19 -0.009631 0.00865601 0.00539471
-7.46466e-20 -0.008381 0.00994629 0.00539623
-1.03398e-25 -0.010881 0.00736572 0.0053932
3.23117e-27 0.004119 0.0124878 0.00541288
0 -0.007131 0.011217 0.00539776
-1.0842e-19 0.012869 0.00356873 0.00542623
1.65436e-24 -0.013381 1.29863e-08 0.00539016
2.58494e-26 0.0112589 0.00736572 0.00542368
-4.67728e-20 0.009119 0.00994629 0.00542032
1.0842e-19 0.010369 0.008656 0.00542226
0 -0.012131 0.00608215 0.0053917
0 -0.013381 0.00233886 0.0053902
-2.1684e-19 0.007869 0.011217 0.00541838
1.0842e-19 0.000369 0.0137433 0.00540757
1.29247e-26 0.011619 0.00736572 0.00542423
3.16399e-20 -0.005881 0.0124878 0.00539932
1.0842e-19 -0.002131 0.0137433 0.00540419
0 0.002869 0.0137433 0.00541104
0 0.014119 1.19736e-08 0.00542812
0 0.006619 0.0124878 0.00541649
2.06795e-25 -0.013381 0.00479858 0.00539022
-1.0842e-19 0.012869 0.00608215 0.0054262
-9.36683e-20 0.014119 0.00233887 0.00542817
1.0842e-19 -0.004631 0.0137433 0.00540089
-1.0842e-19 -0.014631 0.00116943 0.00538867
0 -0.010881 0.00994629 0.00539313
1.0842e-19 0.005369 0.0137433 0.00541461
0 -0.009631 0.011217 0.00539461
-3.23117e-27 0.010999 0.00994629 0.00542318
0 -0.012131 0.00865601 0.00539165
2.15433e-20 0.014119 0.00479858 0.0054282
4.03897e-28 -0.000881 0.0149988 0.00540583
0 -0.008381 0.0124878 0.00539614
0 -0.014631 0.00356872 0.00538874
4.03897e-28 0.001619 0.0149988 0.00540925
0 -0.013381 0.00736572 0.00539018
0 0.010369 0.011217 0.00542214
0 0.011619 0.00994629 0.00542413
4.03897e-28 -0.003381 0.0149988 0.00540249
0 0.015369 0.00116944 0.0054301
-1.61559e-27 0.009119 0.0124878 0.0054202
0 -0.007131 0.0137433 0.00539767
0 0.012869 0.008656 0.00542612
0 0.004119 0.0149988 0.00541277
0 0.015369 0.00356873 0.00543019
0 0.007869 0.0137433 0.00541826
0 -0.014631 0.00608215 0.00538871
1.65436e-24 -0.015881 1.30339e-08 0.00538722
-1.06735e-20 0.014119 0.00736572 0.00542814
0 -0.015881 0.00233887 0.00538725
4.03897e-28 -0.005881 0.0149988 0.00539924
0 0.000369 0.0162494 0.00540747
0 -0.002131 0.0162494 0.0054041
0 0.006619 0.0149988 0.00541637
2.1684e-19 0.002869 0.0162494 0.00541094
8.07794e-28 0.010809 0.0124878 0.00542277
1.0842e-19 -0.012131 0.011217 0.00539156
0 0.015369 0.00608215 0.00543016
0 -0.010881 0.0124878 0.00539304
0 -0.015881 0.00479858 0.00538727
0 0.016619 1.58212e-08 0.00543213
-2.58494e-26 -0.013381 0.00994629 0.00539011
1.0842e-19 -0.009631 0.0137433 0.00539454
5.21943e-20 0.016619 0.00233888 0.00543218
1.0842e-19 -0.004631 0.0162494 0.0054008
-2.1684e-19 -0.014631 0.00865601 0.00538866
4.37642e-20 0.011619 0.0124878 0.005424
2.1684e-19 0.012869 0.011217 0.00542599
1.0842e-19 0.005369 0.0162494 0.00541449
-2.1684e-19 -0.017131 0.00116943 0.00538577
-3.3645e-20 -0.008381 0.0149988 0.00539606
0 0.010369 0.0137433 0.00542201
2.63824e-20 0.014119 0.00994629 0.00542803
6.91577e-20 0.016619 0.00479858 0.00543221
0 -0.017131 0.00356872 0.00538583
0 -0.015881 0.00736572 0.00538723
4.89094e-29 -0.000881 0.0174897 0.00540573
0 -0.000881 0.0175 0.00540573
0 0.009119 0.0149988 0.00542007
-1.16751e-28 0.001619 0.0174863 0.00540915
-9.67102e-20 0.001619 0.0175 0.00540915
1.0842e-19 0.015369 0.008656 0.00543008
2.1684e-19 -0.007131 0.0162494 0.00539759
-1.86171e-28 -0.003381 0.0174919 0.0054024
-1.91544e-20 -0.003381 0.0175 0.0054024
0 0.017869 0.00116944 0.00543416
5.20648e-29 0.004119 0.0174843 0.00541265
0 0.004119 0.0175 0.00541265
0 0.007869 0.0162494 0.00541814
2.90125e-20 0.016619 0.00736572 0.00543216
1.0842e-19 -0.017131 0.00608215 0.0053858
1.0842e-19 0.017869 0.00356873 0.00543426
0 -0.013381 0.0124878 0.00539003
2.1684e-19 -0.012131 0.0137433 0.00539148
0 -0.018381 1.33208e-08 0.00538435
5.04871e-29 0.0106331 0.0149988 0.00542237
-1.0842e-19 -0.014631 0.011217 0.00538857
1.15174e-28 -0.005881 0.0174922 0.00539915
0 -0.005881 0.0175 0.00539915
-8.52699e-20 -0.018381 0.00233887 0.00538438
4.03897e-28 -0.010881 0.0149988 0.00539297
5.83757e-29 0.006619 0.0174833 0.00541625
0 0.006619 0.0175 0.00541625
0 -0.015881 0.00994629 0.00538716
1.0842e-19 0.000369 0.01875 0.00540737
-1.0842e-19 0.012869 0.0137433 0.00542586
-3.31687e-21 0.014119 0.0124878 0.0054279
0 -0.002131 0.01875 0.005404
1.0842e-19 0.017869 0.00608215 0.00543423
1.0842e-19 -0.009631 0.0162494 0.00539447
-1.0842e-19 0.002869 0.01875 0.00541082
-1.18435e-19 0.011619 0.0149988 0.00542386
0 -0.018381 0.00479858 0.0053844
-1.0842e-19 0.015369 0.011217 0.00542994
0 0.019119 3.72709e-09 0.00543625
1.0842e-19 -0.017131 0.008656 0.00538575
-7.25777e-20 0.019119 0.00233888 0.0054363
0 0.010369 0.0162494 0.00542188
-1.0842e-19 -0.004631 0.01875 0.00540071
-1.35484e-19 0.016619 0.00994629 0.00543204
-7.25752e-29 -0.008381 0.017491 0.00539599
-9.67039e-20 -0.008381 0.0175 0.00539599
0 0.005369 0.01875 0.00541436
-1.0842e-19 -0.019631 0.00116943 0.00538293
-8.36193e-29 0.009119 0.0174731 0.00541994
5.37936e-20 0.019119 0.00479858 0.00543633
-1.91541e-20 0.009119 0.0175 0.00541994
0 -0.018381 0.00736572 0.00538436
2.1684e-19 0.017869 0.00865601 0.00543414
2.1684e-19 -0.019631 0.00356872 0.005383
3.28979e-21 -0.000881 0.02 0.00540563
0 -0.007131 0.01875 0.00539751
-9.67102e-20 0.001619 0.02 0.00540904
0 -0.014631 0.0137433 0.0053885
0 -0.013381 0.0149988 0.00538996
-3.23117e-27 -0.015881 0.0124878 0.00538708
-1.0842e-19 -0.012131 0.0162494 0.00539142
8.08456e-20 -0.003381 0.02 0.00540231
-1.0842e-19 0.007869 0.01875 0.005418
0 0.020369 0.00116944 0.00543834
-1.91544e-20 0.004119 0.02 0.00541253
1.0842e-19 -0.017131 0.011217 0.00538567
2.80747e-20 0.019119 0.00736572 0.00543627
-1.0842e-19 -0.019631 0.00608215 0.00538297
9.46633e-29 -0.010881 0.0174886 0.00539291
1.06152e-19 0.014119 0.0149988 0.00542775
-1.57772e-30 -0.010881 0.0175 0.00539291
2.1684e-19 0.015369 0.0137433 0.0054298
-1.0842e-19 0.020369 0.00356873 0.00543843
1.0842e-19 0.012869 0.0162494 0.00542571
3.94558e-20 0.016619 0.0124878 0.0054319
-1.91544e-20 -0.005881 0.02 0.00539907
0 -0.020881 1.38173e-08 0.00538155
-2.58494e-26 -0.018381 0.00994629 0.00538429
8.08459e-20 0.011619 0.0175 0.00542372
0 -0.020881 0.00233887 0.00538158
8.08456e-20 0.006619 0.02 0.00541611
0 -0.009631 0.01875 0.00539439
0 0.017869 0.011217 0.005434
0 0.000369 0.02125 0.00540725
1.0842e-19 0.020369 0.00608215 0.0054384
-1.0842e-19 -0.002131 0.02125 0.0054039
-4.1359e-25 -0.020881 0.00479858 0.0053816
1.0842e-19 0.010369 0.01875 0.00542173
0 0.002869 0.02125 0.0054107
1.0842e-19 -0.019631 0.008656 0.00538292
-7.74775e-20 0.019119 0.00994629 0.00543616
0 0.021619 1.55288e-08 0.00544048
-9.67102e-20 -0.008381 0.02 0.00539591
4.75844e-20 0.021619 0.00233888 0.00544053
0 -0.004631 0.02125 0.00540062
-4.03897e-28 -0.015881 0.0149988 0.00538702
0 -0.014631 0.0162494 0.00538844
1.0842e-19 0.005369 0.02125 0.00541423
-1.0842e-19 -0.017131 0.0137433 0.0053856
-1.91544e-20 0.009119 0.02 0.00541979
7.25752e-29 -0.013381 0.0174867 0.0053899
0 -0.013381 0.0175 0.0053899
0 0.020369 0.008656 0.00543831
1.03398e-25 -0.020881 0.00736572 0.00538156
2.79546e-20 0.021619 0.00479858 0.00544056
-1.0842e-19 -0.022131 0.00116943 0.00538017
0 -0.018381 0.0124878 0.00538422
-1.0842e-19 -0.012131 0.01875 0.00539135
-1.0842e-19 0.015369 0.0162494 0.00542965
7.83112e-20 0.016619 0.0149988 0.00543175
1.0842e-19 -0.007131 0.02125 0.00539743
0 -0.022131 0.00356872 0.00538023
8.0838e-20 0.014119 0.0175 0.0054276
-3.54881e-20 -0.000881 0.0225 0.00540552
1.0842e-19 0.017869 0.0137433 0.00543385
-3.54881e-20 0.001619 0.0225 0.00540891
-1.0842e-19 -0.019631 0.011217 0.00538284
-1.0842e-19 0.007869 0.02125 0.00541785
1.0842e-19 0.012869 0.01875 0.00542555
8.08456e-20 -0.003381 0.0225 0.00540221
-1.91544e-20 -0.010881 0.02 0.00539284
-7.59876e-20 0.019119 0.0124878 0.005436
-1.94261e-20 0.021619 0.00736572 0.0054405
-9.67102e-20 0.004119 0.0225 0.0054124
0 0.022869 0.00116944 0.00544262
-1.0842e-19 -0.022131 0.00608215 0.00538021
2.58494e-26 -0.020881 0.00994629 0.00538149
1.58401e-19 0.011619 0.02 0.00542356
0 0.022869 0.00356873 0.00544271
-1.0842e-19 0.020369 0.011217 0.00543816
-9.67102e-20 -0.005881 0.0225 0.00539898
0 -0.009631 0.02125 0.00539431
-3.30872e-24 -0.023381 1.45957e-08 0.00537882
8.08456e-20 0.006619 0.0225 0.00541597
-8.27181e-25 -0.023381 0.00233886 0.00537885
0 -0.017131 0.0162494 0.00538554
0 -0.015881 0.0174862 0.00538696
-1.57772e-30 -0.015881 0.0175 0.00538696
0 0.010369 0.02125 0.00542157
-2.1684e-19 0.022869 0.00608215 0.00544268
0 -0.018381 0.0149988 0.00538416
0 0.000369 0.02375 0.00540713
2.1684e-19 -0.022131 0.008656 0.00538016
0 -0.014631 0.01875 0.00538838
-1.131e-19 0.021619 0.00994629 0.00544037
-1.0842e-19 -0.002131 0.02375 0.00540379
-2.06795e-25 -0.023381 0.00479858 0.00537887
-8.27181e-25 0.0239177 0 0.00544446
1.0842e-19 0.002869 0.02375 0.00541056
1.0842e-19 -0.019631 0.0137433 0.00538278
8.08456e-20 -0.008381 0.0225 0.00539583
-1.91544e-20 -0.013381 0.02 0.00538983
0 0.024119 1.35972e-09 0.00544481
2.06795e-25 0.024119 0.000601223 0.00544482
1.58394e-19 0.016619 0.0175 0.00543158
-1.0842e-19 0.017869 0.0162494 0.00543368
0 -0.004631 0.02375 0.00540052
4.30854e-20 0.024119 0.00233887 0.00544486
-1.0842e-19 0.015369 0.01875 0.00542947
1.58401e-19 0.009119 0.0225 0.00541963
-1.11623e-19 0.019119 0.0149988 0.00543584
0 -0.020881 0.0124878 0.00538142
0 0.005369 0.02375 0.00541408
-1.0842e-19 0.022869 0.008656 0.00544259
0 -0.012131 0.02125 0.00539128
-1.91544e-20 0.014119 0.02 0.00542742
0 -0.023381 0.00736572 0.00537883
0 0.020369 0.0137433 0.005438
-4.99634e-20 0.024119 0.00479858 0.00544489
-1.0842e-19 -0.024631 0.00116943 0.00537747
0 -0.007131 0.02375 0.00539734
1.0842e-19 -0.022131 0.011217 0.00538008
0 0.012869 0.02125 0.00542538
0 -0.024631 0.00356872 0.00537754
-1.01634e-19 0.021619 0.0124878 0.00544021
1.58401e-19 -0.010881 0.0225 0.00539277
-9.67102e-20 -0.000881 0.025 0.00540539
0 0.007869 0.02375 0.00541769
-1.13044e-19 0.001619 0.025 0.00540878
-1.082e-19 0.024119 0.00736572 0.00544483
1.58401e-19 -0.003381 0.025 0.0054021
-4.15987e-20 0.011619 0.0225 0.00542338
6.45119e-20 0.004119 0.025 0.00541224
3.15544e-29 -0.018381 0.0174859 0.00538411
1.0842e-19 -0.024631 0.00608215 0.00537751
-3.54843e-20 -0.018381 0.0175 0.00538411
1.0842e-19 0.025369 0.00116944 0.005447
1.0842e-19 -0.017131 0.01875 0.00538549
0 -0.023381 0.00994629 0.00537877
0 0.022869 0.011217 0.00544243
0 -0.019631 0.0162494 0.00538272
-9.67102e-20 -0.015881 0.02 0.00538691
-2.1684e-19 0.025369 0.00356872 0.0054471
-1.0842e-19 -0.009631 0.02375 0.00539424
-1.91544e-20 -0.005881 0.025 0.00539888
2.01948e-28 -0.020881 0.0149988 0.00538137
1.0842e-19 -0.014631 0.02125 0.00538832
3.28979e-21 0.006619 0.025 0.0054158
0 -0.025881 1.52608e-08 0.00537616
0 0.017869 0.01875 0.0054335
0 0.010369 0.02375 0.00542139
1.58401e-19 0.019119 0.0175 0.00543566
0 -0.025881 0.00233887 0.00537619
1.58401e-19 0.016619 0.02 0.00543139
1.0842e-19 -0.022131 0.0137433 0.00538002
0 0.020369 0.0162494 0.00543782
1.0842e-19 0.025369 0.00608215 0.00544708
-4.7036e-20 0.024119 0.00994629 0.0054447
1.0842e-19 -0.024631 0.008656 0.00537746
-9.67102e-20 -0.013381 0.0225 0.00538977
-1.0842e-19 0.015369 0.02125 0.00542928
0 0.000369 0.02625 0.00540699
6.84855e-20 0.021619 0.0149988 0.00544004
2.06795e-25 -0.025881 0.00479858 0.00537621
0 -0.002131 0.02625 0.00540366
8.08456e-20 -0.008381 0.025 0.00539574
0 0.002869 0.02625 0.00541041
0 -0.023381 0.0124878 0.0053787
5.84013e-20 0.014119 0.0225 0.00542723
1.58401e-19 0.009119 0.025 0.00541944
-8.27181e-25 0.026619 5.1449e-09 0.00544926
0 -0.004631 0.02625 0.00540041
-1.0842e-19 -0.012131 0.02375 0.00539122
1.0842e-19 0.022869 0.0137433 0.00544226
-1.03398e-25 0.026619 0.00201018 0.0054493
4.85149e-20 0.026619 0.00233887 0.00544931
1.0842e-19 0.005369 0.02625 0.00541391
0 0.025369 0.008656 0.00544697
-1.03398e-25 -0.025881 0.00736572 0.00537617
0 0.012869 0.02375 0.00542519
1.16051e-19 0.026619 0.00479858 0.00544934
-2.1684e-19 -0.024631 0.011217 0.00537739
-1.0842e-19 -0.019631 0.01875 0.00538267
-1.0842e-19 -0.027131 0.00116943 0.00537485
-1.22885e-19 0.024119 0.0124878 0.00544453
3.28979e-21 -0.018381 0.02 0.00538406
0 -0.007131 0.02625 0.00539724
2.68213e-29 -0.020881 0.0174849 0.00538132
1.57772e-30 -0.020881 0.0175 0.00538132
-1.91544e-20 -0.010881 0.025 0.00539269
0 -0.017131 0.02125 0.00538544
-1.0842e-19 -0.027131 0.00356872 0.00537491
0 0.007869 0.02625 0.0054175
-1.0842e-19 -0.022131 0.0162494 0.00537997
-9.67102e-20 -0.000881 0.0275 0.00540526
-9.67102e-20 -0.015881 0.0225 0.00538686
-9.67102e-20 0.001619 0.0275 0.00540863
-4.15987e-20 0.011619 0.025 0.00542318
4.76561e-20 0.026619 0.00736572 0.00544928
-1.91544e-20 0.019119 0.02 0.00543545
-1.0842e-19 0.020369 0.01875 0.00543762
8.08456e-20 -0.003381 0.0275 0.00540198
0 -0.025881 0.00994629 0.00537611
0 0.025369 0.011217 0.00544681
-1.03398e-25 0.0276625 0.00233887 0.00545121
0 0.017869 0.02125 0.00543329
0 -0.023381 0.0149988 0.00537865
0 -0.027131 0.00608215 0.00537489
8.08456e-20 0.004119 0.0275 0.00541208
8.08353e-20 0.021619 0.0175 0.00543984
-1.0842e-19 0.027869 0.00116944 0.00545151
1.0842e-19 -0.014631 0.02375 0.00538826
-1.0842e-19 -0.009631 0.02625 0.00539415
-1.91544e-20 0.016619 0.0225 0.00543118
-1.0842e-19 0.022869 0.0162494 0.00544206
-1.0842e-19 0.027869 0.00356872 0.00545161
-1.91544e-20 -0.005881 0.0275 0.00539877
0 -0.024631 0.0137433 0.00537733
0 0.010369 0.02625 0.00542118
-1.91544e-20 0.006619 0.0275 0.00541562
0 0.015369 0.02375 0.00542907
8.08456e-20 -0.013381 0.025 0.0053897
3.30872e-24 -0.028381 1.56354e-08 0.00537357
3.69431e-20 0.024119 0.0149988 0.00544434
-6.0395e-20 0.026619 0.00994629 0.00544914
-9.03e-20 -0.028381 0.00233888 0.0053736
-2.1684e-19 -0.027131 0.008656 0.00537484
1.0842e-19 0.027869 0.00608215 0.00545158
5.84013e-20 0.014119 0.025 0.00542701
3.23117e-27 -0.025881 0.0124878 0.00537605
8.08456e-20 -0.008381 0.0275 0.00539565
0 0.000369 0.02875 0.00540685
5.32301e-20 -0.028381 0.00479858 0.00537362
-1.0842e-19 -0.002131 0.02875 0.00540353
1.0842e-19 0.025369 0.0137433 0.00544663
0 0.002869 0.02875 0.00541025
8.08456e-20 -0.020881 0.02 0.00538128
0 -0.012131 0.02625 0.00539113
-1.0842e-19 -0.019631 0.02125 0.00538263
3.28979e-21 0.009119 0.0275 0.00541924
0 -0.022131 0.01875 0.00537993
-1.91544e-20 -0.018381 0.0225 0.00538401
-1.65436e-24 0.029119 8.18133e-09 0.00545382
-1.0842e-19 -0.004631 0.02875 0.0054003
0 0.027869 0.008656 0.00545148
-7.41529e-29 -0.023381 0.0174821 0.00537861
-1.91512e-20 -0.023381 0.0175 0.00537861
-2.06795e-25 0.029119 0.00233887 0.00545387
0 0.012869 0.02625 0.00542496
0 0.005369 0.02875 0.00541374
0 -0.017131 0.02375 0.00538539
0 -0.028381 0.00736572 0.00537358
0 -0.027131 0.011217 0.00537477
-3.55229e-20 0.026619 0.0124878 0.00544897
0 0.020369 0.02125 0.00543739
-1.91544e-20 0.021619 0.02 0.00543962
6.13923e-26 0.0290996 0.00479858 0.00545387
0 -0.024631 0.0162494 0.00537729
-1.09497e-20 0.029119 0.00479858 0.00545391
-1.91544e-20 0.019119 0.0225 0.00543522
-8.07794e-28 0.029119 0.00495435 0.0054539
-1.0842e-19 0.022869 0.01875 0.00544185
8.08456e-20 -0.010881 0.0275 0.0053926
8.08456e-20 -0.015881 0.025 0.00538679
0 -0.007131 0.02875 0.00539714
0 -0.029631 0.00116943 0.00537229
0 0.017869 0.02375 0.00543306
1.58393e-19 0.024119 0.0175 0.00544413
0 0.007869 0.02875 0.00541731
0 -0.029631 0.00356872 0.00537236
8.08456e-20 0.011619 0.0275 0.00542296
0 -0.025881 0.0149988 0.005376
-3.54881e-20 -0.000881 0.03 0.00540512
5.84013e-20 0.016619 0.025 0.00543094
0 0.029119 0.00736572 0.00545384
-1.0842e-19 0.027869 0.011217 0.0054513
8.08456e-20 0.001619 0.03 0.00540847
1.0842e-19 -0.014631 0.02625 0.00538819
1.29247e-26 -0.028381 0.00994629 0.00537352
-1.0842e-19 0.025369 0.0162494 0.00544642
6.45119e-20 -0.003381 0.03 0.00540185
0 -0.029631 0.00608215 0.00537233
8.08456e-20 0.004119 0.03 0.00541191
-1.0842e-19 -0.009631 0.02875 0.00539406
0 0.030369 0.00116944 0.00545613
1.0842e-19 -0.027131 0.0137433 0.00537471
0 0.015369 0.02625 0.00542883
3.47103e-20 0.026619 0.0149988 0.00544876
1.0842e-19 0.010369 0.02875 0.00542097
6.45119e-20 -0.005881 0.03 0.00539866
0 0.030369 0.00356872 0.00545623
5.84013e-20 -0.013381 0.0275 0.00538963
0 -0.022131 0.02125 0.00537989
1.58401e-19 -0.020881 0.0225 0.00538124
3.28979e-21 0.006619 0.03 0.00541543
-1.91544e-20 -0.023381 0.02 0.00537857
0 0.029119 0.00994629 0.0054537
-1.0842e-19 -0.019631 0.02375 0.00538258
0 -0.029631 0.008656 0.00537228
0 -0.030881 1.5949e-08 0.00537105
5.84013e-20 0.014119 0.0275 0.00542677
0 -0.024631 0.01875 0.00537725
0 -0.030881 0.00233888 0.00537108
1.0842e-19 0.030369 0.00608215 0.00545621
0 -0.028381 0.0124878 0.00537346
-1.91544e-20 -0.018381 0.025 0.00538396
0 0.027869 0.0137433 0.00545111
3.28979e-21 -0.008381 0.03 0.00539555
-1.91544e-20 0.021619 0.0225 0.00543937
-1.0842e-19 -0.012131 0.02875 0.00539106
0 0.022869 0.02125 0.00544161
1.21485e-28 -0.025881 0.0174764 0.00537596
8.08456e-20 -0.025881 0.0175 0.00537596
0 -0.030881 0.00479858 0.0053711
1.0842e-19 0.000369 0.03125 0.0054067
0 0.020369 0.02375 0.00543715
0 -0.002131 0.03125 0.0054034
8.08456e-20 0.024119 0.02 0.00544389
-1.0842e-19 -0.017131 0.02625 0.00538532
1.9387e-26 0.0304751 0.00736572 0.00545638
3.28979e-21 0.009119 0.03 0.00541903
-1.0842e-19 0.002869 0.03125 0.00541008
5.84013e-20 0.019119 0.025 0.00543497
1.0842e-19 0.012869 0.02875 0.00542473
0 0.025369 0.01875 0.00544619
-1.0842e-19 0.030369 0.008656 0.0054561
1.0842e-19 -0.004631 0.03125 0.00540017
-1.65436e-24 0.031619 9.51851e-09 0.0054585
0 -0.027131 0.0162494 0.00537467
-1.0842e-19 -0.029631 0.011217 0.00537221
1.12206e-19 0.029119 0.0124878 0.00545351
9.40707e-20 0.031619 0.00233887 0.00545855
1.0842e-19 0.005369 0.03125 0.00541354
0 -0.030881 0.00736572 0.00537106
0 0.017869 0.02625 0.00543279
5.84013e-20 -0.015881 0.0275 0.00538673
8.08393e-20 0.026619 0.0175 0.00544853
1.58401e-19 -0.010881 0.03 0.00539252
5.63731e-20 0.031619 0.00479858 0.00545859
1.0842e-19 -0.007131 0.03125 0.00539703
0 -0.028381 0.0149988 0.00537341
1.58401e-19 0.016619 0.0275 0.00543068
0 -0.032131 0.00116943 0.0053698
1.58401e-19 0.011619 0.03 0.00542273
-1.0842e-19 0.007869 0.03125 0.0054171
0 -0.014631 0.02875 0.00538812
-1.0842e-19 0.027869 0.0162494 0.00545088
0 -0.032131 0.00356872 0.00536987
-1.0842e-19 0.030369 0.011217 0.00545591
0 -0.030881 0.00994629 0.005371
5.84013e-20 -0.023381 0.0225 0.00537854
-1.0842e-19 -0.022131 0.02375 0.00537985
0 0.031619 0.00736572 0.00545852
-9.67102e-20 -0.000881 0.0325 0.00540496
-1.0842e-19 -0.024631 0.02125 0.00537722
8.08456e-20 0.001619 0.0325 0.00540829
5.84013e-20 -0.020881 0.025 0.00538119
-1.0842e-19 0.015369 0.02875 0.00542857
-1.0842e-19 -0.029631 0.0137433 0.00537216
-1.13044e-19 -0.003381 0.0325 0.0054017
0 -0.009631 0.03125 0.00539396
2.1684e-19 -0.032131 0.00608215 0.00536984
0 0.0311547 0.00994629 0.0054575
-1.91544e-20 -0.025881 0.02 0.00537593
-4.00585e-20 0.029119 0.0149988 0.00545329
8.08456e-20 0.004119 0.0325 0.00541171
0 -0.019631 0.02625 0.00538253
-4.15987e-20 -0.013381 0.03 0.00538955
-2.1684e-19 0.032869 0.00116944 0.00546087
-1.0842e-19 0.010369 0.03125 0.00542074
0 0.022869 0.02375 0.00544133
0 -0.027131 0.01875 0.00537464
1.58401e-19 0.024119 0.0225 0.00544362
-1.30438e-20 -0.005881 0.0325 0.00539853
5.84013e-20 0.021619 0.025 0.00543909
1.0842e-19 0.032869 0.00356872 0.00546098
0 -0.018381 0.0275 0.0053839
0 0.025369 0.02125 0.00544592
0 0.031619 0.00994629 0.00545837
-4.15987e-20 0.014119 0.03 0.00542652
8.08456e-20 0.006619 0.0325 0.00541521
0 0.020369 0.02625 0.00543686
0 -0.032131 0.008656 0.00536979
-3.54881e-20 0.026619 0.02 0.00544828
0 -0.030881 0.0124878 0.00537094
5.6798e-29 -0.028381 0.0174652 0.00537338
1.0842e-19 0.030369 0.0137433 0.0054557
1.57772e-30 -0.028381 0.0175 0.00537338
0 -0.033381 1.52992e-08 0.00536859
1.0842e-19 0.032869 0.00608215 0.00546095
0 -0.033381 0.00233888 0.00536862
-1.0842e-19 -0.017131 0.02875 0.00538527
5.84013e-20 0.019119 0.0275 0.00543468
-1.0842e-19 -0.012131 0.03125 0.00539098
6.45119e-20 -0.008381 0.0325 0.00539543
0 0.027869 0.01875 0.00545064
0 -0.033381 0.00479858 0.00536864
1.0842e-19 0.000369 0.03375 0.0054065
-1.91544e-20 0.009119 0.0325 0.00541879
0 -0.029631 0.0162494 0.00537212
0 0.012869 0.03125 0.00542448
1.0842e-19 -0.002131 0.03375 0.00540323
-1.0842e-19 0.017869 0.02875 0.00543252
-1.0842e-19 0.002869 0.03375 0.00540988
-5.04871e-29 0.0315631 0.0124878 0.00545807
-1.91544e-20 -0.015881 0.03 0.00538667
-9.67102e-20 0.029119 0.0175 0.00545305
0 0.032869 0.00865601 0.00546083
0 0.031619 0.0124878 0.00545817
-1.0842e-19 -0.032131 0.011217 0.00536972
0 -0.004631 0.03375 0.00540001
0 0.034119 8.73377e-09 0.0054633
1.0842e-19 0.005369 0.03375 0.00541332
0 -0.033381 0.00736572 0.0053686
0 0.034119 0.00233887 0.00546335
-1.0842e-19 -0.024631 0.02375 0.00537719
-4.15987e-20 -0.023381 0.025 0.0053785
8.08456e-20 -0.010881 0.0325 0.00539241
-1.91544e-20 -0.025881 0.0225 0.0053759
1.58401e-19 0.016619 0.03 0.0054304
5.04871e-29 -0.030881 0.0149988 0.00537089
-1.0842e-19 -0.022131 0.02625 0.0053798
0 0.030369 0.0162494 0.00545546
0 0.034119 0.00479858 0.00546339
0 -0.027131 0.02125 0.00537461
1.0842e-19 -0.007131 0.03375 0.00539689
-1.0842e-19 -0.014631 0.03125 0.00538805
1.58401e-19 0.011619 0.0325 0.00542247
8.08456e-20 -0.020881 0.0275 0.00538115
2.1684e-19 -0.034631 0.00116944 0.00536738
0 0.007869 0.03375 0.00541686
-1.26218e-29 0.031619 0.0142466 0.00545801
-1.91544e-20 -0.028381 0.02 0.00537335
2.1684e-19 0.032869 0.011217 0.00546064
5.84013e-20 0.024119 0.025 0.00544332
-1.0842e-19 0.025369 0.02375 0.00544562
1.0842e-19 -0.019631 0.02875 0.00538248
0 -0.034631 0.00356872 0.00536744
-1.0842e-19 0.022869 0.02625 0.00544102
0 0.015369 0.03125 0.00542829
0 -0.033381 0.00994629 0.00536854
3.28979e-21 0.026619 0.0225 0.00544798
-2.58494e-26 0.034119 0.00736572 0.00546332
1.0842e-19 -0.032131 0.0137433 0.00536967
1.58401e-19 0.021619 0.0275 0.00543878
-4.38726e-20 0.031619 0.0149988 0.00545794
-9.67102e-20 -0.000881 0.035 0.00540478
-1.91544e-20 0.001619 0.035 0.00540809
1.0842e-19 0.027869 0.02125 0.00545035
1.0842e-19 -0.029631 0.01875 0.00537209
0 -0.009631 0.03375 0.00539383
-1.91544e-20 -0.013381 0.0325 0.00538946
-1.0842e-19 -0.034631 0.00608215 0.00536741
6.45119e-20 -0.003381 0.035 0.00540154
2.52435e-29 -0.031818 0.0149988 0.00536998
-1.57772e-30 -0.018381 0.03 0.00538385
0 0.020369 0.02875 0.00543655
1.58401e-19 0.004119 0.035 0.00541149
0 0.010369 0.03375 0.00542047
-3.54881e-20 0.029119 0.02 0.00545277
-2.52435e-29 0.0320461 0.0149988 0.00545875
-1.0842e-19 0.035369 0.00116944 0.00546573
-4.15987e-20 0.014119 0.0325 0.00542624
-3.15544e-30 -0.030881 0.0174159 0.00537087
-1.30438e-20 -0.005881 0.035 0.00539839
-1.91534e-20 -0.030881 0.0175 0.00537087
0 0.034119 0.00994629 0.00546316
1.0842e-19 0.035369 0.00356872 0.00546584
8.08456e-20 0.019119 0.03 0.00543438
1.65436e-24 0.0355748 0 0.00546617
8.08456e-20 0.006619 0.035 0.00541497
1.0842e-19 0.032869 0.0137433 0.00546042
0 -0.017131 0.03125 0.00538521
0 -0.033381 0.0124878 0.00536848
0 0.030369 0.01875 0.0054552
0 -0.034631 0.008656 0.00536736
1.00974e-28 -0.0335264 0.0124878 0.00536834
1.0842e-19 -0.012131 0.03375 0.00539086
0 -0.035881 1.26451e-08 0.00536619
-1.0842e-19 0.035369 0.00608215 0.00546581
0 -0.035881 0.00233887 0.00536622
5.84013e-20 -0.025881 0.025 0.00537587
-3.54881e-20 -0.008381 0.035 0.0053953
0 -0.024631 0.02625 0.00537714
0 0.017869 0.03125 0.00543222
1.0842e-19 -0.032131 0.0162494 0.00536963
1.0842e-19 -0.027131 0.02375 0.00537459
-1.91544e-20 -0.023381 0.0275 0.00537846
0 0.012869 0.03375 0.00542419
-3.54895e-20 0.031619 0.0175 0.00545768
-5.04871e-29 -0.033381 0.0139009 0.00536846
3.28979e-21 0.009119 0.035 0.00541854
8.08456e-20 -0.015881 0.0325 0.00538659
0 -0.035881 0.00479858 0.00536624
-1.91544e-20 -0.028381 0.0225 0.00537333
-1.0842e-19 0.000369 0.03625 0.00540631
0 -0.022131 0.02875 0.00537977
-1.0842e-19 -0.002131 0.03625 0.00540307
0 0.034119 0.0124878 0.00546295
0 0.002869 0.03625 0.00540968
1.0842e-19 -0.034631 0.011217 0.00536729
1.0842e-19 0.035369 0.008656 0.00546569
-1.0842e-19 -0.029631 0.02125 0.00537207
-4.15987e-20 0.016619 0.0325 0.00543009
-1.0842e-19 0.025369 0.02625 0.00544529
8.08456e-20 0.026619 0.025 0.00544765
0 -0.004631 0.03625 0.00539986
8.08456e-20 -0.020881 0.03 0.0053811
-1.91544e-20 0.024119 0.0275 0.00544299
1.1385e-19 -0.033381 0.0149988 0.00536844
1.0842e-19 0.027869 0.02375 0.00545003
0 0.036619 6.26428e-09 0.00546822
0 -0.035881 0.00736572 0.0053662
0 0.005369 0.03625 0.00541309
-9.67102e-20 -0.010881 0.035 0.00539229
0 0.032869 0.0162494 0.00546017
0 0.0365979 0.00233887 0.00546824
1.61559e-27 0.036619 0.00233887 0.00546828
-1.29247e-26 0.036619 0.00246721 0.00546828
0 0.022869 0.02875 0.0054407
0 -0.014631 0.03375 0.00538795
-1.91544e-20 -0.030881 0.02 0.00537084
6.45119e-20 0.029119 0.0225 0.00545245
-4.84676e-27 -0.0354682 0.00994629 0.00536654
-3.54881e-20 0.011619 0.035 0.00542219
1.0842e-19 -0.019631 0.03125 0.00538243
0 0.036619 0.00479858 0.00546832
0 -0.007131 0.03625 0.00539677
-9.67102e-20 0.021619 0.03 0.00543845
0 0.030369 0.02125 0.00545489
-1.0842e-19 0.015369 0.03375 0.00542798
0 0.007869 0.03625 0.00541662
-1.0842e-19 0.035369 0.011217 0.00546549
0 -0.037131 0.00116943 0.00536501
0 -0.035881 0.00981197 0.00536615
0 -0.032131 0.01875 0.00536961
0 -0.035881 0.00994629 0.00536614
0 -0.034631 0.0137433 0.00536724
1.00974e-28 0.034119 0.0149988 0.0054627
1.0842e-19 -0.037131 0.00356872 0.00536507
-1.0842e-19 0.020369 0.03125 0.00543623
-1.57772e-30 -0.018381 0.0325 0.00538378
0 0.036619 0.00736572 0.00546824
-1.30438e-20 0.031619 0.02 0.00545738
-1.91544e-20 -0.013381 0.035 0.00538936
-1.0842e-19 -0.009631 0.03625 0.00539371
-3.54881e-20 -0.000881 0.0375 0.00540458
8.08456e-20 0.001619 0.0375 0.00540788
2.1684e-19 -0.037131 0.00608215 0.00536504
6.45119e-20 -0.003381 0.0375 0.00540136
1.58399e-19 -0.033381 0.0175 0.00536842
0 0.010369 0.03625 0.00542019
1.58401e-19 0.019119 0.0325 0.00543404
-1.91544e-20 0.004119 0.0375 0.00541125
-1.57772e-30 0.014119 0.035 0.00542593
0 -0.027131 0.02625 0.00537455
-4.1359e-25 -0.0377563 0 0.00536444
-1.91544e-20 -0.025881 0.0275 0.00537584
8.08456e-20 -0.028381 0.025 0.00537331
1.0842e-19 0.032869 0.01875 0.00545987
0 -0.017131 0.03375 0.00538513
0 -0.024631 0.02875 0.00537712
-1.0842e-19 0.037869 0.00116944 0.00547071
0 0.035369 0.0137433 0.00546526
-6.46235e-27 0.036619 0.00994629 0.00546808
6.45119e-20 -0.005881 0.0375 0.00539822
1.0842e-19 -0.029631 0.02375 0.00537205