# pMean  POINT_DATA 34187
# x  y  z  pMean
1.60275e-08 -1.0842e-19 0 0.00539488
-0.000880992 1.0842e-19 0 0.00539811
0.00088102 5.42101e-20 0 0.00539162
-0.00161899 0 0 0.00540082
0.00161901 -5.42101e-20 0 0.0053889
-0.00124999 2.71051e-20 0.00116943 0.00539947
0.00125001 -1.807e-20 0.00116943 0.00539027
6.3044e-09 1.0842e-19 0.00233887 0.00539491
-0.0025 -1.0842e-19 0 0.00540404
0.00250002 -1.0842e-19 0 0.00538567
-0.003381 0 0 0.00540724
0.00338102 0 0 0.00538242
-0.0025 -1.0842e-19 0.00233887 0.00540407
0.00250001 1.0842e-19 0.00233887 0.00538571
-0.00125 0 0.00356872 0.00539951
0.00125 1.807e-20 0.00356872 0.00539032
-0.00375 1.807e-20 0.00116943 0.00540858
0.00375001 9.03502e-21 0.00116944 0.00538106
0.004119 -5.42101e-20 0 0.0053797
-0.004119 -5.42101e-20 0 0.00540992
2.41733e-09 -1.0842e-19 0.00479858 0.00539493
0.005 -1.0842e-19 0 0.00537647
-0.00500001 1.0842e-19 0 0.00541313
-0.00375 -9.03502e-21 0.00356873 0.00540864
0.00375 1.807e-20 0.00356873 0.00538113
0.0025 -1.0842e-19 0.00479858 0.00538574
-0.0025 0 0.00479858 0.00540409
0.005 1.0842e-19 0.00233887 0.0053765
-0.005 0 0.00233887 0.00541316
0.005881 -5.42101e-20 0 0.0053732
-0.00588101 5.42101e-20 0 0.0054163
-0.00125 0 0.00608215 0.00539949
0.00125 0 0.00608215 0.00539031
0.00625 0 0.00116944 0.00537184
-0.00625 -1.807e-20 0.00116944 0.00541764
0.00661899 5.42101e-20 0 0.00537045
-0.006619 -5.42101e-20 0 0.00541897
0.005 -1.0842e-19 0.00479858 0.00537653
-0.005 0 0.00479858 0.00541319
-0.00375 0 0.00608215 0.00540862
0.00375 -1.807e-20 0.00608215 0.00538111
-0.00625 9.03502e-21 0.00356873 0.00541772
0.00625 0 0.00356873 0.00537189
7.8719e-10 0 0.00736572 0.00539488
0.00749999 -1.0842e-19 0 0.00536715
-0.0075 1.0842e-19 0 0.00542217
0.0025 0 0.00736572 0.00538569
-0.0025 0 0.00736572 0.00540404
0.0075 0 0.00233887 0.00536719
-0.0075 -1.0842e-19 0.00233887 0.0054222
0.00838099 -5.42101e-20 0 0.00536382
-0.008381 5.42101e-20 0 0.00542533
-0.00625 -3.61401e-20 0.00608215 0.00541771
0.00625 1.807e-20 0.00608215 0.00537186
-0.00125 3.61401e-20 0.008656 0.00539941
0.00125 3.61401e-20 0.00865601 0.00539023
-0.00874999 -9.03502e-21 0.00116944 0.00542666
0.00875 0 0.00116943 0.00536243
0.005 0 0.00736572 0.00537646
-0.005 0 0.00736572 0.00541314
0.0075 0 0.00479858 0.00536721
-0.0075 0 0.00479858 0.00542223
-0.00911899 -5.42101e-20 0 0.00542798
0.00911899 -5.42101e-20 0 0.00536103
0.00375 -1.807e-20 0.008656 0.00538102
-0.00375 -1.807e-20 0.008656 0.00540854
-0.00875 2.71051e-20 0.00356873 0.00542671
0.00875 1.807e-20 0.00356873 0.00536249
1.93058e-10 0 0.00994629 0.00539477
-0.00999999 0 0 0.00543114
0.00999999 -1.0842e-19 0 0.00535769
0.0025 0 0.00994629 0.00538558
-0.0025 0 0.00994629 0.00540392
-0.00999999 0 0.00233887 0.00543117
0.01 0 0.00233887 0.00535773
0.0075 0 0.00736572 0.00536714
-0.0075 0 0.00736572 0.00542218
-0.00875 -1.807e-20 0.00608215 0.00542669
0.00875 -3.61401e-20 0.00608215 0.00536246
-0.00625 0 0.008656 0.00541762
0.00625 1.807e-20 0.008656 0.00537175
0.010881 1.0842e-19 0 0.00535431
-0.010881 -5.42101e-20 0 0.00543427
0.01 0 0.00479858 0.00535775
-0.01 0 0.00479858 0.00543118
0.005 0 0.00994629 0.00537634
-0.005 0 0.00994629 0.00541303
-0.00125 -3.61401e-20 0.011217 0.00539927
0.00125 -3.61401e-20 0.011217 0.00539008
-0.01125 2.71051e-20 0.00116944 0.00543559
0.01125 -3.61401e-20 0.00116943 0.00535291
-0.011619 5.42101e-20 0 0.0054369
0.011619 0 0 0.00535149
-0.01125 -1.807e-20 0.00356872 0.00543564
0.01125 1.807e-20 0.00356873 0.00535298
-0.00375 1.807e-20 0.011217 0.00540839
0.00375 0 0.011217 0.00538088
0.00875 -1.807e-20 0.008656 0.00536237
-0.00875 -1.807e-20 0.008656 0.00542661
0.01 0 0.00736572 0.0053577
-0.01 0 0.00736572 0.00543113
0.0075 0 0.00994629 0.00536701
-0.0075 0 0.00994629 0.00542207
3.05206e-11 0 0.0124878 0.00539463
0.0125 -1.0842e-19 0 0.00534814
-0.0125 1.0842e-19 0 0.00544004
0.0125 0 0.00233887 0.00534818
-0.0125 1.0842e-19 0.00233887 0.00544006
0.0025 0 0.0124878 0.00538544
-0.0025 0 0.0124878 0.00540378
-0.01125 -9.03502e-21 0.00608215 0.0054356
0.01125 0 0.00608215 0.00535297
-0.00625 -3.61401e-20 0.011217 0.00541748
0.00625 -1.807e-20 0.011217 0.00537161
0.013381 -5.42101e-20 0 0.00534476
-0.013381 0 0 0.00544314
0.0125 0 0.00479858 0.00534821
-0.0125 -1.0842e-19 0.00479858 0.00544007
0.005 0 0.0124878 0.00537619
-0.005 0 0.0124878 0.00541289
0.01375 9.03502e-21 0.00116943 0.00534335
-0.01375 9.03502e-21 0.00116944 0.00544445
-0.00125 5.42101e-20 0.0137433 0.00539913
0.00125 0 0.0137433 0.00538996
0.01 0 0.00994629 0.00535758
-0.01 0 0.00994629 0.00543102
-0.014119 -1.0842e-19 0 0.00544575
0.014119 -5.42101e-20 0 0.00534193
0.01125 -1.807e-20 0.008656 0.00535289
-0.01125 -1.807e-20 0.00865601 0.00543552
-0.01375 0 0.00356873 0.00544449
0.01375 9.03502e-21 0.00356873 0.00534341
-0.00875 0 0.011217 0.00542648
0.00875 -1.807e-20 0.011217 0.00536222
0.00375 -1.807e-20 0.0137433 0.00538075
-0.00375 0 0.0137433 0.00540826
0.0125 0 0.00736572 0.00534817
-0.0125 0 0.00736572 0.00544001
0.0075 0 0.0124878 0.00536686
-0.0075 0 0.0124878 0.00542193
2.26617e-12 0 0.0149988 0.00539449
0.015 -1.0842e-19 0 0.00533856
-0.015 0 0 0.00544886
0.01375 -1.807e-20 0.00608215 0.00534339
-0.01375 3.61401e-20 0.00608215 0.00544445
0.00625 -1.807e-20 0.0137433 0.00537147
-0.00625 0 0.0137433 0.00541735
0.015 -1.0842e-19 0.00233887 0.00533859
-0.015 1.0842e-19 0.00233887 0.00544888
0.0025 0 0.0149988 0.0053853
-0.0025 0 0.0149988 0.00540365
0.015 0 0.00479858 0.0053386
-0.015 -1.0842e-19 0.00479858 0.00544888
0.005 0 0.0149988 0.00537605
-0.005 0 0.0149988 0.00541276
0.015881 -1.0842e-19 0 0.00533517
-0.015881 1.0842e-19 0 0.00545194
0.01125 0 0.011217 0.00535274
-0.01125 0 0.011217 0.00543539
0.0125 0 0.00994629 0.00534806
-0.0125 0 0.00994629 0.00543989
0.01 0 0.0124878 0.00535743
-0.01 0 0.0124878 0.00543088
-0.01375 -1.807e-20 0.008656 0.00544436
0.01375 -3.61401e-20 0.008656 0.00534332
0.01625 -1.807e-20 0.00116943 0.00533374
-0.01625 9.03502e-21 0.00116943 0.00545323
-0.00875 -1.807e-20 0.0137433 0.00542634
0.00875 0 0.0137433 0.00536208
-0.00125 1.807e-20 0.0162494 0.005399
0.00125 -3.61401e-20 0.0162494 0.00538982
-0.016619 0 0 0.00545451
0.016619 -1.0842e-19 0 0.00533231
-0.01625 0 0.00356873 0.00545327
0.01625 -1.807e-20 0.00356872 0.00533377
0.00375 -1.807e-20 0.0162494 0.00538059
-0.00375 -1.807e-20 0.0162494 0.00540813
0.015 0 0.00736572 0.00533855
-0.015 0 0.00736572 0.00544881
0.0075 0 0.0149988 0.00536672
-0.0075 0 0.0149988 0.0054218
0.01625 -1.807e-20 0.00608215 0.00533374
-0.01625 -2.71051e-20 0.00608215 0.00545322
-0.00625 0 0.0162494 0.00541722
0.00625 0 0.0162494 0.00537132
0.0175 -1.0842e-19 0 0.00532889
-0.0175 -1.0842e-19 0 0.00545758
-1.02402e-14 0 0.0175 0.00539437
0.0175 -1.0842e-19 0.00233887 0.00532891
-0.0175 0 0.00233887 0.00545761
0.0125 0 0.0124878 0.0053479
-0.0125 0 0.0124878 0.00543975
0.0025 0 0.0175 0.00538516
-0.0025 0 0.0175 0.00540353
-0.01375 -1.807e-20 0.011217 0.00544421
0.01375 -1.807e-20 0.011217 0.00534317
0.01125 0 0.0137433 0.00535259
-0.01125 -1.807e-20 0.0137433 0.00543525
0.015 0 0.00994629 0.00533844
-0.015 0 0.00994629 0.00544869
0.01 0 0.0149988 0.00535729
-0.01 0 0.0149988 0.00543075
0.0175 0 0.00479858 0.00532891
-0.0175 0 0.00479858 0.00545761
0.005 0 0.0175 0.00537591
-0.005 0 0.0175 0.00541264
-0.018381 -1.0842e-19 0 0.00546063
0.018381 -5.42101e-20 0 0.00532543
0.01625 -1.807e-20 0.008656 0.00533365
-0.01625 -1.807e-20 0.008656 0.00545313
-0.00875 0 0.0162494 0.00542622
0.00875 1.807e-20 0.0162494 0.00536194
0.01875 0 0.00116943 0.00532399
-0.01875 -9.03502e-21 0.00116943 0.00546191
0.00125 -1.807e-20 0.01875 0.0053897
-0.00125 -1.807e-20 0.01875 0.00539889
0.0175 0 0.00736572 0.00532884
-0.0175 0 0.00736572 0.00545754
0.0075 0 0.0175 0.00536658
-0.0075 0 0.0175 0.00542168
0.01875 0 0.00356872 0.00532402
-0.01875 1.807e-20 0.00356873 0.00546196
0.019119 1.0842e-19 0 0.00532253
-0.019119 5.42101e-20 0 0.00546318
0.00375 -1.807e-20 0.01875 0.00538047
-0.00375 -1.807e-20 0.01875 0.00540802
0.01375 0 0.0137433 0.00534302
-0.01375 0 0.0137433 0.00544409
0.015 0 0.0124878 0.00533829
-0.015 0 0.0124878 0.00544855
0.0125 0 0.0149988 0.00534775
-0.0125 0 0.0149988 0.00543963
0.01875 -9.03502e-21 0.00608215 0.00532398
-0.01875 -1.807e-20 0.00608215 0.00546191
0.01625 -1.807e-20 0.011217 0.00533351
-0.01625 -1.807e-20 0.011217 0.00545297
0.01125 1.807e-20 0.0162494 0.00535245
-0.01125 -1.807e-20 0.0162494 0.00543513
0.00625 1.807e-20 0.01875 0.00537119
-0.00625 1.807e-20 0.01875 0.00541711
0.02 0 0 0.00531906
-0.02 -1.0842e-19 0 0.00546623
-1.024e-14 0 0.02 0.00539425
0.0175 0 0.00994629 0.00532873
-0.0175 0 0.00994629 0.00545741
0.02 1.0842e-19 0.00233887 0.00531909
-0.02 0 0.00233887 0.00546626
0.0025 0 0.02 0.00538504
0.01 0 0.0175 0.00535715
-0.0025 0 0.02 0.00540342
-0.01 0 0.0175 0.00543064
0.02 -1.0842e-19 0.00479858 0.0053191
-0.02 0 0.00479858 0.00546626
0.005 0 0.02 0.00537578
-0.005 0 0.02 0.00541253
0.01875 0 0.008656 0.00532389
-0.01875 -1.807e-20 0.008656 0.00546182
0.00875 0 0.01875 0.0053618
-0.00875 0 0.01875 0.00542611
-0.020881 5.42101e-20 0 0.00546925
0.020881 5.42101e-20 0 0.00531555
0.015 0 0.0149988 0.00533814
-0.015 0 0.0149988 0.00544842
-0.02125 -9.03502e-21 0.00116943 0.00547052
0.02125 0 0.00116944 0.00531409
-0.01625 -1.807e-20 0.0137433 0.00545285
0.01625 -1.807e-20 0.0137433 0.00533336
-0.01375 0 0.0162494 0.00544397
0.01375 0 0.0162494 0.00534287
0.00125 -1.807e-20 0.02125 0.00538957
-0.00125 -1.807e-20 0.02125 0.00539876
0.02 0 0.00736572 0.00531904
-0.02 0 0.00736572 0.00546619
0.0075 0 0.02 0.00536644
-0.0075 0 0.02 0.00542157
0.0175 0 0.0124878 0.00532858
-0.0175 0 0.0124878 0.00545727
0.0125 0 0.0175 0.00534762
-0.0125 0 0.0175 0.00543951
-0.02125 0 0.00356873 0.00547056
0.02125 -9.03502e-21 0.00356873 0.00531414
0.00375 -3.61401e-20 0.02125 0.00538034
-0.00375 -1.807e-20 0.02125 0.0054079
0.021619 0 0 0.00531262
-0.021619 5.42101e-20 0 0.00547179
-0.01875 -1.807e-20 0.011217 0.00546166
0.01875 0 0.011217 0.00532375
0.01125 -1.807e-20 0.01875 0.00535231
-0.01125 -1.807e-20 0.01875 0.00543502
-0.02125 -2.71051e-20 0.00608215 0.00547052
0.02125 1.807e-20 0.00608215 0.00531412
-0.00625 1.807e-20 0.02125 0.00541699
0.00625 -1.807e-20 0.02125 0.00537104
0.02 0 0.00994629 0.00531892
-0.02 0 0.00994629 0.00546606
0.01 0 0.02 0.00535701
-0.01 0 0.02 0.00543053
0.0225 0 0 0.00530913
-0.0225 -1.0842e-19 0 0.00547481
-1.02399e-14 0 0.0225 0.00539413
0.0225 -1.0842e-19 0.00233887 0.00530916
-0.0225 1.0842e-19 0.00233887 0.00547484
0.0025 0 0.0225 0.00538492
-0.0025 0 0.0225 0.00540329
-0.02125 -1.807e-20 0.008656 0.00547043
0.02125 -1.807e-20 0.008656 0.00531404
0.01625 -1.807e-20 0.0162494 0.00533321
-0.01625 0 0.0162494 0.00545272
0.00875 -1.807e-20 0.02125 0.00536166
-0.00875 -3.61401e-20 0.02125 0.005426
0.0225 -1.0842e-19 0.00479858 0.00530918
-0.0225 -1.0842e-19 0.00479858 0.00547483
0.0175 0 0.0149988 0.00532843
-0.0175 0 0.0149988 0.00545715
0.005 0 0.0225 0.00537565
-0.005 0 0.0225 0.00541241
0.015 0 0.0175 0.00533799
-0.015 0 0.0175 0.00544831
0.01875 0 0.0137433 0.0053236
-0.01875 -1.807e-20 0.0137433 0.00546153
0.01375 5.42101e-20 0.01875 0.00534274
-0.01375 -3.61401e-20 0.01875 0.00544385
-0.023381 -5.42101e-20 0 0.00547782
0.023381 0 0 0.00530559
0.02 0 0.0124878 0.00531877
-0.02 0 0.0124878 0.00546592
0.0125 0 0.02 0.00534748
-0.0125 0 0.02 0.0054394
0.0225 0 0.00736572 0.00530913
-0.0225 0 0.00736572 0.00547477
0.0075 0 0.0225 0.0053663
-0.0075 0 0.0225 0.00542145
-0.02375 0 0.00116943 0.00547908
0.02375 0 0.00116944 0.00530412
0.00125 1.807e-20 0.02375 0.00538945
-0.00125 -1.807e-20 0.02375 0.00539864
0.02375 -3.61401e-20 0.00356873 0.00530418
-0.02375 1.807e-20 0.00356873 0.0054791
0.02125 -1.807e-20 0.011217 0.00531389
-0.02125 -1.807e-20 0.011217 0.00547027
-0.01125 -1.807e-20 0.02125 0.00543491
0.01125 -1.807e-20 0.02125 0.00535218
0.00375 -1.807e-20 0.02375 0.00538021
-0.00375 0 0.02375 0.00540778
0.024119 -5.42101e-20 0 0.00530263
-0.024119 5.42101e-20 0 0.00548034
0.02375 -1.807e-20 0.00608215 0.00530416
-0.02375 -1.807e-20 0.00608215 0.00547906
-0.00625 -1.807e-20 0.02375 0.00541687
0.00625 -1.807e-20 0.02375 0.0053709
0.0225 0 0.00994629 0.00530902
-0.0225 0 0.00994629 0.00547464
0.01 0 0.0225 0.00535687
-0.01 0 0.0225 0.00543042
0.0175 0 0.0175 0.00532828
-0.0175 0 0.0175 0.00545703
0.01875 -1.807e-20 0.0162494 0.00532345
-0.01875 -1.807e-20 0.0162494 0.00546141
0.01625 -1.807e-20 0.01875 0.00533307
-0.01625 -3.61401e-20 0.01875 0.00545262
0.02 0 0.0149988 0.00531862
-0.02 0 0.0149988 0.00546579
-0.025 -1.0842e-19 0 0.00548334
0.015 0 0.02 0.00533785
-0.015 0 0.02 0.0054482
0.025 0 0 0.00529911
-1.024e-14 0 0.025 0.00539399
0.025 0 0.00233887 0.00529915
-0.025 1.0842e-19 0.00233887 0.00548336
0.0025 0 0.025 0.00538477
-0.0025 0 0.025 0.00540316
0.02375 -1.807e-20 0.008656 0.00530408
-0.02375 -1.807e-20 0.008656 0.00547897
0.02125 -1.807e-20 0.0137433 0.00531374
-0.02125 -1.807e-20 0.0137433 0.00547014
0.01375 -1.807e-20 0.02125 0.0053426
0.00875 0 0.02375 0.00536151
-0.00875 0 0.02375 0.00542587
-0.01375 -3.61401e-20 0.02125 0.00544375
0.025 -1.0842e-19 0.00479858 0.00529918
-0.025 -1.0842e-19 0.00479858 0.00548335
0.005 0 0.025 0.00537549
-0.005 0 0.025 0.00541228
0.0225 0 0.0124878 0.00530887
-0.0225 0 0.0124878 0.00547449
0.0125 0 0.0225 0.00534733
-0.0125 0 0.0225 0.0054393
-0.025881 0 0 0.00548632
0.025881 -1.0842e-19 0 0.00529554
0.025 0 0.00736572 0.00529913
-0.025 0 0.00736572 0.00548328
0.0075 0 0.025 0.00536614
-0.0075 0 0.025 0.00542132
-0.02375 1.807e-20 0.011217 0.00547881
0.02375 -1.807e-20 0.011217 0.00530394
-0.02625 -9.03502e-21 0.00116943 0.00548757
0.02625 -9.03502e-21 0.00116944 0.00529406
0.00125 -3.61401e-20 0.02625 0.0053893
0.01125 0 0.02375 0.00535203
-0.01125 3.61401e-20 0.02375 0.0054348
-0.00125 0 0.02625 0.0053985
-0.02625 -1.807e-20 0.00356873 0.0054876
0.02625 -3.61401e-20 0.00356873 0.00529414
-0.01875 -1.807e-20 0.01875 0.0054613
0.01875 0 0.01875 0.00532331
0.00375 5.42101e-20 0.02625 0.00538005
-0.00375 -1.807e-20 0.02625 0.00540765
0.02 0 0.0175 0.00531848
0.0175 0 0.02 0.00532814
-0.0175 0 0.02 0.00545693
-0.02 0 0.0175 0.00546568
0.026619 1.0842e-19 0 0.00529256
-0.026619 -5.42101e-20 0 0.00548882
0.02125 -1.807e-20 0.0162494 0.00531359
-0.02125 0 0.0162494 0.00547002
0.01625 -1.807e-20 0.02125 0.00533292
-0.01625 -1.807e-20 0.02125 0.00545252
0.025 0 0.00994629 0.00529902
-0.025 0 0.00994629 0.00548315
0.01 0 0.025 0.0053567
-0.01 0 0.025 0.00543029
0.02625 1.807e-20 0.00608215 0.00529412
-0.02625 -1.807e-20 0.00608215 0.00548754
-0.00625 0 0.02625 0.00541673
0.00625 -1.807e-20 0.02625 0.00537073
0.0225 0 0.0149988 0.00530872
-0.0225 0 0.0149988 0.00547437
0.015 0 0.0225 0.0053377
-0.015 0 0.0225 0.0054481
0.02375 -1.807e-20 0.0137433 0.00530379
-0.02375 -1.807e-20 0.0137433 0.00547868
-0.01375 0 0.02375 0.00544364
0.01375 0 0.02375 0.00534244
-1.02401e-14 0 0.0275 0.00539384
0.0275 0 0 0.005289
-0.0275 -1.0842e-19 0 0.00549182
0.0275 -1.0842e-19 0.00233887 0.00528904
-0.0275 -1.0842e-19 0.00233887 0.00549183
0.0025 0 0.0275 0.00538462
-0.0025 0 0.0275 0.00540301
0.02625 -1.807e-20 0.008656 0.00529405
-0.02625 -1.807e-20 0.008656 0.00548744
0.00875 0 0.02625 0.00536134
-0.00875 -3.61401e-20 0.02625 0.00542573
0.0275 -1.0842e-19 0.00479858 0.00528908
-0.0275 -1.0842e-19 0.00479858 0.00549182
0.025 0 0.0124878 0.00529887
-0.025 0 0.0124878 0.005483
0.005 0 0.0275 0.00537533
-0.005 0 0.0275 0.00541213
0.0125 0 0.025 0.00534717
-0.0125 0 0.025 0.00543917
0.02 0 0.02 0.00531833
-0.02 0 0.02 0.00546558
0.01875 0 0.02125 0.00532315
-0.01875 0 0.02125 0.0054612
0.02125 0 0.01875 0.00531345
-0.02125 -1.807e-20 0.01875 0.00546992
-0.028381 -5.42101e-20 0 0.00549479
0.028381 -5.42101e-20 0 0.00528539
0.0275 0 0.00736572 0.00528903
-0.0275 0 0.00736572 0.00549172
0.0075 0 0.0275 0.00536597
-0.0075 0 0.0275 0.00542118
0.0175 0 0.0225 0.00532798
0.0225 0 0.0175 0.00530857
-0.0175 0 0.0225 0.00545683
-0.0225 0 0.0175 0.00547426
0.02625 0 0.011217 0.0052939
-0.02625 -1.807e-20 0.011217 0.00548728
-0.01125 0 0.02625 0.00543466
0.01125 5.42101e-20 0.02625 0.00535184
-0.02875 -2.71051e-20 0.00116943 0.00549603
0.02875 -1.807e-20 0.00116943 0.0052839
0.02375 0 0.0162494 0.00530365
-0.02375 0 0.0162494 0.00547855
0.00125 0 0.02875 0.00538915
0.01625 -1.807e-20 0.02375 0.00533276
-0.01625 -1.807e-20 0.02375 0.00545241
-0.00125 -1.807e-20 0.02875 0.00539834
-0.02875 -1.807e-20 0.00356873 0.00549605
0.02875 9.03502e-21 0.00356872 0.00528398
0.00375 -3.61401e-20 0.02875 0.00537989
-0.00375 -1.807e-20 0.02875 0.0054075
0.029119 5.42101e-20 0 0.00528238
-0.029119 0 0 0.00549728
0.025 0 0.0149988 0.00529872
-0.025 0 0.0149988 0.00548287
0.015 0 0.025 0.00533754
-0.015 0 0.025 0.00544798
0.0275 0 0.00994629 0.00528893
-0.0275 0 0.00994629 0.00549159
0.01 0 0.0275 0.00535653
-0.01 0 0.0275 0.00543015
-0.02875 1.807e-20 0.00608215 0.00549598
0.02875 9.03502e-21 0.00608215 0.00528396
0.00625 1.807e-20 0.02875 0.00537057
-0.00625 -3.61401e-20 0.02875 0.00541659
-0.02625 1.807e-20 0.0137433 0.00548715
0.02625 -1.807e-20 0.0137433 0.00529375
0.01375 -1.807e-20 0.02625 0.00534226
-0.01375 0 0.02625 0.00544351
0.03 0 0 0.00527878
-0.03 -1.0842e-19 0 0.00550025
-1.024e-14 0 0.03 0.00539368
-0.02875 1.807e-20 0.008656 0.00549586
0.02875 -1.807e-20 0.008656 0.00528389
-0.02125 -1.807e-20 0.02125 0.00546981
0.02125 5.42101e-20 0.02125 0.0053133
-0.00875 1.807e-20 0.02875 0.0054256
0.00875 0 0.02875 0.00536117
0.03 0 0.00233887 0.00527883
-0.03 -1.0842e-19 0.00233887 0.00550026
0.02 0 0.0225 0.00531817
0.0225 0 0.02 0.00530842
0.0025 0 0.03 0.00538445
-0.0025 0 0.03 0.00540286
-0.02 0 0.0225 0.00546548
-0.0225 0 0.02 0.00547416
0.0275 0 0.0124878 0.00528878
-0.0275 0 0.0124878 0.00549144
0.0125 0 0.0275 0.00534699
-0.0125 0 0.0275 0.00543904
0.02375 0 0.01875 0.0053035
-0.01875 -1.807e-20 0.02375 0.0054611
-0.02375 -3.61401e-20 0.01875 0.00547846
0.01875 -3.61401e-20 0.02375 0.00532299
0.03 0 0.00479858 0.00527887
-0.03 -1.0842e-19 0.00479858 0.00550023
0.005 0 0.03 0.00537516
-0.005 0 0.03 0.00541198
0.0175 0 0.025 0.00532781
0.025 0 0.0175 0.00529857
-0.0175 0 0.025 0.00545671
-0.025 0 0.0175 0.00548276
0.02875 -1.807e-20 0.011217 0.00528376
-0.02875 0 0.011217 0.00549569
0.02625 0 0.0162494 0.0052936
-0.02625 -1.807e-20 0.0162494 0.00548703
0.01125 -1.807e-20 0.02875 0.00535167
0.01625 -1.807e-20 0.02625 0.00533258
-0.01125 0 0.02875 0.00543453
-0.01625 -1.807e-20 0.02625 0.00545228
0.030881 5.42101e-20 0 0.00527514
-0.030881 0 0 0.0055032
0.03 0 0.00736572 0.00527883
-0.03 0 0.00736572 0.00550012
0.0075 0 0.03 0.0053658
-0.0075 0 0.03 0.00542104
-0.03125 3.61401e-20 0.00116943 0.00550443
0.03125 -9.03502e-21 0.00116943 0.00527363
0.00125 0 0.03125 0.00538897
-0.00125 0 0.03125 0.00539817
0.0275 0 0.0149988 0.00528862
-0.0275 0 0.0149988 0.00549131
0.015 0 0.0275 0.00533736
-0.015 0 0.0275 0.00544785
-0.03125 0 0.00356873 0.00550444
0.03125 2.71051e-20 0.00356872 0.00527372
0.00375 -1.807e-20 0.03125 0.00537971
-0.00375 -3.61401e-20 0.03125 0.00540733
0.03 0 0.00994629 0.00527873
-0.03 0 0.00994629 0.00549997
-0.031619 0 0 0.00550566
0.031619 1.0842e-19 0 0.0052721
0.01 0 0.03 0.00535635
-0.01 0 0.03 0.00543001
0.0225 0 0.0225 0.00530826
-0.0225 0 0.0225 0.00547406
-0.03125 0 0.00608215 0.00550435
0.03125 0 0.00608215 0.0052737
-0.02875 1.807e-20 0.0137433 0.00549556
0.02875 0 0.0137433 0.00528361
0.00625 -1.807e-20 0.03125 0.00537038
-0.00625 0 0.03125 0.00541644
0.02125 -1.807e-20 0.02375 0.00531313
0.01375 0 0.02875 0.00534208
-0.01375 -1.807e-20 0.02875 0.00544338
0.02375 -1.807e-20 0.02125 0.00530334
-0.02375 -3.61401e-20 0.02125 0.00547836
-0.02125 0 0.02375 0.00546971
0.025 0 0.02 0.00529841
0.02 0 0.025 0.005318
-0.02 0 0.025 0.00546536
-0.025 0 0.02 0.00548267
-0.01875 0 0.02625 0.00546097
-0.02625 -1.807e-20 0.01875 0.00548694
0.02625 0 0.01875 0.00529344
0.01875 3.61401e-20 0.02625 0.00532282
0.03125 -1.807e-20 0.008656 0.00527365
-0.03125 -1.807e-20 0.008656 0.00550422
-0.00875 0 0.03125 0.00542544
0.00875 3.61401e-20 0.03125 0.00536097
0.03 0 0.0124878 0.00527858
-0.03 0 0.0124878 0.00549982
0.0125 0 0.03 0.00534681
-0.0125 0 0.03 0.0054389
0.0325 -1.0842e-19 0 0.00526847
-0.0325 -1.0842e-19 0 0.00550859
-1.02401e-14 0 0.0325 0.0053935
0.0325 0 0.00233886 0.00526852
-0.0325 1.0842e-19 0.00233887 0.0055086
0.0275 0 0.0175 0.00528847
0.0175 0 0.0275 0.00532763
-0.0175 0 0.0275 0.00545658
-0.0275 0 0.0175 0.00549121
0.0025 0 0.0325 0.00538427
-0.0025 0 0.0325 0.00540268
0.0325 0 0.00479858 0.00526856
-0.0325 -1.0842e-19 0.00479858 0.00550856
0.005 0 0.0325 0.00537497
-0.005 0 0.0325 0.00541181
-0.02875 0 0.0162494 0.00549544
0.02875 -1.807e-20 0.0162494 0.00528345
-0.01625 -1.807e-20 0.02875 0.00545216
0.01625 -1.807e-20 0.02875 0.00533241
0.03125 -1.807e-20 0.011217 0.00527351
-0.03125 -1.807e-20 0.011217 0.00550404
0.01125 3.61401e-20 0.03125 0.00535148
-0.01125 3.61401e-20 0.03125 0.00543438
0.0325 0 0.00736572 0.00526853
-0.0325 0 0.00736572 0.00550844
0.0075 0 0.0325 0.0053656
-0.0075 0 0.0325 0.00542087
0.033381 0 0 0.00526479
-0.033381 0 0 0.0055115
0.03 0 0.0149988 0.00527843
-0.03 0 0.0149988 0.00549969
0.015 0 0.03 0.00533717
-0.015 0 0.03 0.00544771
-0.02375 -1.807e-20 0.02375 0.00547826
0.02375 -1.807e-20 0.02375 0.00530318
0.025 0 0.0225 0.00529825
0.0225 0 0.025 0.00530808
-0.0225 0 0.025 0.00547394
-0.025 0 0.0225 0.00548257
-0.03375 3.61401e-20 0.00116943 0.00551271
0.03375 1.807e-20 0.00116943 0.00526326
0.00125 0 0.03375 0.00538878
0.02625 0 0.02125 0.00529328
-0.02125 -1.807e-20 0.02625 0.00546959
-0.02625 -1.807e-20 0.02125 0.00548684
0.02125 0 0.02625 0.00531294
-0.00125 -1.807e-20 0.03375 0.00539799
0.03375 0 0.00356872 0.00526335
-0.03375 0 0.00356873 0.00551273
0.00375 -1.807e-20 0.03375 0.00537951
-0.00375 -1.807e-20 0.03375 0.00540715
0.0325 0 0.00994629 0.00526844
-0.0325 0 0.00994629 0.00550829
0.0275 0 0.02 0.00528831
0.02 0 0.0275 0.00531781
-0.02 0 0.0275 0.00546523
-0.0275 0 0.02 0.00549111
0.01 0 0.0325 0.00535615
-0.01 0 0.0325 0.00542984
-0.034119 0 0 0.00551392
0.034119 0 0 0.00526172
0.03125 -1.807e-20 0.0137433 0.00527336
-0.03125 0 0.0137433 0.00550391
-0.01375 0 0.03125 0.00544323
0.01375 -1.807e-20 0.03125 0.0053419
-0.03375 -1.807e-20 0.00608215 0.00551263
0.03375 0 0.00608215 0.00526335
0.01875 0 0.02875 0.00532262
-0.01875 0 0.02875 0.00546085
-0.02875 -1.807e-20 0.01875 0.00549535
0.02875 0 0.01875 0.00528329
0.00625 -1.807e-20 0.03375 0.00537018
-0.00625 -1.807e-20 0.03375 0.00541625
0.03 0 0.0175 0.00527828
0.0175 0 0.03 0.00532744
-0.0175 0 0.03 0.00545645
-0.03 0 0.0175 0.00549959
0.0325 0 0.0124878 0.00526829
-0.0325 0 0.0124878 0.00550814
0.0125 0 0.0325 0.00534661
-0.0125 0 0.0325 0.00543874
-0.03375 0 0.008656 0.0055125
0.03375 0 0.008656 0.0052633
0.00875 3.61401e-20 0.03375 0.00536076
-0.00875 3.61401e-20 0.03375 0.00542526
0.035 0 0 0.00525805
-0.035 -1.0842e-19 0 0.00551677
-1.02402e-14 0 0.035 0.00539331
0.035 0 0.00233887 0.0052581
-0.035 -1.0842e-19 0.00233887 0.00551679
0.0025 0 0.035 0.00538406
-0.0025 0 0.035 0.0054025
0.03125 0 0.0162494 0.00527321
-0.03125 -1.807e-20 0.0162494 0.00550379
-0.01625 -1.807e-20 0.03125 0.00545201
0.01625 -1.807e-20 0.03125 0.00533221
0.035 0 0.00479858 0.00525816
-0.035 -1.0842e-19 0.00479858 0.00551677
0.025 0 0.025 0.00529807
0.005 0 0.035 0.00537475
-0.005 0 0.035 0.00541163
-0.025 0 0.025 0.00548246
0.02625 0 0.02375 0.00529312
0.02375 3.61401e-20 0.02625 0.00530297
-0.02375 -1.807e-20 0.02625 0.00547814
-0.02625 3.61401e-20 0.02375 0.00548674
0.0275 0 0.0225 0.00528815
0.0225 0 0.0275 0.00530789
-0.0225 0 0.0275 0.00547382
-0.0275 0 0.0225 0.00549102
0.03375 -1.807e-20 0.011217 0.00526318
-0.03375 1.807e-20 0.011217 0.00551233
0.01125 3.61401e-20 0.03375 0.00535128
-0.01125 3.61401e-20 0.03375 0.0054342
0.02875 0 0.02125 0.00528314
0.02125 0 0.02875 0.00531275
-0.02125 -1.807e-20 0.02875 0.00546947
-0.02875 5.42101e-20 0.02125 0.00549526
0.035 0 0.00736572 0.00525814
-0.035 0 0.00736572 0.00551666
0.0325 0 0.0149988 0.00526814
-0.0325 0 0.0149988 0.00550801
0.015 0 0.0325 0.00533696
-0.015 0 0.0325 0.00544755
0.0075 0 0.035 0.00536538
-0.0075 0 0.035 0.00542069
0.035881 5.42101e-20 0 0.00525434
-0.035881 0 0 0.00551961
0.03 0 0.02 0.00527812
0.02 0 0.03 0.00531761
-0.02 0 0.03 0.00546511
-0.03 0 0.02 0.0054995
-0.03625 -1.807e-20 0.00116943 0.0055208
0.03625 -2.71051e-20 0.00116943 0.0052528
0.00125 1.807e-20 0.03625 0.00538857
-0.00125 -3.61401e-20 0.03625 0.00539779
0.035 0 0.00994629 0.00525805
-0.035 0 0.00994629 0.00551652
0.01 0 0.035 0.00535593
-0.01 0 0.035 0.00542967
0.03625 2.71051e-20 0.00356872 0.0052529
-0.03625 0 0.00356873 0.00552085
-0.03375 -1.807e-20 0.0137433 0.00551219
0.03375 0 0.0137433 0.00526303
0.00375 0 0.03625 0.00537929
-0.01375 -1.807e-20 0.03375 0.00544306
0.01875 1.807e-20 0.03125 0.00532242
-0.01875 3.61401e-20 0.03125 0.0054607
0.03125 0 0.01875 0.00527305
-0.03125 0 0.01875 0.0055037
0.01375 3.61401e-20 0.03375 0.00534167
-0.00375 0 0.03625 0.00540696
-0.036619 0 0 0.005522
0.036619 0 0 0.00525125
-0.03625 3.61401e-20 0.00608215 0.00552079
0.03625 9.03502e-21 0.00608215 0.00525291
0.00625 -1.807e-20 0.03625 0.00536994
-0.00625 3.61401e-20 0.03625 0.00541606
0.0325 0 0.0175 0.00526799
0.0175 0 0.0325 0.00532723
-0.0175 0 0.0325 0.00545629
-0.0325 0 0.0175 0.00550791
0.02625 0 0.02625 0.00529292
-0.02625 -1.807e-20 0.02625 0.00548663
0.035 0 0.0124878 0.00525791
-0.035 0 0.0124878 0.00551638
0.0275 0 0.025 0.00528797
0.025 0 0.0275 0.00529788
0.0125 0 0.035 0.00534639
-0.0125 0 0.035 0.00543857
-0.025 0 0.0275 0.00548234
-0.0275 0 0.025 0.00549092
0.03625 -1.807e-20 0.008656 0.00525286
-0.03625 -3.61401e-20 0.008656 0.00552068
-0.00875 0 0.03625 0.00542508
-0.02375 0 0.02875 0.00547802
0.02875 -1.807e-20 0.02375 0.00528297
0.02375 0 0.02875 0.00530279
-0.02875 1.807e-20 0.02375 0.00549517
0.00875 -3.61401e-20 0.03625 0.00536053
0.03375 -1.807e-20 0.0162494 0.00526287
-0.03375 -1.807e-20 0.0162494 0.00551208
0.01625 0 0.03375 0.00533198
-0.01625 0 0.03375 0.00545183
0.0375 0 0 0.00524756
-0.0375 -1.0842e-19 0 0.00552486
0.03 0 0.0225 0.00527796
0.0225 0 0.03 0.00530769
-1.024e-14 0 0.0375 0.00539309
-0.0225 0 0.03 0.0054737
-0.03 0 0.0225 0.00549941
0.0375 0 0.00233887 0.00524761
-0.0375 -1.0842e-19 0.00233887 0.00552489
0.0025 0 0.0375 0.00538383
-0.0025 0 0.0375 0.00540229
-0.02125 1.807e-20 0.03125 0.00546933
0.03125 -1.807e-20 0.02125 0.00527289
-0.03125 0 0.02125 0.00550362
0.02125 0 0.03125 0.00531255
0.0375 1.0842e-19 0.00479858 0.00524767
-0.0375 -1.0842e-19 0.00479858 0.00552489
0.005 0 0.0375 0.00537451
-0.005 0 0.0375 0.00541143
-0.03625 -3.61401e-20 0.011217 0.00552053
0.03625 0 0.011217 0.00525274
-0.01125 -1.807e-20 0.03625 0.00543402
0.01125 -1.807e-20 0.03625 0.00535105
0.035 0 0.0149988 0.00525776
-0.035 0 0.0149988 0.00551626
0.015 0 0.035 0.00533674
-0.015 0 0.035 0.00544738
0.0325 0 0.02 0.00526783
0.02 0 0.0325 0.00531739
-0.02 0 0.0325 0.00546495
-0.0325 0 0.02 0.00550782
0.0375 0 0.00736572 0.00524765
-0.0375 0 0.00736572 0.00552482
0.0075 0 0.0375 0.00536514
-0.0075 0 0.0375 0.00542049
0.038381 5.42101e-20 0 0.00524383
-0.038381 -5.42101e-20 0 0.00552771
0.03375 -1.807e-20 0.01875 0.00526271
-0.01875 -1.807e-20 0.03375 0.00546053
-0.03375 0 0.01875 0.005512
0.01875 -3.61401e-20 0.03375 0.0053222
0.03875 9.03502e-21 0.00116943 0.00524227
-0.03875 -9.03502e-21 0.00116943 0.00552892
0.03625 5.42101e-20 0.0137433 0.0052526
-0.03625 -1.807e-20 0.0137433 0.00552041
0.01375 1.807e-20 0.03625 0.00534144
-0.01375 -1.807e-20 0.03625 0.00544288
0.00125 0 0.0387501 0.00538832
-0.00125 -1.807e-20 0.0387501 0.00539755
0.0375 0 0.00994629 0.00524756
-0.0375 0 0.00994629 0.0055247
0.01 0 0.0375 0.00535569
-0.01 0 0.0375 0.00542947
0.0275 0 0.0275 0.00528777
-0.0275 0 0.0275 0.00549081
0.03875 3.61401e-20 0.00356872 0.00524237
-0.03875 0 0.00356873 0.00552897
0.02625 3.61401e-20 0.02875 0.00529272
-0.02625 -1.807e-20 0.02875 0.00548652
0.02875 -1.807e-20 0.02625 0.00528277
-0.02875 0 0.02625 0.00549506
0.00375 1.807e-20 0.0387501 0.00537903
-0.00375 -1.807e-20 0.0387501 0.00540673
0.03 0 0.025 0.00527777
0.025 0 0.03 0.00529768
-0.025 0 0.03 0.00548222
-0.03 0 0.025 0.00549931
-0.039119 0 0 0.00553012
0.039119 -5.42101e-20 0 0.0052407
0.035 0 0.0175 0.0052576
0.0175 0 0.035 0.00532699
-0.0175 0 0.035 0.00545612
-0.035 0 0.0175 0.00551616
0.03875 9.03502e-21 0.00608215 0.00524237
-0.03875 -1.807e-20 0.00608215 0.00552892
-0.03125 -1.807e-20 0.02375 0.00550353
0.02375 0 0.03125 0.00530258
0.03125 -1.807e-20 0.02375 0.00527272
-0.02375 -1.807e-20 0.03125 0.00547789
0.00625 0 0.0387501 0.00536968
-0.00625 0 0.0387501 0.00541583
0.0375 0 0.0124878 0.00524743
-0.0375 0 0.0124878 0.00552456
0.0325 0 0.0225 0.00526766
0.0125 0 0.0375 0.00534615
0.0225 0 0.0325 0.00530747
-0.0125 0 0.0375 0.00543837
-0.0225 0 0.0325 0.00547355
-0.0325 0 0.0225 0.00550773
0.03875 -9.03502e-21 0.008656 0.00524234
-0.03875 -1.807e-20 0.00865601 0.00552885
0.03625 0 0.0162494 0.00525244
-0.03625 -3.61401e-20 0.0162494 0.0055203
0.01625 -1.807e-20 0.03625 0.00533174
-0.01625 -1.807e-20 0.03625 0.00545166
0.00875 0 0.0387501 0.00536028
-0.00875 -1.807e-20 0.0387501 0.00542485
0.03375 -1.807e-20 0.02125 0.00526255
-0.02125 1.807e-20 0.03375 0.00546917
0.02125 0 0.03375 0.00531231
-0.03375 -1.807e-20 0.02125 0.00551191
0.04 0 0 0.00523696
-0.04 -1.0842e-19 0 0.00553301
-1.02399e-14 0 0.0400002 0.00539285
0.04 1.0842e-19 0.00233887 0.00523702
-0.04 -1.0842e-19 0.00233887 0.00553303
0.0025 0 0.0400002 0.00538358
-0.0025 0 0.0400002 0.00540206
0.04 0 0.00479858 0.00523708
-0.04 -1.0842e-19 0.00479858 0.00553304
0.035 0 0.02 0.00525744
0.02 0 0.035 0.00531716
-0.02 0 0.035 0.00546479
-0.035 0 0.02 0.00551608
0.005 0 0.0400002 0.00537426
-0.005 0 0.0400002 0.0054112
-0.03875 1.807e-20 0.011217 0.0055287
0.03875 -1.807e-20 0.011217 0.0052422
-0.01125 -3.61401e-20 0.0387501 0.0054338
0.01125 -1.807e-20 0.0387501 0.00535079
0.0375 0 0.0149988 0.00524727
-0.0375 0 0.0149988 0.00552446
0.015 0 0.0375 0.00533649