# U  POINT_DATA 35046
# x  y  z  U_x  U_y  U_z
0 -0.000880995 1.47237e-08 5.17704e-07 -3.48441e-08 9.21164e-11
0 0.000368999 0.00116943 0.0646163 -0.00438065 1.15562e-05
0 0.00161903 1.54918e-08 5.44493e-07 -3.70655e-08 9.90181e-11
1.0842e-19 -0.00213101 0.00116943 0.0646416 -0.00433262 1.13145e-05
1.27264e-19 -0.000881009 0.00233888 0.0801944 -0.00500246 1.96166e-05
0 0.00161901 0.00233888 0.0801678 -0.00505519 2.01105e-05
1.0842e-19 0.002869 0.00116943 0.0645897 -0.00442911 1.18172e-05
0 -0.00338099 1.44485e-08 5.0822e-07 -3.38196e-08 8.85723e-11
1.0842e-19 0.000368999 0.00356872 0.0959955 -0.00568716 2.82889e-05
8.27181e-25 -0.00338099 0.00233888 0.0802199 -0.00495014 1.91549e-05
0 0.00411903 1.63242e-08 5.73508e-07 -3.94861e-08 1.06715e-10
1.0842e-19 -0.002131 0.00356872 0.0960222 -0.00563007 2.75688e-05
1.0842e-19 0.002869 0.00356872 0.0959677 -0.00574465 2.90495e-05
0 0.00411901 0.00233888 0.0801401 -0.00510835 2.06356e-05
-1.0842e-19 -0.004631 0.00116943 0.0646658 -0.00428501 1.10907e-05
4.1359e-25 -0.000881003 0.00479858 0.103256 -0.00581753 3.42726e-05
-4.1359e-25 0.001619 0.00479858 0.103228 -0.00587523 3.52451e-05
-1.0842e-19 0.005369 0.00116944 0.0645621 -0.00447801 1.20973e-05
0 -0.004631 0.00356872 0.096048 -0.00557339 2.69004e-05
4.1359e-25 -0.003381 0.00479858 0.103282 -0.00576022 3.33596e-05
0 -0.00588099 1.42849e-08 5.0265e-07 -3.30709e-08 8.58933e-11
1.0842e-19 0.000369 0.00608215 0.110593 -0.0060077 4.12938e-05
0 0.004119 0.00479858 0.1032 -0.00593331 3.62793e-05
4.09124e-21 -0.005881 0.00233887 0.0802443 -0.00489823 1.87235e-05
-1.0842e-19 -0.002131 0.00608215 0.11062 -0.00594977 4.0122e-05
-1.0842e-19 0.005369 0.00356873 0.095939 -0.00580257 2.98563e-05
0 0.00661901 1.60129e-08 5.62324e-07 -3.91576e-08 1.07151e-10
0 0.002869 0.00608215 0.110565 -0.00606599 4.25382e-05
0 0.00661901 0.00233888 0.0801113 -0.00516193 2.1193e-05
0 -0.007131 0.00116944 0.0646888 -0.0042378 1.0874e-05
0 -0.000881001 0.00736572 0.115303 -0.00601101 4.51879e-05
0 0.001619 0.00736572 0.115275 -0.00606873 4.66159e-05
-1.44385e-19 -0.005881 0.00479858 0.103308 -0.00570328 3.25065e-05
-1.0842e-19 -0.004631 0.00608215 0.110647 -0.0058922 3.90243e-05
2.1684e-19 0.00786899 0.00116944 0.0645331 -0.00452733 1.23925e-05
-1.0842e-19 -0.007131 0.00356872 0.0960729 -0.00551709 2.62768e-05
-1.03398e-25 -0.003381 0.00736572 0.11533 -0.00595363 4.38482e-05
-1.0842e-19 0.005369 0.00608215 0.110536 -0.00612466 4.38706e-05
0 0.006619 0.00479858 0.10317 -0.0059918 3.73802e-05
0 -0.00838099 4.50472e-10 1.58564e-08 -1.03144e-09 2.66073e-12
1.03398e-25 0.004119 0.00736572 0.115247 -0.00612681 4.81416e-05
-2.1684e-19 0.007869 0.00356873 0.0959091 -0.0058609 3.07123e-05
-1.0842e-19 0.000369 0.008656 0.119993 -0.00607192 5.04721e-05
5.65031e-20 -0.008381 0.00233887 0.0802677 -0.00484672 1.83211e-05
0 -0.002131 0.008656 0.120021 -0.00601475 4.888e-05
0 0.009119 1.29064e-08 4.53027e-07 -3.19062e-08 8.85011e-11
-1.0842e-19 0.002869 0.008656 0.119965 -0.00612943 5.21764e-05
1.0842e-19 -0.007131 0.00608215 0.110672 -0.00583501 3.79955e-05
0 0.009119 0.00233887 0.0800812 -0.00521593 2.17912e-05
-5.22573e-20 -0.005881 0.00736572 0.115356 -0.0058966 4.25911e-05
0 -0.008381 0.00479858 0.103332 -0.00564673 3.17092e-05
-2.1684e-19 -0.009631 0.00116943 0.0647106 -0.004191 1.06818e-05
0 -0.004631 0.008656 0.120047 -0.0059579 4.73819e-05
0 0.006619 0.00736572 0.115217 -0.00618523 4.97693e-05
0 0.007869 0.00608215 0.110506 -0.00618368 4.52868e-05
0 -0.000881 0.00994629 0.123481 -0.00602769 5.3975e-05
2.58494e-26 0.001619 0.00994629 0.123453 -0.00608443 5.58311e-05
0 0.005369 0.00865601 0.119936 -0.00618726 5.39988e-05
0 -0.009631 0.00356872 0.0960968 -0.00546121 2.56935e-05
0 0.009119 0.00479858 0.10314 -0.00605067 3.85553e-05
2.1684e-19 0.010369 0.00116943 0.0645028 -0.00457709 1.27165e-05
-2.58494e-26 -0.003381 0.00994629 0.123508 -0.00597127 5.2236e-05
-2.58494e-26 0.004119 0.00994629 0.123424 -0.00614148 5.78108e-05
0 -0.010881 1.32897e-08 4.6795e-07 -3.00949e-08 7.71783e-11
0 0.010369 0.00356872 0.0958781 -0.00591964 3.16391e-05
0 -0.010881 0.00233886 0.0802901 -0.00479561 1.79464e-05
0 -0.008381 0.00736572 0.115381 -0.00583992 4.14154e-05
-1.0842e-19 -0.007131 0.00865601 0.120073 -0.0059014 4.59773e-05
0 0.000369 0.011217 0.126922 -0.00604012 5.92485e-05
-1.0842e-19 -0.009631 0.00608215 0.110697 -0.00577816 3.70366e-05
1.0842e-19 -0.002131 0.011217 0.12695 -0.00598412 5.72542e-05
0 -0.005881 0.00994629 0.123534 -0.00591516 5.06057e-05
-1.0842e-19 0.002869 0.011217 0.126893 -0.00609641 6.138e-05
0 0.011619 7.15996e-09 2.63164e-07 -1.87455e-08 5.27786e-11
-1.0842e-19 0.007869 0.008656 0.119905 -0.00624544 5.59396e-05
0 0.009119 0.00736572 0.115186 -0.00624401 5.14995e-05
5.74117e-20 0.011619 0.00233887 0.08005 -0.00527036 2.24325e-05
-2.06795e-25 -0.010881 0.00479858 0.103356 -0.00559055 3.09648e-05
-2.58494e-26 0.006619 0.00994629 0.123394 -0.00619886 5.99182e-05
1.0842e-19 0.010369 0.00608215 0.110475 -0.00624308 4.67964e-05
0 -0.004631 0.011217 0.126976 -0.00592844 5.53847e-05
0 -0.012131 0.00116943 0.0647315 -0.00414461 1.04978e-05
0 0.012022 0.00233887 0.0800447 -0.00527921 2.25421e-05
1.0842e-19 0.005369 0.011217 0.126864 -0.00615301 6.36385e-05
0 -0.000881 0.0124878 0.12972 -0.00597593 6.3154e-05
8.27181e-25 0.0125545 0 0 0 0
4.03897e-28 0.011619 0.00479858 0.103108 -0.00610996 3.9806e-05
-3.23117e-27 0.001619 0.0124878 0.129692 -0.00603142 6.5403e-05
-2.42338e-27 0.011619 0.00491649 0.103661 -0.00611882 4.04269e-05
2.1684e-19 -0.012131 0.00356872 0.0961198 -0.00540571 2.5148e-05
0 0.012869 0.00116944 0.0644712 -0.0046273 1.3063e-05
-4.32176e-20 -0.003381 0.0124878 0.129747 -0.00592073 6.10476e-05
-2.1684e-19 -0.009631 0.00865601 0.120098 -0.00584521 4.46662e-05
-7.46466e-20 -0.008381 0.00994629 0.12356 -0.00585938 4.90784e-05
-1.03398e-25 -0.010881 0.00736572 0.115405 -0.00578357 4.03164e-05
3.23117e-27 0.004119 0.0124878 0.129663 -0.0060872 6.77958e-05
0 -0.007131 0.011217 0.127002 -0.00587306 5.36379e-05
-1.0842e-19 0.012869 0.00356873 0.0958461 -0.00597882 3.26169e-05
1.65436e-24 -0.013381 1.29863e-08 4.57412e-07 -2.90837e-08 7.41773e-11
2.58494e-26 0.0112589 0.00736572 0.115159 -0.00629463 5.30702e-05
-4.67728e-20 0.009119 0.00994629 0.123363 -0.00625657 6.21576e-05
1.0842e-19 0.010369 0.008656 0.119874 -0.00630394 5.79948e-05
0 -0.012131 0.00608215 0.11072 -0.00572167 3.61415e-05
0 -0.013381 0.00233886 0.0803116 -0.0047449 1.75984e-05
-2.1684e-19 0.007869 0.011217 0.126834 -0.00620993 6.60438e-05
1.0842e-19 0.000369 0.0137433 0.132478 -0.00596722 6.92151e-05
1.29247e-26 0.011619 0.00736572 0.115154 -0.00630315 5.33345e-05
3.16399e-20 -0.005881 0.0124878 0.129773 -0.00586583 5.90756e-05
1.0842e-19 -0.002131 0.0137433 0.132506 -0.00591252 6.68582e-05
0 0.002869 0.0137433 0.13245 -0.0060222 7.17266e-05
0 0.014119 1.19736e-08 4.40047e-07 -3.18269e-08 9.01578e-11
0 0.006619 0.0124878 0.129633 -0.00614328 7.0339e-05
2.06795e-25 -0.013381 0.00479858 0.103379 -0.00553474 3.027e-05
-1.0842e-19 0.012869 0.00608215 0.110443 -0.00630288 4.83917e-05
-9.36683e-20 0.014119 0.00233887 0.0800174 -0.00532523 2.31121e-05
1.0842e-19 -0.004631 0.0137433 0.132533 -0.00585811 6.46545e-05
-1.0842e-19 -0.014631 0.00116943 0.0647515 -0.00409861 1.03311e-05
0 -0.010881 0.00994629 0.123584 -0.00580389 4.76445e-05
1.0842e-19 0.005369 0.0137433 0.13242 -0.00607747 7.43948e-05
0 -0.009631 0.011217 0.127027 -0.00581798 5.19927e-05
-3.23117e-27 0.010999 0.00994629 0.123339 -0.00630021 6.39452e-05
0 -0.012131 0.00865601 0.120122 -0.00578934 4.34347e-05
2.15433e-20 0.014119 0.00479858 0.103075 -0.00616962 4.11325e-05
4.03897e-28 -0.000881 0.0149988 0.134864 -0.00589385 7.43222e-05
0 -0.008381 0.0124878 0.129799 -0.00581121 5.7223e-05
0 -0.014631 0.00356872 0.096142 -0.00535059 2.46468e-05
4.03897e-28 0.001619 0.0149988 0.134836 -0.00594803 7.69264e-05
0 -0.013381 0.00736572 0.115429 -0.00572754 3.92839e-05
0 0.010369 0.011217 0.126803 -0.00626715 6.85976e-05
0 0.011619 0.00994629 0.123331 -0.0063146 6.45347e-05
4.03897e-28 -0.003381 0.0149988 0.134891 -0.00583994 7.18803e-05
0 0.015369 0.00116944 0.0644379 -0.00467793 1.34271e-05
-1.61559e-27 0.009119 0.0124878 0.129602 -0.00619966 7.30435e-05
0 -0.007131 0.0137433 0.132559 -0.00580396 6.25879e-05
0 0.012869 0.008656 0.119842 -0.00636281 6.01757e-05
0 0.004119 0.0149988 0.134807 -0.00600248 7.96984e-05
0 0.015369 0.00356873 0.0958126 -0.00603842 3.36574e-05
0 0.007869 0.0137433 0.13239 -0.00613302 7.72338e-05
0 -0.014631 0.00608215 0.110744 -0.0056655 3.52988e-05
1.65436e-24 -0.015881 1.30339e-08 4.59225e-07 -2.88675e-08 7.32161e-11
-1.06735e-20 0.014119 0.00736572 0.115122 -0.00636266 5.52865e-05
0 -0.015881 0.00233887 0.0803323 -0.00469457 1.7273e-05
4.03897e-28 -0.005881 0.0149988 0.134918 -0.0057863 6.95905e-05
0 0.000369 0.0162494 0.137218 -0.00587458 8.19428e-05
0 -0.002131 0.0162494 0.137246 -0.00582118 7.92562e-05
0 0.006619 0.0149988 0.134777 -0.00605721 8.2648e-05
2.1684e-19 0.002869 0.0162494 0.137189 -0.00592822 8.48041e-05
8.07794e-28 0.010809 0.0124878 0.129581 -0.00623797 7.49867e-05
1.0842e-19 -0.012131 0.011217 0.127052 -0.00576317 5.04466e-05
0 0.015369 0.00608215 0.11041 -0.00636304 5.00952e-05
0 -0.010881 0.0124878 0.129824 -0.00575688 5.54805e-05
0 -0.015881 0.00479858 0.103401 -0.00547927 2.96214e-05
0 0.016619 1.58212e-08 5.54728e-07 -4.05843e-08 1.16969e-10
-2.58494e-26 -0.013381 0.00994629 0.123608 -0.00574871 4.62972e-05
1.0842e-19 -0.009631 0.0137433 0.132584 -0.00575011 6.06377e-05
5.21943e-20 0.016619 0.00233888 0.0799832 -0.00538052 2.38358e-05
1.0842e-19 -0.004631 0.0162494 0.137273 -0.00576805 7.67363e-05
-2.1684e-19 -0.014631 0.00865601 0.120145 -0.00573377 4.22733e-05
4.37642e-20 0.011619 0.0124878 0.12957 -0.00625634 7.5918e-05
2.1684e-19 0.012869 0.011217 0.126771 -0.00632469 7.13137e-05
1.0842e-19 0.005369 0.0162494 0.13716 -0.00598214 8.78509e-05
-2.1684e-19 -0.017131 0.00116943 0.0647706 -0.00405303 1.01632e-05
-3.3645e-20 -0.008381 0.0149988 0.134943 -0.00573292 6.74367e-05
0 0.010369 0.0137433 0.132358 -0.00618885 8.0252e-05
2.63824e-20 0.014119 0.00994629 0.123299 -0.00637296 6.70655e-05
6.91577e-20 0.016619 0.00479858 0.103041 -0.0062297 4.25485e-05
0 -0.017131 0.00356872 0.0961633 -0.00529584 2.41758e-05
0 -0.015881 0.00736572 0.115452 -0.00567184 3.83149e-05
4.89094e-29 -0.000881 0.0174897 0.139318 -0.00579716 8.84938e-05
0 -0.000881 0.0175 0.139336 -0.00579676 8.85522e-05
0 0.009119 0.0149988 0.134746 -0.0061122 8.57857e-05
-1.16751e-28 0.001619 0.0174863 0.139284 -0.00585016 9.14087e-05
-9.67102e-20 0.001619 0.0175 0.139308 -0.00584963 9.14883e-05
1.0842e-19 0.015369 0.008656 0.119809 -0.00642201 6.25054e-05
2.1684e-19 -0.007131 0.0162494 0.137299 -0.00571516 7.43675e-05
-1.86171e-28 -0.003381 0.0174919 0.139349 -0.00574445 8.57502e-05
-1.91544e-20 -0.003381 0.0175 0.139364 -0.00574414 8.57954e-05
0 0.017869 0.00116944 0.064403 -0.00472899 1.38144e-05
5.20648e-29 0.004119 0.0174843 0.139251 -0.00590337 9.452e-05
0 0.004119 0.0175 0.139279 -0.00590274 9.46137e-05
0 0.007869 0.0162494 0.13713 -0.00603632 9.10946e-05
2.90125e-20 0.016619 0.00736572 0.115088 -0.00642252 5.73652e-05
1.0842e-19 -0.017131 0.00608215 0.110766 -0.00560967 3.45149e-05
1.0842e-19 0.017869 0.00356873 0.0957778 -0.00609843 3.47715e-05
0 -0.013381 0.0124878 0.129848 -0.00570283 5.38459e-05
2.1684e-19 -0.012131 0.0137433 0.132609 -0.00569652 5.88103e-05
0 -0.018381 1.33208e-08 4.6947e-07 -2.9176e-08 7.36441e-11
5.04871e-29 0.0106331 0.0149988 0.134727 -0.00614568 8.7805e-05
-1.0842e-19 -0.014631 0.011217 0.127076 -0.00570867 4.89982e-05
1.15174e-28 -0.005881 0.0174922 0.139376 -0.00569206 8.31644e-05
0 -0.005881 0.0175 0.13939 -0.00569177 8.32066e-05
-8.52699e-20 -0.018381 0.00233887 0.080352 -0.00464463 1.69609e-05
4.03897e-28 -0.010881 0.0149988 0.134968 -0.00567982 6.54126e-05
5.83757e-29 0.006619 0.0174833 0.13922 -0.00595679 9.78386e-05
0 0.006619 0.0175 0.13925 -0.00595612 9.79406e-05
0 -0.015881 0.00994629 0.123631 -0.00569383 4.50317e-05
1.0842e-19 0.000369 0.01875 0.141427 -0.0057717 9.80053e-05
-1.0842e-19 0.012869 0.0137433 0.132327 -0.00624498 8.34603e-05
-3.31687e-21 0.014119 0.0124878 0.129538 -0.00631332 7.89752e-05
0 -0.002131 0.01875 0.141454 -0.0057196 9.50021e-05
1.0842e-19 0.017869 0.00608215 0.110375 -0.00642358 5.1911e-05
1.0842e-19 -0.009631 0.0162494 0.137324 -0.00566255 7.21384e-05
-1.0842e-19 0.002869 0.01875 0.141398 -0.00582403 0.000101199
-1.18435e-19 0.011619 0.0149988 0.134714 -0.00616748 8.91199e-05
0 -0.018381 0.00479858 0.103423 -0.00542417 2.90072e-05
-1.0842e-19 0.015369 0.011217 0.126737 -0.00638254 7.42073e-05
0 0.019119 3.72709e-09 1.30607e-07 -9.66561e-09 2.83653e-11
1.0842e-19 -0.017131 0.008656 0.120168 -0.00567852 4.11849e-05
-7.25777e-20 0.019119 0.00233888 0.0799475 -0.00543624 2.46051e-05
0 0.010369 0.0162494 0.137099 -0.00609075 9.45439e-05
-1.0842e-19 -0.004631 0.01875 0.141481 -0.00566775 9.21845e-05
-1.35484e-19 0.016619 0.00994629 0.123265 -0.00643165 6.97574e-05
-7.25752e-29 -0.008381 0.017491 0.1394 -0.00563997 8.07256e-05
-9.67039e-20 -0.008381 0.0175 0.139416 -0.00563964 8.07737e-05
0 0.005369 0.01875 0.141369 -0.00587661 0.000104599
-1.0842e-19 -0.019631 0.00116943 0.0647887 -0.00400783 1.00062e-05
-8.36193e-29 0.009119 0.0174731 0.139171 -0.00601085 0.000101311
5.37936e-20 0.019119 0.00479858 0.103006 -0.00629018 4.40568e-05
-1.91541e-20 0.009119 0.0175 0.139219 -0.00600974 0.00010148
0 -0.018381 0.00736572 0.115474 -0.00561647 3.74033e-05
2.1684e-19 0.017869 0.00865601 0.119775 -0.00648156 6.49723e-05
2.1684e-19 -0.019631 0.00356872 0.096184 -0.00524146 2.37187e-05
3.28979e-21 -0.000881 0.02 0.143352 -0.00569206 0.000106185
0 -0.007131 0.01875 0.141507 -0.00561612 8.95358e-05
-9.67102e-20 0.001619 0.02 0.143324 -0.00574363 0.000109436
0 -0.014631 0.0137433 0.132632 -0.0056432 5.70949e-05
0 -0.013381 0.0149988 0.134992 -0.00562698 6.35136e-05
-3.23117e-27 -0.015881 0.0124878 0.129872 -0.00564905 5.23104e-05
-1.0842e-19 -0.012131 0.0162494 0.137348 -0.00561019 7.0049e-05
8.08456e-20 -0.003381 0.02 0.143379 -0.00564071 0.000103131
-1.0842e-19 0.007869 0.01875 0.141339 -0.00592943 0.000108216
0 0.020369 0.00116944 0.0643662 -0.00478048 1.4222e-05
-1.91544e-20 0.004119 0.02 0.143295 -0.00579544 0.000112895
1.0842e-19 -0.017131 0.011217 0.127099 -0.00565445 4.7636e-05
2.80747e-20 0.019119 0.00736572 0.115053 -0.00648275 5.95785e-05
-1.0842e-19 -0.019631 0.00608215 0.110787 -0.00555421 3.37658e-05
9.46633e-29 -0.010881 0.0174886 0.13942 -0.00558819 7.84284e-05
1.06152e-19 0.014119 0.0149988 0.134682 -0.00622304 9.2662e-05
-1.57772e-30 -0.010881 0.0175 0.139441 -0.00558776 7.84881e-05
2.1684e-19 0.015369 0.0137433 0.132294 -0.0063014 8.68691e-05
-1.0842e-19 0.020369 0.00356873 0.0957413 -0.00615886 3.59514e-05
1.0842e-19 0.012869 0.0162494 0.137067 -0.00614547 9.82046e-05
3.94558e-20 0.016619 0.0124878 0.129504 -0.00637061 8.22274e-05
-1.91544e-20 -0.005881 0.02 0.143406 -0.00558959 0.000100263
0 -0.020881 1.38173e-08 4.871e-07 -2.99271e-08 7.54004e-11
-2.58494e-26 -0.018381 0.00994629 0.123654 -0.00563925 4.38427e-05
8.08459e-20 0.011619 0.0175 0.139188 -0.00606362 0.000105243
0 -0.020881 0.00233887 0.0803709 -0.00459507 1.66727e-05
8.08456e-20 0.006619 0.02 0.143266 -0.00584748 0.000116575
0 -0.009631 0.01875 0.141533 -0.00556474 8.70507e-05
0 0.017869 0.011217 0.126703 -0.00644072 7.72818e-05
0 0.000369 0.02125 0.14525 -0.00566388 0.000117519
1.0842e-19 0.020369 0.00608215 0.110339 -0.00648451 5.38448e-05
-1.0842e-19 -0.002131 0.02125 0.145277 -0.00561305 0.000114216
-4.1359e-25 -0.020881 0.00479858 0.103444 -0.00536945 2.84234e-05
1.0842e-19 0.010369 0.01875 0.141308 -0.00598249 0.000112065
0 0.002869 0.02125 0.145222 -0.00571493 0.000121023
1.0842e-19 -0.019631 0.008656 0.12019 -0.0056236 4.01595e-05
-7.74775e-20 0.019119 0.00994629 0.12323 -0.00649068 7.26223e-05
0 0.021619 1.55288e-08 5.29064e-07 -3.95881e-08 1.18445e-10
-9.67102e-20 -0.008381 0.02 0.143431 -0.00553869 9.75706e-05
4.75844e-20 0.021619 0.00233888 0.0799099 -0.00549238 2.54321e-05
0 -0.004631 0.02125 0.145304 -0.00556244 0.000111123
-4.03897e-28 -0.015881 0.0149988 0.135016 -0.00557439 6.17276e-05
0 -0.014631 0.0162494 0.137372 -0.00555809 6.80855e-05
1.0842e-19 0.005369 0.02125 0.145193 -0.0057662 0.000124759
-1.0842e-19 -0.017131 0.0137433 0.132656 -0.00559014 5.54798e-05
-1.91544e-20 0.009119 0.02 0.143235 -0.00589976 0.000120489
7.25752e-29 -0.013381 0.0174867 0.139441 -0.00553662 7.62737e-05
0 -0.013381 0.0175 0.139465 -0.00553614 7.6342e-05
0 0.020369 0.008656 0.119739 -0.00654145 6.76102e-05
1.03398e-25 -0.020881 0.00736572 0.115495 -0.00556145 3.65386e-05
2.79546e-20 0.021619 0.00479858 0.102969 -0.00635106 4.56674e-05
-1.0842e-19 -0.022131 0.00116943 0.0648058 -0.00396301 9.88403e-06
0 -0.018381 0.0124878 0.129894 -0.00559556 5.0868e-05
-1.0842e-19 -0.012131 0.01875 0.141557 -0.00551359 8.47118e-05
-1.0842e-19 0.015369 0.0162494 0.137034 -0.00620044 0.000102095
7.83112e-20 0.016619 0.0149988 0.134648 -0.00627887 9.64282e-05
1.0842e-19 -0.007131 0.02125 0.14533 -0.00551204 0.00010821
0 -0.022131 0.00356872 0.0962037 -0.00518748 2.32974e-05
8.0838e-20 0.014119 0.0175 0.139155 -0.00611775 0.00010924
-3.54881e-20 -0.000881 0.0225 0.147024 -0.00558408 0.000127188
1.0842e-19 0.017869 0.0137433 0.132259 -0.00635812 9.04987e-05
-3.54881e-20 0.001619 0.0225 0.146996 -0.0056344 0.000130734
-1.0842e-19 -0.019631 0.011217 0.127121 -0.00560055 4.63573e-05
-1.0842e-19 0.007869 0.02125 0.145163 -0.0058177 0.000128726
1.0842e-19 0.012869 0.01875 0.141276 -0.00603579 0.000116155
8.08456e-20 -0.003381 0.0225 0.14705 -0.00553396 0.000123856
-1.91544e-20 -0.010881 0.02 0.143456 -0.00548802 9.50409e-05
-7.59876e-20 0.019119 0.0124878 0.129469 -0.0064282 8.56897e-05
-1.94261e-20 0.021619 0.00736572 0.115016 -0.00654335 6.19387e-05
-9.67102e-20 0.004119 0.0225 0.146967 -0.00568493 0.000134505
0 0.022869 0.00116944 0.0643273 -0.00483242 1.46788e-05
-1.0842e-19 -0.022131 0.00608215 0.110808 -0.00549911 3.30536e-05
2.58494e-26 -0.020881 0.00994629 0.123676 -0.00558499 4.27203e-05
1.58401e-19 0.011619 0.02 0.143204 -0.00595226 0.00012465
0 0.022869 0.00356873 0.0957031 -0.00621973 3.72278e-05
-1.0842e-19 0.020369 0.011217 0.126667 -0.0064992 8.05588e-05
-9.67102e-20 -0.005881 0.0225 0.147077 -0.00548405 0.000120728
0 -0.009631 0.02125 0.145355 -0.00546186 0.000105486
-3.30872e-24 -0.023381 1.45957e-08 5.14676e-07 -3.12609e-08 7.87003e-11
8.08456e-20 0.006619 0.0225 0.146938 -0.00573568 0.000138519
-8.27181e-25 -0.023381 0.00233886 0.0803889 -0.0045459 1.64082e-05
0 -0.017131 0.0162494 0.137395 -0.00550622 6.62359e-05
0 -0.015881 0.0174862 0.139463 -0.00548524 7.42544e-05
-1.57772e-30 -0.015881 0.0175 0.139488 -0.00548475 7.43239e-05
0 0.010369 0.02125 0.145132 -0.00586941 0.000132949
-2.1684e-19 0.022869 0.00608215 0.110302 -0.00654582 5.5908e-05
0 -0.018381 0.0149988 0.135039 -0.00552206 6.00497e-05
0 0.000369 0.02375 0.14877 -0.00555449 0.000140302
2.1684e-19 -0.022131 0.008656 0.120211 -0.00556899 3.91867e-05
0 -0.014631 0.01875 0.141581 -0.00546269 8.25194e-05
-1.131e-19 0.021619 0.00994629 0.123193 -0.00655004 7.56742e-05
-1.0842e-19 -0.002131 0.02375 0.148797 -0.00550489 0.000136717
-2.06795e-25 -0.023381 0.00479858 0.103463 -0.00531509 2.78801e-05
-8.27181e-25 0.0239177 0 0 0 0
1.0842e-19 0.002869 0.02375 0.148742 -0.00560429 0.000144093
1.0842e-19 -0.019631 0.0137433 0.132678 -0.00553737 5.39673e-05
8.08456e-20 -0.008381 0.0225 0.147102 -0.00543435 0.000117791
-1.91544e-20 -0.013381 0.02 0.14348 -0.00543759 9.26645e-05
0 0.024119 1.35972e-09 4.48536e-08 -3.38115e-09 1.04167e-11
2.06795e-25 0.024119 0.000601223 0.0205313 -0.0014264 6.7652e-06
1.58394e-19 0.016619 0.0175 0.139121 -0.00617215 0.000113487
-1.0842e-19 0.017869 0.0162494 0.136999 -0.00625569 0.000106231
0 -0.004631 0.02375 0.148824 -0.00545547 0.00013337
4.30854e-20 0.024119 0.00233887 0.0798706 -0.00554898 2.63179e-05
-1.0842e-19 0.015369 0.01875 0.141243 -0.00608935 0.000120502
1.58401e-19 0.009119 0.0225 0.146908 -0.00578663 0.000142785
-1.11623e-19 0.019119 0.0149988 0.134613 -0.006335 0.00010044
0 -0.020881 0.0124878 0.129916 -0.00554236 4.95089e-05
0 0.005369 0.02375 0.148713 -0.0056543 0.000148147
-1.0842e-19 0.022869 0.008656 0.119702 -0.00660171 7.04176e-05
0 -0.012131 0.02125 0.145379 -0.0054119 0.000102915
-1.91544e-20 0.014119 0.02 0.143172 -0.006005 0.000129076
0 -0.023381 0.00736572 0.115516 -0.00550674 3.5723e-05
0 0.020369 0.0137433 0.132224 -0.00641513 9.43645e-05
-4.99634e-20 0.024119 0.00479858 0.10293 -0.00641237 4.73864e-05
-1.0842e-19 -0.024631 0.00116943 0.0648222 -0.00391858 9.75056e-06
0 -0.007131 0.02375 0.148849 -0.00540626 0.00013021
1.0842e-19 -0.022131 0.011217 0.127142 -0.00554692 4.51459e-05
0 0.012869 0.02125 0.1451 -0.00592134 0.000137434
0 -0.024631 0.00356872 0.0962226 -0.00513389 2.29119e-05
-1.01634e-19 0.021619 0.0124878 0.129433 -0.00648611 8.93744e-05
1.58401e-19 -0.010881 0.0225 0.147127 -0.00538486 0.000115031
-9.67102e-20 -0.000881 0.025 0.150418 -0.00547559 0.000151133
0 0.007869 0.02375 0.148684 -0.00570451 0.000152443
-1.13044e-19 0.001619 0.025 0.150391 -0.0055247 0.000154954
-1.082e-19 0.024119 0.00736572 0.114978 -0.00660433 6.44565e-05
1.58401e-19 -0.003381 0.025 0.150445 -0.00542666 0.000147543
-4.15987e-20 0.011619 0.0225 0.146876 -0.0058378 0.000147321
6.45119e-20 0.004119 0.025 0.150362 -0.00557401 0.000159018
3.15544e-29 -0.018381 0.0174859 0.139486 -0.0054341 7.23561e-05
1.0842e-19 -0.024631 0.00608215 0.110828 -0.00544432 3.23957e-05
-3.54843e-20 -0.018381 0.0175 0.139511 -0.0054336 7.24258e-05
1.0842e-19 0.025369 0.00116944 0.0642866 -0.00488481 1.51553e-05
1.0842e-19 -0.017131 0.01875 0.141604 -0.005412 8.04524e-05
0 -0.023381 0.00994629 0.123696 -0.00553101 4.16585e-05
0 0.022869 0.011217 0.126631 -0.00655803 8.40406e-05
0 -0.019631 0.0162494 0.137418 -0.00545462 6.45016e-05
-9.67102e-20 -0.015881 0.02 0.143503 -0.00538738 9.04303e-05
-2.1684e-19 0.025369 0.00356872 0.0956635 -0.00628107 3.85747e-05
-1.0842e-19 -0.009631 0.02375 0.148874 -0.00535725 0.000127256
-1.91544e-20 -0.005881 0.025 0.150471 -0.00537792 0.000144172
2.01948e-28 -0.020881 0.0149988 0.135061 -0.00547 5.84698e-05
1.0842e-19 -0.014631 0.02125 0.145403 -0.00536217 0.000100512
3.28979e-21 0.006619 0.025 0.150333 -0.00562351 0.000163344
0 -0.025881 1.52608e-08 5.38262e-07 -3.23201e-08 8.12169e-11
0 0.017869 0.01875 0.141209 -0.00614314 0.00012512
0 0.010369 0.02375 0.148653 -0.00575492 0.000157024
1.58401e-19 0.019119 0.0175 0.139086 -0.0062268 0.00011801
0 -0.025881 0.00233887 0.0804063 -0.0044971 1.61561e-05
1.58401e-19 0.016619 0.02 0.143138 -0.00605797 0.000133781
1.0842e-19 -0.022131 0.0137433 0.1327 -0.00548485 5.25343e-05
0 0.020369 0.0162494 0.136964 -0.0063112 0.000110644
1.0842e-19 0.025369 0.00608215 0.110263 -0.00660756 5.81095e-05
-4.7036e-20 0.024119 0.00994629 0.123156 -0.00660976 7.89266e-05
1.0842e-19 -0.024631 0.008656 0.120232 -0.00551467 3.82668e-05
-9.67102e-20 -0.013381 0.0225 0.147151 -0.00533559 0.000112438
-1.0842e-19 0.015369 0.02125 0.145068 -0.00597351 0.000142216
0 0.000369 0.02625 0.152039 -0.00544571 0.000165681
6.84855e-20 0.021619 0.0149988 0.134577 -0.0063914 0.000104712
2.06795e-25 -0.025881 0.00479858 0.103482 -0.00526106 2.73705e-05
0 -0.002131 0.02625 0.152066 -0.00539728 0.000161834
8.08456e-20 -0.008381 0.025 0.150496 -0.00532938 0.000141007
0 0.002869 0.02625 0.152011 -0.00549433 0.000169739
0 -0.023381 0.0124878 0.129937 -0.00548943 4.82243e-05
5.84013e-20 0.014119 0.0225 0.146844 -0.00588918 0.000152148
1.58401e-19 0.009119 0.025 0.150303 -0.00567319 0.000167943
-8.27181e-25 0.026619 5.1449e-09 1.74996e-07 -1.33362e-08 4.19437e-11
0 -0.004631 0.02625 0.152092 -0.00534902 0.000158251
-1.0842e-19 -0.012131 0.02375 0.148899 -0.00530845 0.000124466
1.0842e-19 0.022869 0.0137433 0.132187 -0.00647244 9.8476e-05
-1.03398e-25 0.026619 0.00201018 0.0686108 -0.00481822 2.34268e-05
4.85149e-20 0.026619 0.00233887 0.0798295 -0.00560605 2.72573e-05
1.0842e-19 0.005369 0.02625 0.151983 -0.00554312 0.000174095
0 0.025369 0.008656 0.119663 -0.00666235 7.34177e-05
-1.03398e-25 -0.025881 0.00736572 0.115536 -0.00545235 3.49548e-05
0 0.012869 0.02375 0.148622 -0.00580552 0.000161879
1.16051e-19 0.026619 0.00479858 0.10289 -0.00647413 4.92187e-05
-2.1684e-19 -0.024631 0.011217 0.127163 -0.00549357 4.40038e-05
-1.0842e-19 -0.019631 0.01875 0.141627 -0.00536157 7.85109e-05
-1.0842e-19 -0.027131 0.00116943 0.0648379 -0.00387452 9.62802e-06
-1.22885e-19 0.024119 0.0124878 0.129395 -0.00654434 9.32995e-05
3.28979e-21 -0.018381 0.02 0.143526 -0.0053374 8.83279e-05
0 -0.007131 0.02625 0.152118 -0.00530094 0.000154859
2.68213e-29 -0.020881 0.0174849 0.139506 -0.00538323 7.0566e-05
1.57772e-30 -0.020881 0.0175 0.139534 -0.0053827 7.06396e-05
-1.91544e-20 -0.010881 0.025 0.15052 -0.00528103 0.000138033
0 -0.017131 0.02125 0.145426 -0.00531265 9.82374e-05
-1.0842e-19 -0.027131 0.00356872 0.0962409 -0.00508061 2.25411e-05
0 0.007869 0.02625 0.151953 -0.0055921 0.000178694
-1.0842e-19 -0.022131 0.0162494 0.13744 -0.00540326 6.28622e-05
-9.67102e-20 -0.000881 0.0275 0.153582 -0.00536831 0.000177599
-9.67102e-20 -0.015881 0.0225 0.147174 -0.00528653 0.000110001
-9.67102e-20 0.001619 0.0275 0.153555 -0.00541627 0.000181675
-4.15987e-20 0.011619 0.025 0.150272 -0.00572306 0.000172831
4.76561e-20 0.026619 0.00736572 0.114939 -0.00666571 6.7143e-05
-1.91544e-20 0.019119 0.02 0.143104 -0.00611117 0.000138785
-1.0842e-19 0.020369 0.01875 0.141174 -0.00619718 0.000130044
8.08456e-20 -0.003381 0.0275 0.153609 -0.00532053 0.000173768
0 -0.025881 0.00994629 0.123717 -0.00547733 4.06579e-05
0 0.025369 0.011217 0.126593 -0.00661719 8.77571e-05
-1.03398e-25 0.0276625 0.00233887 0.0798116 -0.00563008 2.7675e-05
0 0.017869 0.02125 0.145034 -0.00602589 0.000147287
0 -0.023381 0.0149988 0.135082 -0.0054182 5.69791e-05
0 -0.027131 0.00608215 0.110847 -0.00538985 3.17673e-05
8.08456e-20 0.004119 0.0275 0.153527 -0.00546439 0.000186014
8.08353e-20 0.021619 0.0175 0.139051 -0.00628171 0.000122829
-1.0842e-19 0.027869 0.00116944 0.0642438 -0.00493769 1.5661e-05
1.0842e-19 -0.014631 0.02375 0.148922 -0.00525985 0.000121859
-1.0842e-19 -0.009631 0.02625 0.152142 -0.00525306 0.000151704
-1.91544e-20 0.016619 0.0225 0.146811 -0.00594077 0.000157279
-1.0842e-19 0.022869 0.0162494 0.136928 -0.00636699 0.000115343
-1.0842e-19 0.027869 0.00356872 0.0956223 -0.00634289 4.00177e-05
-1.91544e-20 -0.005881 0.0275 0.153635 -0.00527292 0.00017017
0 -0.024631 0.0137433 0.132721 -0.00543261 5.11833e-05
0 0.010369 0.02625 0.151923 -0.00564125 0.000183614
-1.91544e-20 0.006619 0.0275 0.153499 -0.00551269 0.000190631
0 0.015369 0.02375 0.148589 -0.00585634 0.000167064
8.08456e-20 -0.013381 0.025 0.150544 -0.00523288 0.000135236
3.30872e-24 -0.028381 1.56354e-08 5.51606e-07 -3.27426e-08 8.2107e-11
3.69431e-20 0.024119 0.0149988 0.13454 -0.00644811 0.000109265
-6.0395e-20 0.026619 0.00994629 0.123117 -0.00666984 8.23969e-05
-9.03e-20 -0.028381 0.00233888 0.0804229 -0.00444867 1.59108e-05
-2.1684e-19 -0.027131 0.008656 0.120252 -0.00546067 3.73996e-05
1.0842e-19 0.027869 0.00608215 0.110223 -0.00666971 6.04598e-05
5.84013e-20 0.014119 0.025 0.150241 -0.00577313 0.000178031
3.23117e-27 -0.025881 0.0124878 0.129958 -0.00543677 4.70162e-05
8.08456e-20 -0.008381 0.0275 0.153659 -0.00522549 0.000166796
0 0.000369 0.02875 0.155099 -0.00533879 0.000193491
5.32301e-20 -0.028381 0.00479858 0.103501 -0.00520738 2.68837e-05
-1.0842e-19 -0.002131 0.02875 0.155126 -0.00529148 0.00018939
1.0842e-19 0.025369 0.0137433 0.132149 -0.00653006 0.000102864
0 0.002869 0.02875 0.155072 -0.00538625 0.000197789
8.08456e-20 -0.020881 0.02 0.143548 -0.00528766 8.63518e-05
0 -0.012131 0.02625 0.152167 -0.00520537 0.000148706
-1.0842e-19 -0.019631 0.02125 0.145449 -0.00526338 9.61109e-05
3.28979e-21 0.009119 0.0275 0.153469 -0.00556115 0.000195539
0 -0.022131 0.01875 0.141648 -0.00531137 7.66815e-05
-1.91544e-20 -0.018381 0.0225 0.147197 -0.00523769 0.000107711
-1.65436e-24 0.029119 8.18133e-09 2.85859e-07 -2.20433e-08 7.09478e-11
-1.0842e-19 -0.004631 0.02875 0.155152 -0.00524435 0.000185598
0 0.027869 0.008656 0.119623 -0.00672335 7.66135e-05
-7.41529e-29 -0.023381 0.0174821 0.139523 -0.00533266 6.88737e-05
-1.91512e-20 -0.023381 0.0175 0.139555 -0.00533205 6.89592e-05
-2.06795e-25 0.029119 0.00233887 0.0797866 -0.00566361 2.82579e-05
0 0.012869 0.02625 0.151892 -0.00569057 0.000188808
0 0.005369 0.02875 0.155044 -0.00543387 0.000202434
0 -0.017131 0.02375 0.148945 -0.00521147 0.000119394
0 -0.028381 0.00736572 0.115555 -0.00539829 3.42356e-05
0 -0.027131 0.011217 0.127184 -0.00544052 4.29318e-05
-3.55229e-20 0.026619 0.0124878 0.129357 -0.00660289 9.74858e-05
0 0.020369 0.02125 0.144999 -0.00607849 0.000152692
-1.91544e-20 0.021619 0.02 0.143068 -0.00616461 0.000144113
6.13923e-26 0.0290996 0.00479858 0.102849 -0.00653585 5.11593e-05
0 -0.024631 0.0162494 0.137461 -0.00535215 6.13233e-05
-1.09497e-20 0.029119 0.00479858 0.102849 -0.00653634 5.11745e-05
-1.91544e-20 0.019119 0.0225 0.146777 -0.00599257 0.000162735
-8.07794e-28 0.029119 0.00495435 0.10358 -0.00654793 5.23173e-05
-1.0842e-19 0.022869 0.01875 0.141138 -0.00625148 0.000135281
8.08456e-20 -0.010881 0.0275 0.153683 -0.00517824 0.000163626
8.08456e-20 -0.015881 0.025 0.150568 -0.00518494 0.000132608
0 -0.007131 0.02875 0.155177 -0.00519737 0.000181974
0 -0.029631 0.00116943 0.0648529 -0.00383087 9.50112e-06
0 0.017869 0.02375 0.148556 -0.00590735 0.000172552
1.58393e-19 0.024119 0.0175 0.139014 -0.00633689 0.000127963
0 0.007869 0.02875 0.155015 -0.00548165 0.000207303
0 -0.029631 0.00356872 0.0962586 -0.00502774 2.2176e-05
8.08456e-20 0.011619 0.0275 0.153439 -0.00560977 0.000200752
0 -0.025881 0.0149988 0.135103 -0.00536665 5.55757e-05
-3.54881e-20 -0.000881 0.03 0.156549 -0.00526342 0.000206176
5.84013e-20 0.016619 0.025 0.150208 -0.00582338 0.000183561
0 0.029119 0.00736572 0.114898 -0.00672749 7.00086e-05
-1.0842e-19 0.027869 0.011217 0.126553 -0.0066767 9.1722e-05