# UMean  POINT_DATA 35046
# x  y  z  UMean_x  UMean_y  UMean_z
0 -0.000880995 1.47237e-08 5.17042e-07 -3.44662e-08 9.34508e-11
0 0.000368999 0.00116943 0.0645328 -0.00433301 1.17858e-05
0 0.00161903 1.54918e-08 5.43797e-07 -3.66607e-08 1.0037e-10
1.0842e-19 -0.00213101 0.00116943 0.064558 -0.00428583 1.15877e-05
1.27264e-19 -0.000881009 0.00233888 0.0802942 -0.00495195 1.99938e-05
0 0.00161901 0.00233888 0.0802677 -0.0050039 2.04363e-05
1.0842e-19 0.002869 0.00116943 0.0645063 -0.00438064 1.20781e-05
0 -0.00338099 1.44485e-08 5.07573e-07 -3.34555e-08 9.00889e-11
1.0842e-19 0.000368999 0.00356872 0.0962809 -0.00563299 2.86988e-05
8.27181e-25 -0.00338099 0.00233888 0.0803207 -0.00490041 1.95753e-05
0 0.00411903 1.63242e-08 5.72778e-07 -3.9052e-08 1.07752e-10
1.0842e-19 -0.002131 0.00356872 0.096309 -0.00557653 2.81688e-05
1.0842e-19 0.002869 0.00356872 0.0962546 -0.00568967 2.94548e-05
0 0.00411901 0.00233888 0.0802402 -0.00505625 2.09604e-05
-1.0842e-19 -0.004631 0.00116943 0.0645828 -0.00423913 1.12898e-05
4.1359e-25 -0.000881003 0.00479858 0.103646 -0.00576193 3.505e-05
-4.1359e-25 0.001619 0.00479858 0.103618 -0.00581896 3.59791e-05
-1.0842e-19 0.005369 0.00116944 0.0644793 -0.00442869 1.22042e-05
0 -0.004631 0.00356872 0.0963371 -0.00552055 2.75154e-05
4.1359e-25 -0.003381 0.00479858 0.103673 -0.00570537 3.41312e-05
0 -0.00588099 1.42849e-08 5.02017e-07 -3.27179e-08 8.73178e-11
1.0842e-19 0.000369 0.00608215 0.111089 -0.00594996 4.23609e-05
0 0.004119 0.00479858 0.10359 -0.0058763 3.70434e-05
4.09124e-21 -0.005881 0.00233887 0.0803459 -0.00484939 1.90995e-05
-1.0842e-19 -0.002131 0.00608215 0.111117 -0.00589277 4.11626e-05
-1.0842e-19 0.005369 0.00356873 0.0962248 -0.00574684 3.0387e-05
0 0.00661901 1.60129e-08 5.6161e-07 -3.87246e-08 1.08536e-10
0 0.002869 0.00608215 0.11106 -0.00600775 4.36013e-05
0 0.00661901 0.00233888 0.0802114 -0.00510903 2.16021e-05
0 -0.007131 0.00116944 0.0646071 -0.00419282 1.11112e-05
0 -0.000881001 0.00736572 0.115856 -0.00595123 4.65155e-05
0 0.001619 0.00736572 0.115828 -0.00600829 4.80175e-05
-1.44385e-19 -0.005881 0.00479858 0.103699 -0.00564931 3.31595e-05
-1.0842e-19 -0.004631 0.00608215 0.111142 -0.00583614 3.98595e-05
2.1684e-19 0.00786899 0.00116944 0.06445 -0.00447723 1.2663e-05
-1.0842e-19 -0.007131 0.00356872 0.0963608 -0.00546532 2.67343e-05
-1.03398e-25 -0.003381 0.00736572 0.115883 -0.00589472 4.50298e-05
-1.0842e-19 0.005369 0.00608215 0.111031 -0.00606549 4.49362e-05
0 0.006619 0.00479858 0.103561 -0.00593398 3.82318e-05
0 -0.00838099 4.50472e-10 1.58367e-08 -1.02053e-09 2.69956e-12
1.03398e-25 0.004119 0.00736572 0.1158 -0.00606568 4.95205e-05
-2.1684e-19 0.007869 0.00356873 0.0961955 -0.00580435 3.14476e-05
-1.0842e-19 0.000369 0.008656 0.120604 -0.00600933 5.22078e-05
5.65031e-20 -0.008381 0.00233887 0.0803694 -0.00479876 1.86688e-05
0 -0.002131 0.008656 0.120631 -0.00595295 5.03477e-05
0 0.009119 1.29064e-08 4.5245e-07 -3.15523e-08 8.98881e-11
-1.0842e-19 0.002869 0.008656 0.120577 -0.0060662 5.3918e-05
1.0842e-19 -0.007131 0.00608215 0.111168 -0.00577973 3.87029e-05
0 0.009119 0.00233887 0.0801817 -0.00516236 2.22643e-05
-5.22573e-20 -0.005881 0.00736572 0.115909 -0.00583848 4.36343e-05
0 -0.008381 0.00479858 0.103724 -0.00559356 3.2294e-05
-2.1684e-19 -0.009631 0.00116943 0.0646291 -0.00414688 1.08759e-05
0 -0.004631 0.008656 0.120658 -0.00589713 4.87659e-05
0 0.006619 0.00736572 0.115771 -0.00612331 5.10957e-05
0 0.007869 0.00608215 0.111003 -0.00612379 4.63677e-05
0 -0.000881 0.00994629 0.124098 -0.00596235 5.53532e-05
2.58494e-26 0.001619 0.00994629 0.124071 -0.00601829 5.72383e-05
0 0.005369 0.00865601 0.120548 -0.00612339 5.56455e-05
0 -0.009631 0.00356872 0.0963846 -0.00541013 2.61995e-05
0 0.009119 0.00479858 0.103531 -0.00599218 3.94821e-05
2.1684e-19 0.010369 0.00116943 0.0644198 -0.00452638 1.28783e-05
-2.58494e-26 -0.003381 0.00994629 0.124125 -0.00590684 5.3459e-05
-2.58494e-26 0.004119 0.00994629 0.124043 -0.00607469 5.9114e-05
0 -0.010881 1.32897e-08 4.67367e-07 -2.97788e-08 7.85028e-11
0 0.010369 0.00356872 0.0961655 -0.0058626 3.23724e-05
0 -0.010881 0.00233886 0.0803922 -0.00474839 1.82874e-05
0 -0.008381 0.00736572 0.115935 -0.00578244 4.23865e-05
-1.0842e-19 -0.007131 0.00865601 0.120685 -0.00584102 4.72246e-05
0 0.000369 0.011217 0.127546 -0.00597105 6.04849e-05
-1.0842e-19 -0.009631 0.00608215 0.111193 -0.00572354 3.77076e-05
1.0842e-19 -0.002131 0.011217 0.127572 -0.00591623 5.83296e-05
0 -0.005881 0.00994629 0.124151 -0.0058515 5.16893e-05
-1.0842e-19 0.002869 0.011217 0.127518 -0.00602676 6.22987e-05
0 0.011619 7.15996e-09 2.62828e-07 -1.85369e-08 5.31243e-11
-1.0842e-19 0.007869 0.008656 0.120519 -0.00618068 5.74528e-05
0 0.009119 0.00736572 0.115741 -0.00618134 5.28334e-05
5.74117e-20 0.011619 0.00233887 0.0801507 -0.0052161 2.28404e-05
-2.06795e-25 -0.010881 0.00479858 0.103748 -0.00553802 3.15226e-05
-2.58494e-26 0.006619 0.00994629 0.124014 -0.00613128 6.11461e-05
1.0842e-19 0.010369 0.00608215 0.110972 -0.00618257 4.79594e-05
0 -0.004631 0.011217 0.1276 -0.00586123 5.6352e-05
0 -0.012131 0.00116943 0.0646498 -0.00410126 1.06601e-05
0 0.012022 0.00233887 0.0801454 -0.0052248 2.29478e-05
1.0842e-19 0.005369 0.011217 0.12749 -0.00608261 6.45485e-05
0 -0.000881 0.0124878 0.130312 -0.00590493 6.34059e-05
8.27181e-25 0.0125545 0 0 0 0
4.03897e-28 0.011619 0.00479858 0.1035 -0.00605072 4.07948e-05
-3.23117e-27 0.001619 0.0124878 0.130286 -0.00595957 6.56582e-05
-2.42338e-27 0.011619 0.00491649 0.104061 -0.00605937 4.14386e-05
2.1684e-19 -0.012131 0.00356872 0.0964096 -0.00535525 2.56546e-05
0 0.012869 0.00116944 0.0643878 -0.00457576 1.30928e-05
-4.32176e-20 -0.003381 0.0124878 0.130339 -0.00585062 6.11538e-05
-2.1684e-19 -0.009631 0.00865601 0.12071 -0.00578557 4.5926e-05
-7.46466e-20 -0.008381 0.00994629 0.124177 -0.00579636 5.00938e-05
-1.03398e-25 -0.010881 0.00736572 0.11596 -0.00572675 4.12201e-05
3.23117e-27 0.004119 0.0124878 0.130257 -0.00601461 6.80151e-05
0 -0.007131 0.011217 0.127626 -0.00580678 5.4376e-05
-1.0842e-19 0.012869 0.00356873 0.0961337 -0.00592094 3.33336e-05
1.65436e-24 -0.013381 1.29863e-08 4.56843e-07 -2.87806e-08 7.51719e-11
2.58494e-26 0.0112589 0.00736572 0.115714 -0.00623123 5.45334e-05
-4.67728e-20 0.009119 0.00994629 0.123983 -0.00618819 6.34161e-05
1.0842e-19 0.010369 0.008656 0.120488 -0.00623842 5.95743e-05
0 -0.012131 0.00608215 0.111218 -0.00566764 3.66902e-05
0 -0.013381 0.00233886 0.0804148 -0.00469846 1.78563e-05
-2.1684e-19 0.007869 0.011217 0.127461 -0.00613865 6.68893e-05
1.0842e-19 0.000369 0.0137433 0.133041 -0.00589328 6.86406e-05
1.29247e-26 0.011619 0.00736572 0.11571 -0.00623963 5.48194e-05
3.16399e-20 -0.005881 0.0124878 0.130366 -0.0057965 5.9068e-05
1.0842e-19 -0.002131 0.0137433 0.133067 -0.00583948 6.61359e-05
0 0.002869 0.0137433 0.133014 -0.00594751 7.11737e-05
0 0.014119 1.19736e-08 4.39469e-07 -3.14717e-08 9.03964e-11
0 0.006619 0.0124878 0.130228 -0.00606989 7.05532e-05
2.06795e-25 -0.013381 0.00479858 0.103773 -0.00548295 3.07605e-05
-1.0842e-19 0.012869 0.00608215 0.110941 -0.00624128 4.97417e-05
-9.36683e-20 0.014119 0.00233887 0.0801177 -0.00527009 2.35068e-05
1.0842e-19 -0.004631 0.0137433 0.133094 -0.00578582 6.37665e-05
-1.0842e-19 -0.014631 0.00116943 0.0646705 -0.00405617 1.03482e-05
0 -0.010881 0.00994629 0.124202 -0.00574155 4.86513e-05
1.0842e-19 0.005369 0.0137433 0.132984 -0.0060019 7.40021e-05
0 -0.009631 0.011217 0.127651 -0.00575225 5.28119e-05
-3.23117e-27 0.010999 0.00994629 0.123959 -0.00623125 6.53452e-05
0 -0.012131 0.00865601 0.120735 -0.00573036 4.45709e-05
2.15433e-20 0.014119 0.00479858 0.103468 -0.0061095 4.21969e-05
4.03897e-28 -0.000881 0.0149988 0.135388 -0.00581829 7.29852e-05
0 -0.008381 0.0124878 0.130392 -0.00574266 5.7234e-05
0 -0.014631 0.00356872 0.0964336 -0.00530098 2.49978e-05
4.03897e-28 0.001619 0.0149988 0.135361 -0.00587161 7.56934e-05
0 -0.013381 0.00736572 0.115984 -0.00567149 4.01245e-05
0 0.010369 0.011217 0.127428 -0.00619522 6.96967e-05
0 0.011619 0.00994629 0.123951 -0.00624544 6.59814e-05
4.03897e-28 -0.003381 0.0149988 0.135415 -0.00576522 7.04781e-05
0 0.015369 0.00116944 0.0643537 -0.00462548 1.34545e-05
-1.61559e-27 0.009119 0.0124878 0.130196 -0.00612549 7.33113e-05
0 -0.007131 0.0137433 0.133121 -0.00573248 6.17474e-05
0 0.012869 0.008656 0.120456 -0.00629634 6.20237e-05
0 0.004119 0.0149988 0.135332 -0.00592522 7.86307e-05
0 0.015369 0.00356873 0.0960999 -0.00597961 3.44737e-05
0 0.007869 0.0137433 0.132952 -0.00605671 7.67333e-05
0 -0.014631 0.00608215 0.111241 -0.00561238 3.58566e-05
1.65436e-24 -0.015881 1.30339e-08 4.58656e-07 -2.85694e-08 7.423e-11
-1.06735e-20 0.014119 0.00736572 0.115678 -0.00629824 5.68648e-05
0 -0.015881 0.00233887 0.0804358 -0.00464903 1.74687e-05
4.03897e-28 -0.005881 0.0149988 0.135442 -0.0057124 6.81961e-05
0 0.000369 0.0162494 0.137706 -0.00579651 7.99374e-05
0 -0.002131 0.0162494 0.137733 -0.00574402 7.72122e-05
0 0.006619 0.0149988 0.135303 -0.0059791 8.16234e-05
2.1684e-19 0.002869 0.0162494 0.137677 -0.00584927 8.30066e-05
8.07794e-28 0.010809 0.0124878 0.130175 -0.00616329 7.53712e-05
1.0842e-19 -0.012131 0.011217 0.127674 -0.00569821 5.12607e-05
0 0.015369 0.00608215 0.110909 -0.00630079 5.14785e-05
0 -0.010881 0.0124878 0.130416 -0.00568901 5.55367e-05
0 -0.015881 0.00479858 0.103794 -0.00542845 3.00376e-05
0 0.016619 1.58212e-08 5.53996e-07 -4.01285e-08 1.17286e-10
-2.58494e-26 -0.013381 0.00994629 0.124226 -0.00568712 4.72918e-05
1.0842e-19 -0.009631 0.0137433 0.133146 -0.00567943 5.99709e-05
5.21943e-20 0.016619 0.00233888 0.0800827 -0.00532453 2.41842e-05
1.0842e-19 -0.004631 0.0162494 0.137759 -0.00569168 7.47833e-05
-2.1684e-19 -0.014631 0.00865601 0.120758 -0.00567567 4.33941e-05
4.37642e-20 0.011619 0.0124878 0.130164 -0.0061814 7.63586e-05
2.1684e-19 0.012869 0.011217 0.127396 -0.00625202 7.25766e-05
1.0842e-19 0.005369 0.0162494 0.137648 -0.00590232 8.63244e-05
-2.1684e-19 -0.017131 0.00116943 0.0646895 -0.00401145 1.02897e-05
-3.3645e-20 -0.008381 0.0149988 0.135467 -0.00565985 6.61362e-05
0 0.010369 0.0137433 0.132921 -0.00611172 7.98851e-05
2.63824e-20 0.014119 0.00994629 0.123919 -0.00630298 6.86124e-05
6.91577e-20 0.016619 0.00479858 0.103433 -0.00616883 4.35593e-05
0 -0.017131 0.00356872 0.0964538 -0.00524721 2.44682e-05
0 -0.015881 0.00736572 0.116006 -0.0056167 3.91257e-05
4.89094e-29 -0.000881 0.0174897 0.139767 -0.00571808 8.58523e-05
0 -0.000881 0.0175 0.139785 -0.00571767 8.59053e-05
0 0.009119 0.0149988 0.135272 -0.00603333 8.4744e-05
-1.16751e-28 0.001619 0.0174863 0.139733 -0.00577025 8.89023e-05
-9.67102e-20 0.001619 0.0175 0.139757 -0.00576969 8.89749e-05
1.0842e-19 0.015369 0.008656 0.120424 -0.00635468 6.42378e-05
2.1684e-19 -0.007131 0.0162494 0.137785 -0.00563973 7.24729e-05
-1.86171e-28 -0.003381 0.0174919 0.139797 -0.00566623 8.31198e-05
-1.91544e-20 -0.003381 0.0175 0.139812 -0.00566591 8.3161e-05
0 0.017869 0.00116944 0.0643189 -0.00467568 1.38463e-05
5.20648e-29 0.004119 0.0174843 0.139701 -0.00582262 9.22151e-05
0 0.004119 0.0175 0.139728 -0.00582197 9.2301e-05
0 0.007869 0.0162494 0.13762 -0.00595559 8.94174e-05
2.90125e-20 0.016619 0.00736572 0.115644 -0.00635734 5.89717e-05
1.0842e-19 -0.017131 0.00608215 0.111261 -0.0055577 3.49811e-05
1.0842e-19 0.017869 0.00356873 0.0960625 -0.00603894 3.52994e-05
0 -0.013381 0.0124878 0.13044 -0.00563569 5.39248e-05
2.1684e-19 -0.012131 0.0137433 0.133171 -0.00562644 5.80748e-05
0 -0.018381 1.33208e-08 4.6889e-07 -2.8877e-08 7.50399e-11
5.04871e-29 0.0106331 0.0149988 0.135252 -0.00606631 8.68264e-05
-1.0842e-19 -0.014631 0.011217 0.127698 -0.0056444 4.99067e-05
1.15174e-28 -0.005881 0.0174922 0.139824 -0.0056147 8.06116e-05
0 -0.005881 0.0175 0.139838 -0.00561439 8.06502e-05
-8.52699e-20 -0.018381 0.00233887 0.0804545 -0.00459994 1.72342e-05
4.03897e-28 -0.010881 0.0149988 0.135492 -0.0056075 6.41184e-05
5.83757e-29 0.006619 0.0174833 0.13967 -0.00587517 9.56312e-05
0 0.006619 0.0175 0.139699 -0.00587447 9.57252e-05
0 -0.015881 0.00994629 0.124249 -0.00563305 4.6029e-05
1.0842e-19 0.000369 0.01875 0.141836 -0.0056907 9.47978e-05
-1.0842e-19 0.012869 0.0137433 0.13289 -0.00616699 8.32334e-05
-3.31687e-21 0.014119 0.0124878 0.130132 -0.00623758 7.9533e-05
0 -0.002131 0.01875 0.141864 -0.00563946 9.16714e-05
1.0842e-19 0.017869 0.00608215 0.110873 -0.00636059 5.32365e-05
1.0842e-19 -0.009631 0.0162494 0.13781 -0.00558789 7.03399e-05
-1.0842e-19 0.002869 0.01875 0.141808 -0.0057423 9.81554e-05
-1.18435e-19 0.011619 0.0149988 0.135239 -0.00608779 8.81823e-05
0 -0.018381 0.00479858 0.103814 -0.00537425 2.94647e-05
-1.0842e-19 0.015369 0.011217 0.127363 -0.00630914 7.5554e-05
0 0.019119 3.72709e-09 1.30435e-07 -9.55641e-09 2.88584e-11
1.0842e-19 -0.017131 0.008656 0.120781 -0.00562114 4.22843e-05
-7.25777e-20 0.019119 0.00233888 0.0800465 -0.0053794 2.49808e-05
0 0.010369 0.0162494 0.137586 -0.00600942 9.29232e-05
-1.0842e-19 -0.004631 0.01875 0.14189 -0.00558849 8.89747e-05
-1.35484e-19 0.016619 0.00994629 0.123885 -0.00636085 7.13714e-05
-7.25752e-29 -0.008381 0.017491 0.139847 -0.00556351 7.8227e-05
-9.67039e-20 -0.008381 0.0175 0.139863 -0.00556316 7.82707e-05
0 0.005369 0.01875 0.141779 -0.00579401 0.000101715
-1.0842e-19 -0.019631 0.00116943 0.0647082 -0.00396698 1.02053e-05
-8.36193e-29 0.009119 0.0174731 0.139621 -0.00592844 9.91263e-05
5.37936e-20 0.019119 0.00479858 0.103396 -0.00622854 4.49822e-05
-1.91541e-20 0.009119 0.0175 0.139669 -0.0059273 9.92829e-05
0 -0.018381 0.00736572 0.116027 -0.00556211 3.82553e-05
2.1684e-19 0.017869 0.00865601 0.120389 -0.00641341 6.6958e-05
2.1684e-19 -0.019631 0.00356872 0.0964706 -0.00519366 2.41973e-05
3.28979e-21 -0.000881 0.02 0.143725 -0.00561067 0.000102375
0 -0.007131 0.01875 0.141916 -0.0055377 8.63675e-05
-9.67102e-20 0.001619 0.02 0.143697 -0.00566141 0.000105768
0 -0.014631 0.0137433 0.133194 -0.005574 5.64296e-05
0 -0.013381 0.0149988 0.135516 -0.00555542 6.21709e-05
-3.23117e-27 -0.015881 0.0124878 0.130463 -0.00558276 5.23978e-05
-1.0842e-19 -0.012131 0.0162494 0.137834 -0.00553636 6.80746e-05
8.08456e-20 -0.003381 0.02 0.143752 -0.00556021 9.9315e-05
-1.0842e-19 0.007869 0.01875 0.14175 -0.005846 0.000105442
0 0.020369 0.00116944 0.0642824 -0.00472622 1.45702e-05
-1.91544e-20 0.004119 0.02 0.143669 -0.0057124 0.000109418
1.0842e-19 -0.017131 0.011217 0.127721 -0.00559115 4.84976e-05
2.80747e-20 0.019119 0.00736572 0.115608 -0.00641676 6.1256e-05
-1.0842e-19 -0.019631 0.00608215 0.111281 -0.00550286 3.43607e-05
9.46633e-29 -0.010881 0.0174886 0.139867 -0.0055126 7.58767e-05
1.06152e-19 0.014119 0.0149988 0.135208 -0.00614249 9.18295e-05
-1.57772e-30 -0.010881 0.0175 0.139887 -0.00551217 7.59307e-05
2.1684e-19 0.015369 0.0137433 0.132858 -0.00622254 8.67234e-05
-1.0842e-19 0.020369 0.00356873 0.0960265 -0.00609847 3.65524e-05
1.0842e-19 0.012869 0.0162494 0.137555 -0.00606317 9.66702e-05
3.94558e-20 0.016619 0.0124878 0.130098 -0.00629403 8.28406e-05
-1.91544e-20 -0.005881 0.02 0.143777 -0.00551 9.65285e-05
0 -0.020881 1.38173e-08 4.86509e-07 -2.96233e-08 7.60288e-11
-2.58494e-26 -0.018381 0.00994629 0.124271 -0.00557921 4.48557e-05
8.08459e-20 0.011619 0.0175 0.139636 -0.00598037 0.000103106
0 -0.020881 0.00233887 0.0804735 -0.0045512 1.69477e-05
8.08456e-20 0.006619 0.02 0.14364 -0.00576357 0.00011322
0 -0.009631 0.01875 0.14194 -0.00548734 8.39003e-05
0 0.017869 0.011217 0.127328 -0.00636641 7.86753e-05
0 0.000369 0.02125 0.145586 -0.00558125 0.000113233
1.0842e-19 0.020369 0.00608215 0.110835 -0.00642077 5.51024e-05
-1.0842e-19 -0.002131 0.02125 0.145614 -0.00553128 0.000109798
-4.1359e-25 -0.020881 0.00479858 0.103834 -0.00532016 2.89697e-05
1.0842e-19 0.010369 0.01875 0.141718 -0.00589821 0.000109347
0 0.002869 0.02125 0.145559 -0.00563141 0.000116888
1.0842e-19 -0.019631 0.008656 0.120802 -0.00556687 4.14082e-05
-7.74775e-20 0.019119 0.00994629 0.123849 -0.00641895 7.43435e-05
0 0.021619 1.55288e-08 5.28368e-07 -3.91385e-08 1.20822e-10
-9.67102e-20 -0.008381 0.02 0.143802 -0.00546003 9.38384e-05
4.75844e-20 0.021619 0.00233888 0.0800099 -0.00543464 2.58572e-05
0 -0.004631 0.02125 0.145639 -0.0054816 0.000106816
-4.03897e-28 -0.015881 0.0149988 0.135539 -0.00550369 6.03759e-05
0 -0.014631 0.0162494 0.137859 -0.00548497 6.60915e-05
1.0842e-19 0.005369 0.02125 0.14553 -0.00568189 0.000120912
-1.0842e-19 -0.017131 0.0137433 0.133216 -0.00552178 5.47313e-05
-1.91544e-20 0.009119 0.02 0.14361 -0.00581501 0.000117194
7.25752e-29 -0.013381 0.0174867 0.139889 -0.00546186 7.36486e-05
0 -0.013381 0.0175 0.139912 -0.00546136 7.371e-05
0 0.020369 0.008656 0.120352 -0.00647238 6.97526e-05
1.03398e-25 -0.020881 0.00736572 0.116048 -0.00550764 3.7493e-05
2.79546e-20 0.021619 0.00479858 0.103359 -0.00628867 4.65709e-05
-1.0842e-19 -0.022131 0.00116943 0.0647273 -0.00392311 9.91644e-06
0 -0.018381 0.0124878 0.130485 -0.00553007 5.08856e-05
-1.0842e-19 -0.012131 0.01875 0.141966 -0.00543708 8.14056e-05
-1.0842e-19 0.015369 0.0162494 0.137523 -0.00611741 0.000100673
7.83112e-20 0.016619 0.0149988 0.135175 -0.00619748 9.56578e-05
1.0842e-19 -0.007131 0.02125 0.145664 -0.00543221 0.000103956
0 -0.022131 0.00356872 0.0964919 -0.00514046 2.36924e-05
8.0838e-20 0.014119 0.0175 0.139604 -0.00603367 0.000107186
-3.54881e-20 -0.000881 0.0225 0.147325 -0.0055016 0.000122309
1.0842e-19 0.017869 0.0137433 0.132824 -0.0062784 9.03631e-05
-3.54881e-20 0.001619 0.0225 0.147297 -0.00555108 0.000125995
-1.0842e-19 -0.019631 0.011217 0.127743 -0.00553781 4.72013e-05
-1.0842e-19 0.007869 0.02125 0.145501 -0.00573238 0.000124812
1.0842e-19 0.012869 0.01875 0.141686 -0.00595071 0.00011348
8.08456e-20 -0.003381 0.0225 0.147351 -0.00545235 0.000118927
-1.91544e-20 -0.010881 0.02 0.143827 -0.00541029 9.1257e-05
-7.59876e-20 0.019119 0.0124878 0.130062 -0.00635071 8.63241e-05
-1.94261e-20 0.021619 0.00736572 0.11557 -0.00647665 6.36091e-05
-9.67102e-20 0.004119 0.0225 0.14727 -0.00560077 0.000129964
0 0.022869 0.00116944 0.0642436 -0.0047773 1.48463e-05
-1.0842e-19 -0.022131 0.00608215 0.111303 -0.00544807 3.37735e-05
2.58494e-26 -0.020881 0.00994629 0.124292 -0.00552558 4.37615e-05
1.58401e-19 0.011619 0.02 0.143578 -0.00586673 0.000121459
0 0.022869 0.00356873 0.0959913 -0.00615844 3.78166e-05
-1.0842e-19 0.020369 0.011217 0.127291 -0.00642388 8.19254e-05
-9.67102e-20 -0.005881 0.0225 0.147377 -0.00540337 0.000115853
0 -0.009631 0.02125 0.145689 -0.00538287 0.00010113
-3.30872e-24 -0.023381 1.45957e-08 5.14061e-07 -3.09469e-08 7.86054e-11
8.08456e-20 0.006619 0.0225 0.147241 -0.00565062 0.000134101
-8.27181e-25 -0.023381 0.00233886 0.0804935 -0.00450277 1.65914e-05
0 -0.017131 0.0162494 0.137881 -0.00543413 6.42387e-05
0 -0.015881 0.0174862 0.139911 -0.00541135 7.16513e-05
-1.57772e-30 -0.015881 0.0175 0.139935 -0.00541084 7.17139e-05
0 0.010369 0.02125 0.14547 -0.00578345 0.000129174
-2.1684e-19 0.022869 0.00608215 0.110795 -0.00648164 5.70836e-05
0 -0.018381 0.0149988 0.135561 -0.00545221 5.86149e-05
0 0.000369 0.02375 0.149036 -0.00547132 0.000134954
2.1684e-19 -0.022131 0.008656 0.120823 -0.00551287 4.04419e-05
0 -0.014631 0.01875 0.141989 -0.00538703 7.92661e-05
-1.131e-19 0.021619 0.00994629 0.123812 -0.00647749 7.74773e-05
-1.0842e-19 -0.002131 0.02375 0.149063 -0.00542257 0.000131253
-2.06795e-25 -0.023381 0.00479858 0.103856 -0.00526633 2.83736e-05
-8.27181e-25 0.0239177 0 0 0 0
1.0842e-19 0.002869 0.02375 0.149009 -0.00552034 0.000138905
1.0842e-19 -0.019631 0.0137433 0.133237 -0.00546982 5.30874e-05
8.08456e-20 -0.008381 0.0225 0.147401 -0.00535462 0.000112944
-1.91544e-20 -0.013381 0.02 0.143851 -0.00536075 8.88611e-05
0 0.024119 1.35972e-09 4.47957e-08 -3.34245e-09 1.05323e-11
2.06795e-25 0.024119 0.000601223 0.0205572 -0.00141135 6.87881e-06
1.58394e-19 0.016619 0.0175 0.139571 -0.00608724 0.000111503
-1.0842e-19 0.017869 0.0162494 0.13749 -0.00617171 0.000104853
0 -0.004631 0.02375 0.149089 -0.00537397 0.00012784
4.30854e-20 0.024119 0.00233887 0.0799713 -0.00549044 2.67599e-05
-1.0842e-19 0.015369 0.01875 0.141653 -0.00600342 0.000117917
1.58401e-19 0.009119 0.0225 0.147211 -0.00570072 0.000138434
-1.11623e-19 0.019119 0.0149988 0.13514 -0.0062527 9.97278e-05
0 -0.020881 0.0124878 0.130507 -0.0054776 4.94856e-05
0 0.005369 0.02375 0.148981 -0.00556947 0.000143152
-1.0842e-19 0.022869 0.008656 0.120315 -0.00653193 7.25249e-05
0 -0.012131 0.02125 0.145714 -0.00533387 9.8592e-05
-1.91544e-20 0.014119 0.02 0.143546 -0.00591861 0.000125967
0 -0.023381 0.00736572 0.116069 -0.00545353 3.67085e-05
0 0.020369 0.0137433 0.132786 -0.00633451 9.42837e-05
-4.99634e-20 0.024119 0.00479858 0.103321 -0.00634934 4.83702e-05
-1.0842e-19 -0.024631 0.00116943 0.0647441 -0.00387948 9.82786e-06
0 -0.007131 0.02375 0.149114 -0.0053257 0.000124802
1.0842e-19 -0.022131 0.011217 0.127765 -0.00548489 4.59649e-05
0 0.012869 0.02125 0.145438 -0.00583454 0.000133837
0 -0.024631 0.00356872 0.0965151 -0.00508727 2.3144e-05
-1.01634e-19 0.021619 0.0124878 0.130026 -0.00640774 9.01385e-05
1.58401e-19 -0.010881 0.0225 0.147426 -0.00530605 0.000110163
-9.67102e-20 -0.000881 0.025 0.150649 -0.00539287 0.000145221
0 0.007869 0.02375 0.148952 -0.00561874 0.000147528
-1.13044e-19 0.001619 0.025 0.150622 -0.00544114 0.000149161
-1.082e-19 0.024119 0.00736572 0.115532 -0.00653705 6.60591e-05
1.58401e-19 -0.003381 0.025 0.150675 -0.0053448 0.000141546
-4.15987e-20 0.011619 0.0225 0.14718 -0.00575108 0.000143093
6.45119e-20 0.004119 0.025 0.150595 -0.00548957 0.00015338
3.15544e-29 -0.018381 0.0174859 0.139932 -0.00536107 6.9706e-05
1.0842e-19 -0.024631 0.00608215 0.111324 -0.00539392 3.30277e-05
-3.54843e-20 -0.018381 0.0175 0.139957 -0.00536056 6.97688e-05
1.0842e-19 0.025369 0.00116944 0.0642023 -0.00482885 1.52618e-05
1.0842e-19 -0.017131 0.01875 0.142011 -0.00533724 7.72573e-05
0 -0.023381 0.00994629 0.124314 -0.00547234 4.27058e-05
0 0.022869 0.011217 0.127254 -0.00648203 8.56401e-05
0 -0.019631 0.0162494 0.137904 -0.0053832 6.239e-05
-9.67102e-20 -0.015881 0.02 0.143874 -0.00531145 8.66934e-05
-2.1684e-19 0.025369 0.00356872 0.0959523 -0.00621917 3.94895e-05
-1.0842e-19 -0.009631 0.02375 0.149138 -0.0052777 0.000121889
-1.91544e-20 -0.005881 0.025 0.150701 -0.00529695 0.000138172
2.01948e-28 -0.020881 0.0149988 0.135583 -0.00540096 5.69772e-05
1.0842e-19 -0.014631 0.02125 0.145737 -0.00528504 9.61807e-05
3.28979e-21 0.006619 0.025 0.150566 -0.00553814 0.000157843
0 -0.025881 1.52608e-08 5.37614e-07 -3.19986e-08 8.03881e-11
0 0.017869 0.01875 0.141619 -0.00605643 0.000122566
0 0.010369 0.02375 0.148922 -0.00566831 0.000152224
1.58401e-19 0.019119 0.0175 0.139537 -0.00614103 0.000116096
0 -0.025881 0.00233887 0.0805114 -0.00445472 1.62377e-05
1.58401e-19 0.016619 0.02 0.143513 -0.00597073 0.000130681
1.0842e-19 -0.022131 0.0137433 0.133259 -0.00541816 5.16652e-05
0 0.020369 0.0162494 0.137453 -0.00622631 0.000109392
1.0842e-19 0.025369 0.00608215 0.110758 -0.00654275 5.93722e-05
-4.7036e-20 0.024119 0.00994629 0.123775 -0.00653651 8.07183e-05
1.0842e-19 -0.024631 0.008656 0.120843 -0.00545937 3.96027e-05
-9.67102e-20 -0.013381 0.0225 0.14745 -0.0052577 0.000107565
-1.0842e-19 0.015369 0.02125 0.145406 -0.00588576 0.000138633
0 0.000369 0.02625 0.152235 -0.00536264 0.000159343
6.84855e-20 0.021619 0.0149988 0.135103 -0.00630823 0.000104164
2.06795e-25 -0.025881 0.00479858 0.103876 -0.00521304 2.77907e-05
0 -0.002131 0.02625 0.152262 -0.00531498 0.000155337
8.08456e-20 -0.008381 0.025 0.150725 -0.00524935 0.000135046
0 0.002869 0.02625 0.152209 -0.00541027 0.000163442
0 -0.023381 0.0124878 0.130528 -0.00542547 4.81825e-05
5.84013e-20 0.014119 0.0225 0.147148 -0.00580154 0.000147989
1.58401e-19 0.009119 0.025 0.150537 -0.00558693 0.000162559
-8.27181e-25 0.026619 5.1449e-09 1.74769e-07 -1.31829e-08 4.20152e-11
0 -0.004631 0.02625 0.152287 -0.00526767 0.000151757
-1.0842e-19 -0.012131 0.02375 0.149162 -0.00522978 0.000119041
1.0842e-19 0.022869 0.0137433 0.13275 -0.00639093 9.86533e-05
-1.03398e-25 0.026619 0.00201018 0.0686978 -0.00476717 2.38123e-05
4.85149e-20 0.026619 0.00233887 0.0799307 -0.00554666 2.77059e-05
1.0842e-19 0.005369 0.02625 0.152181 -0.00545821 0.00016802
0 0.025369 0.008656 0.120278 -0.00659197 7.52843e-05
-1.03398e-25 -0.025881 0.00736572 0.11609 -0.00539992 3.59186e-05
0 0.012869 0.02375 0.14889 -0.00571801 0.000157137
1.16051e-19 0.026619 0.00479858 0.103282 -0.00641035 5.02763e-05
-2.1684e-19 -0.024631 0.011217 0.127786 -0.00543238 4.47857e-05
-1.0842e-19 -0.019631 0.01875 0.142033 -0.00528768 7.51871e-05
-1.0842e-19 -0.027131 0.00116943 0.0647584 -0.00383626 9.47151e-06
-1.22885e-19 0.024119 0.0124878 0.12999 -0.00646519 9.42026e-05
3.28979e-21 -0.018381 0.02 0.143896 -0.00526238 8.4565e-05
0 -0.007131 0.02625 0.152312 -0.00522048 0.00014829
2.68213e-29 -0.020881 0.0174849 0.139953 -0.00531102 6.784e-05
1.57772e-30 -0.020881 0.0175 0.139979 -0.00531048 6.79062e-05
-1.91544e-20 -0.010881 0.025 0.150749 -0.00520192 0.000132092
0 -0.017131 0.02125 0.145759 -0.0052365 9.40696e-05
-1.0842e-19 -0.027131 0.00356872 0.0965323 -0.00503497 2.27183e-05
0 0.007869 0.02625 0.152152 -0.00550614 0.000172673
-1.0842e-19 -0.022131 0.0162494 0.137925 -0.00533277 6.0754e-05
-9.67102e-20 -0.000881 0.0275 0.153741 -0.00528629 0.000170645
-9.67102e-20 -0.015881 0.0225 0.147472 -0.00520952 0.000105175
-9.67102e-20 0.001619 0.0275 0.153714 -0.00533335 0.000174808
-4.15987e-20 0.011619 0.025 0.150506 -0.00563597 0.000167547
4.76561e-20 0.026619 0.00736572 0.115494 -0.0065977 6.87146e-05
-1.91544e-20 0.019119 0.02 0.143479 -0.00602316 0.000135706
-1.0842e-19 0.020369 0.01875 0.141584 -0.00610971 0.000127572
8.08456e-20 -0.003381 0.0275 0.153766 -0.00523937 0.000166739
0 -0.025881 0.00994629 0.124334 -0.0054194 4.16696e-05
0 0.025369 0.011217 0.127219 -0.00654041 8.93526e-05
-1.03398e-25 0.0276625 0.00233887 0.0799131 -0.00557033 2.81333e-05
0 0.017869 0.02125 0.145375 -0.00593731 0.00014361
0 -0.023381 0.0149988 0.135604 -0.00535003 5.5492e-05
0 -0.027131 0.00608215 0.111345 -0.0053404 3.24132e-05
8.08456e-20 0.004119 0.0275 0.153687 -0.00538059 0.000179261
8.08353e-20 0.021619 0.0175 0.139501 -0.00619511 0.000121071
-1.0842e-19 0.027869 0.00116944 0.06416 -0.00488082 1.56214e-05
1.0842e-19 -0.014631 0.02375 0.149185 -0.00518211 0.000116447
-1.0842e-19 -0.009631 0.02625 0.152336 -0.0051735 0.000145205
-1.91544e-20 0.016619 0.0225 0.147116 -0.00585224 0.00015312
-1.0842e-19 0.022869 0.0162494 0.137416 -0.00628133 0.000114308
-1.0842e-19 0.027869 0.00356872 0.0959125 -0.00627997 4.08434e-05
-1.91544e-20 -0.005881 0.0275 0.153791 -0.00519265 0.000163111
0 -0.024631 0.0137433 0.13328 -0.00536672 5.02912e-05
0 0.010369 0.02625 0.152122 -0.00555451 0.000177812
-1.91544e-20 0.006619 0.0275 0.153659 -0.00542798 0.000184013
0 0.015369 0.02375 0.148858 -0.00576787 0.000162348
8.08456e-20 -0.013381 0.025 0.150773 -0.00515466 0.000129317
3.30872e-24 -0.028381 1.56354e-08 5.50933e-07 -3.24195e-08 8.1404e-11
3.69431e-20 0.024119 0.0149988 0.135067 -0.00636406 0.000108848
-6.0395e-20 0.026619 0.00994629 0.123737 -0.00659582 8.41731e-05
-9.03e-20 -0.028381 0.00233888 0.0805272 -0.00440713 1.60731e-05
-2.1684e-19 -0.027131 0.008656 0.120864 -0.00540612 3.86424e-05
1.0842e-19 0.027869 0.00608215 0.11072 -0.00660418 6.16926e-05
5.84013e-20 0.014119 0.025 0.150475 -0.00568512 0.000172767
3.23117e-27 -0.025881 0.0124878 0.130549 -0.00537357 4.68912e-05
8.08456e-20 -0.008381 0.0275 0.153816 -0.00514609 0.00015974
0 0.000369 0.02875 0.15522 -0.00525697 0.00018606
5.32301e-20 -0.028381 0.00479858 0.103895 -0.00516022 2.73475e-05
-1.0842e-19 -0.002131 0.02875 0.155246 -0.00521056 0.000181841
1.0842e-19 0.025369 0.0137433 0.132714 -0.00644776 0.00010311
0 0.002869 0.02875 0.155194 -0.00530353 0.000190389
8.08456e-20 -0.020881 0.02 0.143918 -0.00521344 8.24613e-05
0 -0.012131 0.02625 0.15236 -0.00512669 0.000142235
-1.0842e-19 -0.019631 0.02125 0.145782 -0.0051881 9.1746e-05
3.28979e-21 0.009119 0.0275 0.15363 -0.00547553 0.00018907
0 -0.022131 0.01875 0.142055 -0.00523827 7.32915e-05
-1.91544e-20 -0.018381 0.0225 0.147495 -0.00516158 0.000102865
-1.65436e-24 0.029119 8.18133e-09 2.85491e-07 -2.17886e-08 7.07187e-11
-1.0842e-19 -0.004631 0.02875 0.155271 -0.00516427 0.000178024
0 0.027869 0.008656 0.120239 -0.00665201 7.8539e-05
-7.41529e-29 -0.023381 0.0174821 0.139969 -0.00526135 6.61495e-05
-1.91512e-20 -0.023381 0.0175 0.14 -0.00526071 6.62261e-05
-2.06795e-25 0.029119 0.00233887 0.0798884 -0.00560336 2.873e-05
0 0.012869 0.02625 0.152092 -0.00560304 0.000183014
0 0.005369 0.02875 0.155167 -0.00535036 0.000195193
0 -0.017131 0.02375 0.149208 -0.00513445 0.000114001
0 -0.028381 0.00736572 0.11611 -0.00534659 3.5103e-05
0 -0.027131 0.011217 0.127807 -0.00537987 4.36208e-05
-3.55229e-20 0.026619 0.0124878 0.129952 -0.00652298 9.84575e-05
0 0.020369 0.02125 0.145339 -0.00598921 0.000149079
-1.91544e-20 0.021619 0.02 0.143443 -0.00607581 0.000141199
6.13923e-26 0.0290996 0.00479858 0.103242 -0.00647133 5.22852e-05
0 -0.024631 0.0162494 0.137945 -0.00528259 5.92459e-05
-1.09497e-20 0.029119 0.00479858 0.103242 -0.0064718 5.23009e-05
-1.91544e-20 0.019119 0.0225 0.147082 -0.00590324 0.000158613
-8.07794e-28 0.029119 0.00495435 0.103983 -0.00648315 5.34764e-05
-1.0842e-19 0.022869 0.01875 0.141549 -0.00616311 0.00013301
8.08456e-20 -0.010881 0.0275 0.15384 -0.0050997 0.000156605
8.08456e-20 -0.015881 0.025 0.150796 -0.00510757 0.000126724
0 -0.007131 0.02875 0.155296 -0.00511818 0.000174374
0 -0.029631 0.00116943 0.0647725 -0.00379332 9.64926e-06
0 0.017869 0.02375 0.148826 -0.00581801 0.00016789
1.58393e-19 0.024119 0.0175 0.139465 -0.00624937 0.000126314
0 0.007869 0.02875 0.155138 -0.00539721 0.000200165
0 -0.029631 0.00356872 0.0965499 -0.00498292 2.26618e-05
8.08456e-20 0.011619 0.0275 0.1536 -0.0055233 0.000194419
0 -0.025881 0.0149988 0.135625 -0.00529934 5.40415e-05
-3.54881e-20 -0.000881 0.03 0.15663 -0.00518337 0.000198102
5.84013e-20 0.016619 0.025 0.150443 -0.00573446 0.000178335
0 0.029119 0.00736572 0.115454 -0.00665878 7.16734e-05
-1.0842e-19 0.027869 0.011217 0.127178 -0.00659918 9.34407e-05