# UMean  POINT_DATA 34187
# x  y  z  UMean_x  UMean_y  UMean_z
1.60275e-08 -1.0842e-19 0 0 0 0
-0.000880992 1.0842e-19 0 0 0 0
0.00088102 5.42101e-20 0 0 0 0
-0.00161899 0 0 0 0 0
0.00161901 -5.42101e-20 0 0 0 0
-0.00124999 2.71051e-20 0.00116943 0.0582229 -0.00384546 1.13125e-05
0.00125001 -1.807e-20 0.00116943 0.0582463 -0.00385947 1.13244e-05
6.3044e-09 1.0842e-19 0.00233887 0.0802848 -0.00497026 2.01498e-05
-0.0025 -1.0842e-19 0 0 0 0
0.00250002 -1.0842e-19 0 0 0 0
-0.003381 0 0 0 0 0
0.00338102 0 0 0 0 0
-0.0025 -1.0842e-19 0.00233887 0.0802519 -0.0049515 2.01182e-05
0.00250001 1.0842e-19 0.00233887 0.0803187 -0.00498888 2.01337e-05
-0.00125 0 0.00356872 0.0951482 -0.0055498 2.83742e-05
0.00125 1.807e-20 0.00356872 0.0951878 -0.00557148 2.83921e-05
-0.00375 1.807e-20 0.00116943 0.0581996 -0.00383139 1.12913e-05
0.00375001 9.03502e-21 0.00116944 0.0582713 -0.00387331 1.12365e-05
0.004119 -5.42101e-20 0 0 0 0
-0.004119 -5.42101e-20 0 0 0 0
2.41733e-09 -1.0842e-19 0.00479858 0.103636 -0.00578203 3.53774e-05
0.005 -1.0842e-19 0 0 0 0
-0.00500001 1.0842e-19 0 0 0 0
-0.00375 -9.03502e-21 0.00356873 0.0951084 -0.00552809 2.82858e-05
0.00375 1.807e-20 0.00356873 0.0952288 -0.00559294 2.84225e-05
0.0025 -1.0842e-19 0.00479858 0.10368 -0.00580494 3.55459e-05
-0.0025 0 0.00479858 0.103593 -0.00575901 3.5192e-05
0.005 1.0842e-19 0.00233887 0.0803531 -0.00500741 2.00673e-05
-0.005 0 0.00233887 0.0802194 -0.00493267 2.01271e-05
0.005881 -5.42101e-20 0 0 0 0
-0.00588101 5.42101e-20 0 0 0 0
-0.00125 0 0.00608215 0.110721 -0.00591278 4.17694e-05
0.00125 0 0.00608215 0.110767 -0.00593678 4.20929e-05
0.00625 0 0.00116944 0.0582959 -0.00388713 1.109e-05
-0.00625 -1.807e-20 0.00116944 0.0581767 -0.00381728 1.13559e-05
0.00661899 5.42101e-20 0 0 0 0
-0.006619 -5.42101e-20 0 0 0 0
0.005 -1.0842e-19 0.00479858 0.103724 -0.00582781 3.57676e-05
-0.005 0 0.00479858 0.10355 -0.00573595 3.5e-05
-0.00375 0 0.00608215 0.110675 -0.00588883 4.14092e-05
0.00375 -1.807e-20 0.00608215 0.110813 -0.00596064 4.24515e-05
-0.00625 9.03502e-21 0.00356873 0.0950697 -0.00550629 2.82939e-05
0.00625 0 0.00356873 0.0952694 -0.00561446 2.84754e-05
7.8719e-10 0 0.00736572 0.115846 -0.00597134 4.70448e-05
0.00749999 -1.0842e-19 0 0 0 0
-0.0075 1.0842e-19 0 0 0 0
0.0025 0 0.00736572 0.115893 -0.0059958 4.75912e-05
-0.0025 0 0.00736572 0.1158 -0.00594683 4.64949e-05
0.0075 0 0.00233887 0.0803876 -0.00502592 2.00262e-05
-0.0075 -1.0842e-19 0.00233887 0.0801875 -0.00491378 2.02148e-05
0.00838099 -5.42101e-20 0 0 0 0
-0.008381 5.42101e-20 0 0 0 0
-0.00625 -3.61401e-20 0.00608215 0.11063 -0.00586469 4.10867e-05
0.00625 1.807e-20 0.00608215 0.110859 -0.0059846 4.29138e-05
-0.00125 3.61401e-20 0.008656 0.120419 -0.00598229 5.14717e-05
0.00125 3.61401e-20 0.00865601 0.120466 -0.00600715 5.22175e-05
-0.00874999 -9.03502e-21 0.00116944 0.0581547 -0.00380308 1.14925e-05
0.00875 0 0.00116943 0.0583215 -0.00390083 1.10163e-05
0.005 0 0.00736572 0.115941 -0.00602026 4.8184e-05
-0.005 0 0.00736572 0.115753 -0.0059223 4.59494e-05
0.0075 0 0.00479858 0.103767 -0.0058507 3.6044e-05
-0.0075 0 0.00479858 0.103508 -0.00571285 3.4875e-05
-0.00911899 -5.42101e-20 0 0 0 0
0.00911899 -5.42101e-20 0 0 0 0
0.00375 -1.807e-20 0.008656 0.120514 -0.00603203 5.2967e-05
-0.00375 -1.807e-20 0.008656 0.120372 -0.0059574 5.07257e-05
-0.00875 2.71051e-20 0.00356873 0.0950313 -0.00548451 2.83851e-05
0.00875 1.807e-20 0.00356873 0.0953107 -0.00563592 2.85808e-05
1.93058e-10 0 0.00994629 0.124088 -0.00598206 5.60175e-05
-0.00999999 0 0 0 0 0
0.00999999 -1.0842e-19 0 0 0 0
0.0025 0 0.00994629 0.124136 -0.00600709 5.68989e-05
-0.0025 0 0.00994629 0.124041 -0.00595699 5.5131e-05
-0.00999999 0 0.00233887 0.0801563 -0.00489488 2.02892e-05
0.01 0 0.00233887 0.080423 -0.00504435 1.9967e-05
0.0075 0 0.00736572 0.115988 -0.00604473 4.88143e-05
-0.0075 0 0.00736572 0.115707 -0.00589773 4.54571e-05
-0.00875 -1.807e-20 0.00608215 0.110586 -0.00584061 4.08104e-05
0.00875 -3.61401e-20 0.00608215 0.110906 -0.00600849 4.33733e-05
-0.00625 0 0.008656 0.120325 -0.00593246 5.0009e-05
0.00625 1.807e-20 0.008656 0.120562 -0.00605696 5.37527e-05
0.010881 1.0842e-19 0 0 0 0
-0.010881 -5.42101e-20 0 0 0 0
0.01 0 0.00479858 0.103812 -0.00587353 3.62953e-05
-0.01 0 0.00479858 0.103466 -0.00568979 3.47609e-05
0.005 0 0.00994629 0.124184 -0.00603215 5.77914e-05
-0.005 0 0.00994629 0.123994 -0.00593188 5.42552e-05
-0.00125 -3.61401e-20 0.011217 0.127435 -0.00594777 5.96596e-05
0.00125 -3.61401e-20 0.011217 0.127482 -0.00597298 6.06593e-05
-0.01125 2.71051e-20 0.00116944 0.0581333 -0.00378888 1.1569e-05
0.01125 -3.61401e-20 0.00116943 0.0583476 -0.00391446 1.08326e-05
-0.011619 5.42101e-20 0 0 0 0
0.011619 0 0 0 0 0
-0.01125 -1.807e-20 0.00356872 0.0949935 -0.00546277 2.83544e-05
0.01125 1.807e-20 0.00356873 0.0953526 -0.00565732 2.86065e-05
-0.00375 1.807e-20 0.011217 0.127389 -0.0059226 5.86237e-05
0.00375 0 0.011217 0.12753 -0.0059981 6.1658e-05
0.00875 -1.807e-20 0.008656 0.120611 -0.0060818 5.454e-05
-0.00875 -1.807e-20 0.008656 0.120278 -0.00590755 4.9352e-05
0.01 0 0.00736572 0.116036 -0.00606912 4.94269e-05
-0.01 0 0.00736572 0.115661 -0.00587322 4.50035e-05
0.0075 0 0.00994629 0.124232 -0.00605723 5.87009e-05
-0.0075 0 0.00994629 0.123947 -0.00590677 5.34216e-05
3.05206e-11 0 0.0124878 0.130303 -0.00592419 6.41996e-05
0.0125 -1.0842e-19 0 0 0 0
-0.0125 1.0842e-19 0 0 0 0
0.0125 0 0.00233887 0.0804593 -0.00506268 1.98721e-05
-0.0125 1.0842e-19 0.00233887 0.0801257 -0.00487595 2.03193e-05
0.0025 0 0.0124878 0.130349 -0.00594942 6.53365e-05
-0.0025 0 0.0124878 0.130257 -0.00589892 6.30688e-05
-0.01125 -9.03502e-21 0.00608215 0.110541 -0.00581667 4.05316e-05
0.01125 0 0.00608215 0.110953 -0.00603232 4.37836e-05
-0.00625 -3.61401e-20 0.011217 0.127342 -0.00589733 5.76e-05
0.00625 -1.807e-20 0.011217 0.127577 -0.00602335 6.26608e-05
0.013381 -5.42101e-20 0 0 0 0
-0.013381 0 0 0 0 0
0.0125 0 0.00479858 0.103857 -0.00589631 3.64913e-05
-0.0125 -1.0842e-19 0.00479858 0.103425 -0.00566674 3.46014e-05
0.005 0 0.0124878 0.130395 -0.00597465 6.64894e-05
-0.005 0 0.0124878 0.130212 -0.00587363 6.19411e-05
0.01375 9.03502e-21 0.00116943 0.0583755 -0.00392791 1.07186e-05
-0.01375 9.03502e-21 0.00116944 0.0581124 -0.00377465 1.1641e-05
-0.00125 5.42101e-20 0.0137433 0.13297 -0.00587144 6.78693e-05
0.00125 0 0.0137433 0.133014 -0.00589677 6.90911e-05
0.01 0 0.00994629 0.124281 -0.00608222 5.96225e-05
-0.01 0 0.00994629 0.123901 -0.00588167 5.26089e-05
-0.014119 -1.0842e-19 0 0 0 0
0.014119 -5.42101e-20 0 0 0 0
0.01125 -1.807e-20 0.008656 0.120661 -0.00610655 5.52924e-05
-0.01125 -1.807e-20 0.00865601 0.120232 -0.00588266 4.87385e-05
-0.01375 0 0.00356873 0.0949562 -0.00544099 2.83157e-05
0.01375 9.03502e-21 0.00356873 0.095395 -0.00567868 2.86507e-05
-0.00875 0 0.011217 0.127296 -0.00587211 5.66295e-05
0.00875 -1.807e-20 0.011217 0.127626 -0.00604856 6.36955e-05
0.00375 -1.807e-20 0.0137433 0.133058 -0.00592203 7.03526e-05
-0.00375 0 0.0137433 0.132926 -0.00584618 6.66283e-05
0.0125 0 0.00736572 0.116085 -0.00609342 4.99933e-05
-0.0125 0 0.00736572 0.115616 -0.00584874 4.45365e-05
0.0075 0 0.0124878 0.130442 -0.00599989 6.76432e-05
-0.0075 0 0.0124878 0.130167 -0.00584834 6.08375e-05
2.26617e-12 0 0.0149988 0.135379 -0.00583708 7.39396e-05
0.015 -1.0842e-19 0 0 0 0
-0.015 0 0 0 0 0
0.01375 -1.807e-20 0.00608215 0.111001 -0.00605609 4.41571e-05
-0.01375 3.61401e-20 0.00608215 0.110498 -0.00579267 4.02122e-05
0.00625 -1.807e-20 0.0137433 0.133103 -0.00594728 7.16257e-05
-0.00625 0 0.0137433 0.132883 -0.00582084 6.54011e-05
0.015 -1.0842e-19 0.00233887 0.0804964 -0.00508085 1.99316e-05
-0.015 1.0842e-19 0.00233887 0.0800957 -0.00485704 2.03508e-05
0.0025 0 0.0149988 0.135421 -0.00586231 7.52666e-05
-0.0025 0 0.0149988 0.135337 -0.00581182 7.26369e-05
0.015 0 0.00479858 0.103903 -0.00591899 3.67587e-05
-0.015 -1.0842e-19 0.00479858 0.103384 -0.00564372 3.44197e-05
0.005 0 0.0149988 0.135463 -0.00588753 7.66288e-05
-0.005 0 0.0149988 0.135296 -0.00578655 7.13437e-05
0.015881 -1.0842e-19 0 0 0 0
-0.015881 1.0842e-19 0 0 0 0
0.01125 0 0.011217 0.127675 -0.0060737 6.47557e-05
-0.01125 0 0.011217 0.12725 -0.00584688 5.56363e-05
0.0125 0 0.00994629 0.124331 -0.0061071 6.05515e-05
-0.0125 0 0.00994629 0.123855 -0.0058566 5.17959e-05
0.01 0 0.0124878 0.130489 -0.00602505 6.88115e-05
-0.01 0 0.0124878 0.130123 -0.00582308 5.97362e-05
-0.01375 -1.807e-20 0.008656 0.120186 -0.00585784 4.80903e-05
0.01375 -3.61401e-20 0.008656 0.12071 -0.00613121 5.60365e-05
0.01625 -1.807e-20 0.00116943 0.0584029 -0.00394123 1.08401e-05
-0.01625 9.03502e-21 0.00116943 0.0580923 -0.00376043 1.17321e-05
-0.00875 -1.807e-20 0.0137433 0.13284 -0.00579556 6.419e-05
0.00875 0 0.0137433 0.133149 -0.00597248 7.28832e-05
-0.00125 1.807e-20 0.0162494 0.137656 -0.00577556 7.90738e-05
0.00125 -3.61401e-20 0.0162494 0.137696 -0.00580079 8.04489e-05
-0.016619 0 0 0 0 0
0.016619 -1.0842e-19 0 0 0 0
-0.01625 0 0.00356873 0.0949194 -0.0054193 2.82689e-05
0.01625 -1.807e-20 0.00356872 0.0954384 -0.00569985 2.89047e-05
0.00375 -1.807e-20 0.0162494 0.137736 -0.00582595 8.18786e-05
-0.00375 -1.807e-20 0.0162494 0.137617 -0.00575041 7.77262e-05
0.015 0 0.00736572 0.116134 -0.00611768 5.05598e-05
-0.015 0 0.00736572 0.115571 -0.00582428 4.4029e-05
0.0075 0 0.0149988 0.135506 -0.00591275 7.79957e-05
-0.0075 0 0.0149988 0.135255 -0.00576126 7.00643e-05
0.01625 -1.807e-20 0.00608215 0.111049 -0.00607981 4.46113e-05
-0.01625 -2.71051e-20 0.00608215 0.110454 -0.00576881 3.98528e-05
-0.00625 0 0.0162494 0.137578 -0.00572515 7.63902e-05
0.00625 0 0.0162494 0.137776 -0.00585116 8.33272e-05
0.0175 -1.0842e-19 0 0 0 0
-0.0175 -1.0842e-19 0 0 0 0
-1.02402e-14 0 0.0175 0.139775 -0.005736 8.6987e-05
0.0175 -1.0842e-19 0.00233887 0.0805339 -0.00509888 2.01241e-05
-0.0175 0 0.00233887 0.0800664 -0.00483817 2.04119e-05
0.0125 0 0.0124878 0.130537 -0.00605014 7.00236e-05
-0.0125 0 0.0124878 0.130079 -0.00579783 5.8641e-05
0.0025 0 0.0175 0.139812 -0.00576113 8.84058e-05
-0.0025 0 0.0175 0.139738 -0.00571086 8.55901e-05
-0.01375 -1.807e-20 0.011217 0.127205 -0.00582169 5.46758e-05
0.01375 -1.807e-20 0.011217 0.127724 -0.00609869 6.58664e-05
0.01125 0 0.0137433 0.133195 -0.00599765 7.41967e-05
-0.01125 -1.807e-20 0.0137433 0.132798 -0.00577034 6.29688e-05
0.015 0 0.00994629 0.12438 -0.00613197 6.14824e-05
-0.015 0 0.00994629 0.12381 -0.00583158 5.09696e-05
0.01 0 0.0149988 0.13555 -0.0059379 7.93632e-05
-0.01 0 0.0149988 0.135215 -0.00573603 6.87944e-05
0.0175 0 0.00479858 0.103949 -0.00594156 3.71419e-05
-0.0175 0 0.00479858 0.103344 -0.00562076 3.42355e-05
0.005 0 0.0175 0.13985 -0.00578624 8.98643e-05
-0.005 0 0.0175 0.139702 -0.0056857 8.42078e-05
-0.018381 -1.0842e-19 0 0 0 0
0.018381 -5.42101e-20 0 0 0 0
0.01625 -1.807e-20 0.008656 0.120761 -0.00615588 5.67958e-05
-0.01625 -1.807e-20 0.008656 0.12014 -0.00583301 4.73967e-05
-0.00875 0 0.0162494 0.13754 -0.00569993 7.50707e-05
0.00875 1.807e-20 0.0162494 0.137817 -0.0058763 8.47725e-05
0.01875 0 0.00116943 0.0584312 -0.0039544 1.09226e-05
-0.01875 -9.03502e-21 0.00116943 0.0580728 -0.00374622 1.18997e-05
0.00125 -1.807e-20 0.01875 0.141833 -0.00569545 9.5297e-05
-0.00125 -1.807e-20 0.01875 0.141798 -0.00567035 9.38446e-05
0.0175 0 0.00736572 0.116184 -0.00614185 5.11937e-05
-0.0175 0 0.00736572 0.115527 -0.00579986 4.35006e-05
0.0075 0 0.0175 0.139889 -0.00581136 9.13593e-05
-0.0075 0 0.0175 0.139666 -0.00566052 8.28419e-05
0.01875 0 0.00356872 0.0954823 -0.00572097 2.92051e-05
-0.01875 1.807e-20 0.00356873 0.0948831 -0.00539766 2.82481e-05
0.019119 1.0842e-19 0 0 0 0
-0.019119 5.42101e-20 0 0 0 0
0.00375 -1.807e-20 0.01875 0.141868 -0.00572046 9.67444e-05
-0.00375 -1.807e-20 0.01875 0.141764 -0.00564532 9.24306e-05
0.01375 0 0.0137433 0.133242 -0.0060227 7.55359e-05
-0.01375 0 0.0137433 0.132756 -0.00574509 6.17795e-05
0.015 0 0.0124878 0.130585 -0.00607519 7.12599e-05
-0.015 0 0.0124878 0.130036 -0.00577262 5.75676e-05
0.0125 0 0.0149988 0.135594 -0.00596301 8.07568e-05
-0.0125 0 0.0149988 0.135175 -0.0057108 6.7535e-05
0.01875 -9.03502e-21 0.00608215 0.111098 -0.00610338 4.5152e-05
-0.01875 -1.807e-20 0.00608215 0.110411 -0.00574491 3.95003e-05
0.01625 -1.807e-20 0.011217 0.127773 -0.00612369 6.69494e-05
-0.01625 -1.807e-20 0.011217 0.12716 -0.00579662 5.3701e-05
0.01125 1.807e-20 0.0162494 0.137859 -0.0059014 8.6225e-05
-0.01125 -1.807e-20 0.0162494 0.137503 -0.00567475 7.37649e-05
0.00625 1.807e-20 0.01875 0.141904 -0.00574553 9.82549e-05
-0.00625 1.807e-20 0.01875 0.14173 -0.00562022 9.10282e-05
0.02 0 0 0 0 0
-0.02 -1.0842e-19 0 0 0 0
-1.024e-14 0 0.02 0.143715 -0.00562855 0.000103571
0.0175 0 0.00994629 0.124431 -0.00615679 6.24263e-05
-0.0175 0 0.00994629 0.123764 -0.00580659 5.01225e-05
0.02 1.0842e-19 0.00233887 0.0805722 -0.00511673 2.02893e-05
-0.02 0 0.00233887 0.0800377 -0.00481931 2.05005e-05
0.0025 0 0.02 0.143748 -0.0056535 0.000105023
0.01 0 0.0175 0.139928 -0.00583642 9.28641e-05
-0.0025 0 0.02 0.143683 -0.00560359 0.00010212
-0.01 0 0.0175 0.13963 -0.00563539 8.14984e-05
0.02 -1.0842e-19 0.00479858 0.103997 -0.005964 3.75323e-05
-0.02 0 0.00479858 0.103304 -0.00559785 3.40599e-05
0.005 0 0.02 0.143781 -0.00567843 0.000106508
-0.005 0 0.02 0.143652 -0.00557862 0.000100684
0.01875 0 0.008656 0.120811 -0.00618037 5.76033e-05
-0.01875 -1.807e-20 0.008656 0.120096 -0.00580823 4.67081e-05
0.00875 0 0.01875 0.141941 -0.00577054 9.97967e-05
-0.00875 0 0.01875 0.141697 -0.00559514 8.9646e-05
-0.020881 5.42101e-20 0 0 0 0
0.020881 5.42101e-20 0 0 0 0
0.015 0 0.0149988 0.135639 -0.00598805 8.21711e-05
-0.015 0 0.0149988 0.135136 -0.00568559 6.62872e-05
-0.02125 -9.03502e-21 0.00116943 0.0580537 -0.00373203 1.20646e-05
0.02125 0 0.00116944 0.0584604 -0.00396734 1.09667e-05
-0.01625 -1.807e-20 0.0137433 0.132714 -0.00571989 6.06216e-05
0.01625 -1.807e-20 0.0137433 0.133289 -0.00604775 7.68715e-05
-0.01375 0 0.0162494 0.137466 -0.00564955 7.24569e-05
0.01375 0 0.0162494 0.137901 -0.00592641 8.76831e-05
0.00125 -1.807e-20 0.02125 0.145586 -0.00558627 0.000113671
-0.00125 -1.807e-20 0.02125 0.145556 -0.00556141 0.000112207
0.02 0 0.00736572 0.116234 -0.00616589 5.18655e-05
-0.02 0 0.00736572 0.115482 -0.00577551 4.29896e-05
0.0075 0 0.02 0.143815 -0.00570337 0.000108051
-0.0075 0 0.02 0.14362 -0.00555364 9.92733e-05
0.0175 0 0.0124878 0.130634 -0.00610019 7.24885e-05
-0.0175 0 0.0124878 0.129993 -0.00574748 5.64914e-05
0.0125 0 0.0175 0.139967 -0.00586143 9.43702e-05
-0.0125 0 0.0175 0.139596 -0.00561029 8.01712e-05
-0.02125 0 0.00356873 0.0948473 -0.00537601 2.82265e-05
0.02125 -9.03502e-21 0.00356873 0.0955267 -0.00574195 2.94629e-05
0.00375 -3.61401e-20 0.02125 0.145617 -0.00561104 0.000115107
-0.00375 -1.807e-20 0.02125 0.145527 -0.0055366 0.000110743
0.021619 0 0 0 0 0
-0.021619 5.42101e-20 0 0 0 0
-0.01875 -1.807e-20 0.011217 0.127116 -0.00577149 5.27108e-05
0.01875 0 0.011217 0.127824 -0.00614864 6.80272e-05
0.01125 -1.807e-20 0.01875 0.141977 -0.00579553 0.000101336
-0.01125 -1.807e-20 0.01875 0.141664 -0.00557011 8.82934e-05
-0.02125 -2.71051e-20 0.00608215 0.110367 -0.00572114 3.91784e-05
0.02125 1.807e-20 0.00608215 0.111147 -0.00612677 4.56743e-05
-0.00625 1.807e-20 0.02125 0.145497 -0.00551173 0.000109314
0.00625 -1.807e-20 0.02125 0.145648 -0.00563587 0.000116631
0.02 0 0.00994629 0.124482 -0.00618148 6.33935e-05
-0.02 0 0.00994629 0.12372 -0.00578165 4.92793e-05
0.01 0 0.02 0.143849 -0.00572825 0.000109616
-0.01 0 0.02 0.14359 -0.00552869 9.78908e-05
0.0225 0 0 0 0 0
-0.0225 -1.0842e-19 0 0 0 0
-1.02399e-14 0 0.0225 0.147315 -0.00551904 0.000123608
0.0225 -1.0842e-19 0.00233887 0.0806114 -0.00513432 2.0421e-05
-0.0225 1.0842e-19 0.00233887 0.0800096 -0.00480047 2.05736e-05
0.0025 0 0.0225 0.147343 -0.00554372 0.000125045
-0.0025 0 0.0225 0.147288 -0.00549434 0.000122164
-0.02125 -1.807e-20 0.008656 0.120051 -0.00578349 4.60503e-05
0.02125 -1.807e-20 0.008656 0.120862 -0.00620479 5.84293e-05
0.01625 -1.807e-20 0.0162494 0.137944 -0.00595141 8.91632e-05
-0.01625 0 0.0162494 0.137429 -0.00562441 7.11459e-05
0.00875 -1.807e-20 0.02125 0.14568 -0.00566069 0.000118206
-0.00875 -3.61401e-20 0.02125 0.145469 -0.00548689 0.000107903
0.0225 -1.0842e-19 0.00479858 0.104045 -0.00598622 3.78808e-05
-0.0225 -1.0842e-19 0.00479858 0.103264 -0.00557496 3.39026e-05
0.0175 0 0.0149988 0.135684 -0.00601304 8.35934e-05
-0.0175 0 0.0149988 0.135097 -0.00566044 6.50474e-05
0.005 0 0.0225 0.147372 -0.0055684 0.000126522
-0.005 0 0.0225 0.14726 -0.00546965 0.000120734
0.015 0 0.0175 0.140008 -0.00588638 9.58892e-05
-0.015 0 0.0175 0.139561 -0.00558521 7.88431e-05
0.01875 0 0.0137433 0.133337 -0.00607269 7.82118e-05
-0.01875 -1.807e-20 0.0137433 0.132673 -0.00569476 5.94571e-05
0.01375 5.42101e-20 0.01875 0.142015 -0.00582041 0.000102865
-0.01375 -3.61401e-20 0.01875 0.141632 -0.00554515 8.69634e-05
-0.023381 -5.42101e-20 0 0 0 0
0.023381 0 0 0 0 0
0.02 0 0.0124878 0.130683 -0.00612508 7.37219e-05
-0.02 0 0.0124878 0.12995 -0.00572238 5.54047e-05
0.0125 0 0.02 0.143884 -0.00575308 0.000111181
-0.0125 0 0.02 0.14356 -0.00550378 9.65395e-05
0.0225 0 0.00736572 0.116285 -0.00618976 5.25156e-05
-0.0225 0 0.00736572 0.115438 -0.00575119 4.25158e-05
0.0075 0 0.0225 0.147401 -0.0055931 0.000128072
-0.0075 0 0.0225 0.147234 -0.00544494 0.000119326
-0.02375 0 0.00116943 0.0580356 -0.00371781 1.21786e-05
0.02375 0 0.00116944 0.05849 -0.00398003 1.10263e-05
0.00125 1.807e-20 0.02375 0.149037 -0.00547648 0.000135287
-0.00125 -1.807e-20 0.02375 0.149011 -0.00545191 0.000133869
0.02375 -3.61401e-20 0.00356873 0.0955726 -0.00576254 2.9697e-05
-0.02375 1.807e-20 0.00356873 0.0948115 -0.00535441 2.81821e-05
0.02125 -1.807e-20 0.011217 0.127875 -0.00617334 6.9133e-05
-0.02125 -1.807e-20 0.011217 0.127071 -0.0057465 5.17161e-05
-0.01125 -1.807e-20 0.02125 0.145441 -0.00546208 0.000106523
0.01125 -1.807e-20 0.02125 0.145712 -0.00568537 0.000119776
0.00375 -1.807e-20 0.02375 0.149063 -0.00550098 0.000136696
-0.00375 0 0.02375 0.148986 -0.00542742 0.000132456
0.024119 -5.42101e-20 0 0 0 0
-0.024119 5.42101e-20 0 0 0 0
0.02375 -1.807e-20 0.00608215 0.111198 -0.00614998 4.61539e-05
-0.02375 -1.807e-20 0.00608215 0.110325 -0.00569726 3.89183e-05
-0.00625 -1.807e-20 0.02375 0.148961 -0.00540286 0.00013107
0.00625 -1.807e-20 0.02375 0.14909 -0.00552556 0.00013821
0.0225 0 0.00994629 0.124534 -0.00620602 6.43657e-05
-0.0225 0 0.00994629 0.123675 -0.00575676 4.84386e-05
0.01 0 0.0225 0.147431 -0.00561772 0.000129654
-0.01 0 0.0225 0.147208 -0.00542026 0.000117943
0.0175 0 0.0175 0.140049 -0.00591129 9.74319e-05
-0.0175 0 0.0175 0.139528 -0.00556019 7.752e-05
0.01875 -1.807e-20 0.0162494 0.137988 -0.00597636 9.06627e-05
-0.01875 -1.807e-20 0.0162494 0.137394 -0.0055993 6.98499e-05
0.01625 -1.807e-20 0.01875 0.142054 -0.00584526 0.000104442
-0.01625 -3.61401e-20 0.01875 0.141601 -0.00552016 8.5623e-05
0.02 0 0.0149988 0.13573 -0.00603792 8.50291e-05
-0.02 0 0.0149988 0.135059 -0.00563535 6.38096e-05
-0.025 -1.0842e-19 0 0 0 0
0.015 0 0.02 0.14392 -0.00577786 0.000112768
-0.015 0 0.02 0.143531 -0.00547891 9.52106e-05
0.025 0 0 0 0 0
-1.024e-14 0 0.025 0.150639 -0.00540988 0.00014661
0.025 0 0.00233887 0.0806513 -0.00515165 2.05127e-05
-0.025 1.0842e-19 0.00233887 0.0799821 -0.00478166 2.06199e-05
0.0025 0 0.025 0.150664 -0.00543425 0.000148014
-0.0025 0 0.025 0.150616 -0.00538551 0.000145209
0.02375 -1.807e-20 0.008656 0.120915 -0.00622894 5.924e-05
-0.02375 -1.807e-20 0.008656 0.120006 -0.00575882 4.54077e-05
0.02125 -1.807e-20 0.0137433 0.133385 -0.00609751 7.95668e-05
-0.02125 -1.807e-20 0.0137433 0.132633 -0.00566969 5.82833e-05
0.01375 -1.807e-20 0.02125 0.145745 -0.0057101 0.000121366
0.00875 0 0.02375 0.149117 -0.00555006 0.000139781
-0.00875 0 0.02375 0.148937 -0.00537831 0.000129686
-0.01375 -3.61401e-20 0.02125 0.145414 -0.00543729 0.000105189
0.025 -1.0842e-19 0.00479858 0.104093 -0.00600826 3.81975e-05
-0.025 -1.0842e-19 0.00479858 0.103225 -0.00555212 3.37473e-05
0.005 0 0.025 0.150688 -0.00545863 0.000149469
-0.005 0 0.025 0.150593 -0.00536115 0.00014383
0.0225 0 0.0124878 0.130733 -0.00614985 7.49666e-05
-0.0225 0 0.0124878 0.129908 -0.00569735 5.4304e-05
0.0125 0 0.0225 0.147462 -0.00564229 0.000131253
-0.0125 0 0.0225 0.147183 -0.00539562 0.000116596
-0.025881 0 0 0 0 0
0.025881 -1.0842e-19 0 0 0 0
0.025 0 0.00736572 0.116337 -0.0062135 5.31473e-05
-0.025 0 0.00736572 0.115395 -0.00572693 4.20537e-05
0.0075 0 0.025 0.150714 -0.00548301 0.000151001
-0.0075 0 0.025 0.15057 -0.00533676 0.000142478
-0.02375 1.807e-20 0.011217 0.127028 -0.00572148 5.06895e-05
0.02375 -1.807e-20 0.011217 0.127927 -0.00619802 7.02396e-05
-0.02625 -9.03502e-21 0.00116943 0.0580181 -0.00370363 1.22813e-05
0.02625 -9.03502e-21 0.00116944 0.0585204 -0.00399249 1.09745e-05
0.00125 -3.61401e-20 0.02625 0.152236 -0.00536791 0.000159597
0.01125 0 0.02375 0.149146 -0.00557451 0.000141381
-0.01125 3.61401e-20 0.02375 0.148913 -0.00535381 0.000128346
-0.00125 0 0.02625 0.152214 -0.00534369 0.000158214
-0.02625 -1.807e-20 0.00356873 0.0947767 -0.00533282 2.81163e-05
0.02625 -3.61401e-20 0.00356873 0.0956185 -0.00578299 2.98634e-05
-0.01875 -1.807e-20 0.01875 0.14157 -0.00549528 8.43061e-05
0.01875 0 0.01875 0.142092 -0.00587003 0.000106041
0.00375 5.42101e-20 0.02625 0.152259 -0.00539212 0.000161006
-0.00375 -1.807e-20 0.02625 0.152192 -0.00531951 0.000156845
0.02 0 0.0175 0.14009 -0.00593609 9.89944e-05
0.0175 0 0.02 0.143956 -0.00580258 0.000114388
-0.0175 0 0.02 0.143502 -0.00545409 9.38985e-05
-0.02 0 0.0175 0.139495 -0.00553523 7.6205e-05
0.026619 1.0842e-19 0 0 0 0
-0.026619 -5.42101e-20 0 0 0 0
0.02125 -1.807e-20 0.0162494 0.138032 -0.00600111 9.21697e-05
-0.02125 0 0.0162494 0.137358 -0.00557425 6.85549e-05
0.01625 -1.807e-20 0.02125 0.145779 -0.00573474 0.000122994
-0.01625 -1.807e-20 0.02125 0.145387 -0.00541255 0.000103887
0.025 0 0.00994629 0.124586 -0.00623042 6.53507e-05
-0.025 0 0.00994629 0.123631 -0.00573195 4.75875e-05
0.01 0 0.025 0.15074 -0.00550731 0.000152568
-0.01 0 0.025 0.150548 -0.0053124 0.000141148
0.02625 1.807e-20 0.00608215 0.111249 -0.0061731 4.65977e-05
-0.02625 -1.807e-20 0.00608215 0.110283 -0.00567354 3.86343e-05
-0.00625 0 0.02625 0.152171 -0.00529528 0.000155516
0.00625 -1.807e-20 0.02625 0.152282 -0.00541634 0.000162488
0.0225 0 0.0149988 0.135777 -0.00606271 8.64772e-05
-0.0225 0 0.0149988 0.135021 -0.00561032 6.25776e-05
0.015 0 0.0225 0.147493 -0.00566682 0.000132871
-0.015 0 0.0225 0.147158 -0.00537101 0.000115285
0.02375 -1.807e-20 0.0137433 0.133433 -0.00612226 8.09152e-05
-0.02375 -1.807e-20 0.0137433 0.132593 -0.00564472 5.71051e-05
-0.01375 0 0.02375 0.148891 -0.00532938 0.000127037
0.01375 0 0.02375 0.149174 -0.00559893 0.000142996
-1.02401e-14 0 0.0275 0.153731 -0.00530287 0.000172112
0.0275 0 0 0 0 0
-0.0275 -1.0842e-19 0 0 0 0
0.0275 -1.0842e-19 0.00233887 0.0806918 -0.00516874 2.05481e-05
-0.0275 -1.0842e-19 0.00233887 0.0799551 -0.0047629 2.06535e-05
0.0025 0 0.0275 0.153752 -0.0053269 0.000173472
-0.0025 0 0.0275 0.153711 -0.00527884 0.000170765
0.02625 -1.807e-20 0.008656 0.120967 -0.00625309 6.00744e-05
-0.02625 -1.807e-20 0.008656 0.119962 -0.00573426 4.47387e-05
0.00875 0 0.02625 0.152306 -0.00544051 0.000164032
-0.00875 -3.61401e-20 0.02625 0.152151 -0.00527107 0.000154213
0.0275 -1.0842e-19 0.00479858 0.104142 -0.00603013 3.85132e-05
-0.0275 -1.0842e-19 0.00479858 0.103186 -0.00552935 3.35502e-05
0.025 0 0.0124878 0.130784 -0.00617448 7.62297e-05
-0.025 0 0.0124878 0.129866 -0.00567238 5.31859e-05
0.005 0 0.0275 0.153774 -0.00535093 0.000174883
-0.005 0 0.0275 0.153691 -0.00525481 0.000169439
0.0125 0 0.025 0.150767 -0.00553156 0.000154149
-0.0125 0 0.025 0.150527 -0.00528808 0.00013985
0.02 0 0.02 0.143993 -0.0058272 0.000116031
-0.02 0 0.02 0.143474 -0.00542934 9.25985e-05
0.01875 0 0.02125 0.145814 -0.0057593 0.000124651
-0.01875 0 0.02125 0.145361 -0.00538786 0.000102602
0.02125 0 0.01875 0.142132 -0.00589471 0.000107653
-0.02125 -1.807e-20 0.01875 0.14154 -0.00547047 8.29791e-05
-0.028381 -5.42101e-20 0 0 0 0
0.028381 -5.42101e-20 0 0 0 0
0.0275 0 0.00736572 0.116389 -0.00623714 5.37769e-05
-0.0275 0 0.00736572 0.115351 -0.00570277 4.15536e-05
0.0075 0 0.0275 0.153795 -0.00537496 0.000176368
-0.0075 0 0.0275 0.153672 -0.00523078 0.000168155
0.0175 0 0.0225 0.147525 -0.00569126 0.000134515
0.0225 0 0.0175 0.140132 -0.00596079 0.000100576
-0.0175 0 0.0225 0.147134 -0.00534643 0.000114
-0.0225 0 0.0175 0.139462 -0.0055103 7.49028e-05
0.02625 0 0.011217 0.127979 -0.00622248 7.14113e-05
-0.02625 -1.807e-20 0.011217 0.126984 -0.00569664 4.96619e-05
-0.01125 0 0.02625 0.152131 -0.00524692 0.000152938
0.01125 5.42101e-20 0.02625 0.15233 -0.00546454 0.000165563
-0.02875 -2.71051e-20 0.00116943 0.0580009 -0.00368948 1.23834e-05
0.02875 -1.807e-20 0.00116943 0.0585514 -0.00400467 1.08588e-05
0.02375 0 0.0162494 0.138076 -0.00602583 9.36907e-05
-0.02375 0 0.0162494 0.137323 -0.00554927 6.72889e-05
0.00125 0 0.02875 0.155221 -0.00526233 0.000186205
0.01625 -1.807e-20 0.02375 0.149204 -0.00562322 0.00014462
-0.01625 -1.807e-20 0.02375 0.148868 -0.00530491 0.000125753
-0.00125 -1.807e-20 0.02875 0.155202 -0.00523846 0.00018489
-0.02875 -1.807e-20 0.00356873 0.0947421 -0.00531133 2.80043e-05
0.02875 9.03502e-21 0.00356872 0.0956651 -0.00580319 3.00488e-05
0.00375 -3.61401e-20 0.02875 0.155241 -0.00528618 0.000187563
-0.00375 -1.807e-20 0.02875 0.155184 -0.00521461 0.000183576
0.029119 5.42101e-20 0 0 0 0
-0.029119 0 0 0 0 0
0.025 0 0.0149988 0.135824 -0.00608737 8.79382e-05
-0.025 0 0.0149988 0.134984 -0.00558536 6.13548e-05
0.015 0 0.025 0.150794 -0.00555576 0.000155748
-0.015 0 0.025 0.150506 -0.00526378 0.000138581
0.0275 0 0.00994629 0.124638 -0.00625472 6.63352e-05
-0.0275 0 0.00994629 0.123587 -0.00570722 4.67321e-05
0.01 0 0.0275 0.153818 -0.0053989 0.000177879
-0.01 0 0.0275 0.153654 -0.00520676 0.000166901
-0.02875 1.807e-20 0.00608215 0.110241 -0.00564982 3.82527e-05
0.02875 9.03502e-21 0.00608215 0.1113 -0.00619607 4.70598e-05
0.00625 1.807e-20 0.02875 0.155261 -0.00531006 0.000188978
-0.00625 -3.61401e-20 0.02875 0.155166 -0.00519075 0.00018229
-0.02625 1.807e-20 0.0137433 0.132553 -0.00561973 5.5912e-05
0.02625 -1.807e-20 0.0137433 0.133483 -0.00614685 8.22836e-05
0.01375 -1.807e-20 0.02625 0.152356 -0.00548859 0.000167117
-0.01375 0 0.02625 0.152112 -0.00522274 0.000151688
0.03 0 0 0 0 0
-0.03 -1.0842e-19 0 0 0 0
-1.024e-14 0 0.03 0.156621 -0.00519956 0.000199643
-0.02875 1.807e-20 0.008656 0.119917 -0.00570983 4.40314e-05
0.02875 -1.807e-20 0.008656 0.12102 -0.00627712 6.08387e-05
-0.02125 -1.807e-20 0.02125 0.145336 -0.00536326 0.000101336
0.02125 5.42101e-20 0.02125 0.145849 -0.00578371 0.000126317
-0.00875 1.807e-20 0.02875 0.155148 -0.00516691 0.00018107
0.00875 0 0.02875 0.155281 -0.00533385 0.000190461
0.03 0 0.00233887 0.0807331 -0.00518554 2.05578e-05
-0.03 -1.0842e-19 0.00233887 0.0799285 -0.00474419 2.06768e-05
0.02 0 0.0225 0.147558 -0.00571561 0.000136184
0.0225 0 0.02 0.144031 -0.00585172 0.000117695
0.0025 0 0.03 0.156639 -0.00522322 0.000200944
-0.0025 0 0.03 0.156604 -0.0051759 0.000198368
-0.02 0 0.0225 0.14711 -0.00532191 0.000112733
-0.0225 0 0.02 0.143446 -0.00540462 9.13034e-05
0.0275 0 0.0124878 0.130836 -0.00619898 7.75065e-05
-0.0275 0 0.0124878 0.129825 -0.00564745 5.2071e-05
0.0125 0 0.0275 0.153841 -0.00542278 0.000179397
-0.0125 0 0.0275 0.153636 -0.00518277 0.000165672
0.02375 0 0.01875 0.142172 -0.00591927 0.000109294
-0.01875 -1.807e-20 0.02375 0.148846 -0.0052805 0.00012449
-0.02375 -3.61401e-20 0.01875 0.14151 -0.00544565 8.16788e-05
0.01875 -3.61401e-20 0.02375 0.149234 -0.00564746 0.000146266
0.03 0 0.00479858 0.104192 -0.00605176 3.88388e-05
-0.03 -1.0842e-19 0.00479858 0.103148 -0.00550663 3.32876e-05
0.005 0 0.03 0.156658 -0.00524688 0.000202299
-0.005 0 0.03 0.156587 -0.00515224 0.000197113
0.0175 0 0.025 0.150822 -0.00557988 0.000157369
0.025 0 0.0175 0.140175 -0.00598538 0.000102177
-0.0175 0 0.025 0.150486 -0.0052395 0.000137341
-0.025 0 0.0175 0.13943 -0.00548543 7.36285e-05
0.02875 -1.807e-20 0.011217 0.128032 -0.00624685 7.2556e-05
-0.02875 0 0.011217 0.126941 -0.00567177 4.86671e-05
0.02625 0 0.0162494 0.138122 -0.00605044 9.52351e-05
-0.02625 -1.807e-20 0.0162494 0.137289 -0.0055244 6.60489e-05
0.01125 -1.807e-20 0.02875 0.155302 -0.00535758 0.000191934
0.01625 -1.807e-20 0.02625 0.152382 -0.0055126 0.000168697
-0.01125 0 0.02875 0.155131 -0.00514309 0.000179855
-0.01625 -1.807e-20 0.02625 0.152093 -0.00519861 0.000150469
0.030881 5.42101e-20 0 0 0 0
-0.030881 0 0 0 0 0
0.03 0 0.00736572 0.116442 -0.00626055 5.4412e-05
-0.03 0 0.00736572 0.115308 -0.00567863 4.09813e-05
0.0075 0 0.03 0.156677 -0.00527054 0.000203718
-0.0075 0 0.03 0.156571 -0.00512858 0.0001959
-0.03125 3.61401e-20 0.00116943 0.0579841 -0.00367537 1.24828e-05
0.03125 -9.03502e-21 0.00116943 0.058583 -0.00401654 1.07522e-05
0.00125 0 0.03125 0.158015 -0.00516112 0.000214514
-0.00125 0 0.03125 0.157998 -0.00513764 0.00021327
0.0275 0 0.0149988 0.135872 -0.00611191 8.94154e-05
-0.0275 0 0.0149988 0.134947 -0.00556044 6.01366e-05
0.015 0 0.0275 0.153865 -0.00544662 0.000180942
-0.015 0 0.0275 0.153618 -0.00515879 0.000164472
-0.03125 0 0.00356873 0.0947077 -0.0052899 2.78784e-05
0.03125 2.71051e-20 0.00356872 0.0957124 -0.00582314 3.02125e-05
0.00375 -1.807e-20 0.03125 0.158032 -0.00518454 0.000215806
-0.00375 -3.61401e-20 0.03125 0.157982 -0.00511423 0.000212043
0.03 0 0.00994629 0.124692 -0.00627884 6.73069e-05
-0.03 0 0.00994629 0.123543 -0.00568254 4.58663e-05
-0.031619 0 0 0 0 0
0.031619 1.0842e-19 0 0 0 0
0.01 0 0.03 0.156697 -0.00529413 0.000205161
-0.01 0 0.03 0.156555 -0.00510494 0.000194724
0.0225 0 0.0225 0.147591 -0.00573986 0.000137881
-0.0225 0 0.0225 0.147087 -0.00529743 0.000111477
-0.03125 0 0.00608215 0.110199 -0.00562616 3.77982e-05
0.03125 0 0.00608215 0.111352 -0.00621871 4.7527e-05
-0.02875 1.807e-20 0.0137433 0.132514 -0.00559481 5.47393e-05
0.02875 0 0.0137433 0.133533 -0.00617135 8.36799e-05
0.00625 -1.807e-20 0.03125 0.15805 -0.00520802 0.000217162
-0.00625 0 0.03125 0.157966 -0.00509074 0.000210839