# Force       
# CofR        : (0.000000e+00 0.000000e+00 0.000000e+00)
#
# Time        	(total_x total_y total_z)	(pressure_x pressure_y pressure_z)	(viscous_x viscous_y viscous_z)
1             	(3.312520e+00 6.099420e+00 9.599612e+02)	(3.265183e+00 6.098271e+00 9.599612e+02)	(4.733751e-02 1.148772e-03 -3.093365e-05)
2             	(2.790140e+00 5.310356e+00 9.599809e+02)	(2.753915e+00 5.313177e+00 9.599808e+02)	(3.622516e-02 -2.820352e-03 1.357158e-04)
3             	(1.599632e+00 3.286343e+00 9.600596e+02)	(1.571342e+00 3.291708e+00 9.600592e+02)	(2.828928e-02 -5.365196e-03 3.233394e-04)
4             	(-4.777346e-03 1.052920e+00 9.602514e+02)	(-2.873275e-02 1.059682e+00 9.602509e+02)	(2.395540e-02 -6.761799e-03 4.832165e-04)
5             	(-1.216917e+00 -7.792342e-01 9.604461e+02)	(-1.239726e+00 -7.727646e-01 9.604456e+02)	(2.280871e-02 -6.469596e-03 4.827349e-04)
6             	(-1.636385e+00 -1.889499e+00 9.605559e+02)	(-1.661200e+00 -1.884159e+00 9.605554e+02)	(2.481539e-02 -5.339401e-03 4.600375e-04)
7             	(-1.451455e+00 -2.026054e+00 9.605535e+02)	(-1.479327e+00 -2.022258e+00 9.605531e+02)	(2.787259e-02 -3.796761e-03 3.889142e-04)
8             	(-9.489959e-01 -1.789609e+00 9.604968e+02)	(-9.786288e-01 -1.787563e+00 9.604964e+02)	(2.963290e-02 -2.045778e-03 4.039724e-04)
9             	(-2.217210e-01 -1.160393e+00 9.604147e+02)	(-2.504662e-01 -1.159856e+00 9.604144e+02)	(2.874515e-02 -5.367627e-04 3.753632e-04)
10            	(3.715061e-01 -3.957669e-01 9.603391e+02)	(3.456843e-01 -3.961887e-01 9.603389e+02)	(2.582180e-02 4.218434e-04 2.777258e-04)
11            	(6.737310e-01 2.658407e-01 9.602920e+02)	(6.518992e-01 2.650681e-01 9.602917e+02)	(2.183175e-02 7.726666e-04 2.328140e-04)
12            	(7.150198e-01 6.701579e-01 9.602806e+02)	(6.972524e-01 6.695703e-01 9.602804e+02)	(1.776743e-02 5.875759e-04 2.558394e-04)
13            	(5.657289e-01 7.652032e-01 9.602878e+02)	(5.510401e-01 7.652530e-01 9.602875e+02)	(1.468875e-02 -4.977262e-05 3.249946e-04)
14            	(3.353826e-01 6.890524e-01 9.603261e+02)	(3.223049e-01 6.899602e-01 9.603256e+02)	(1.307772e-02 -9.078685e-04 4.418744e-04)
15            	(1.010929e-01 4.863575e-01 9.603722e+02)	(8.846425e-02 4.879733e-01 9.603716e+02)	(1.262866e-02 -1.615827e-03 5.617547e-04)
16            	(-7.289257e-02 2.195677e-01 9.604098e+02)	(-8.576744e-02 2.215752e-01 9.604091e+02)	(1.287487e-02 -2.007496e-03 6.919965e-04)
17            	(-1.637215e-01 -3.147314e-02 9.603956e+02)	(-1.771748e-01 -2.939275e-02 9.603948e+02)	(1.345333e-02 -2.080397e-03 8.092254e-04)
18            	(-1.716200e-01 -1.862008e-01 9.603635e+02)	(-1.856205e-01 -1.843264e-01 9.603626e+02)	(1.400056e-02 -1.874393e-03 9.009247e-04)
19            	(-1.194440e-01 -2.319021e-01 9.603492e+02)	(-1.336991e-01 -2.304132e-01 9.603483e+02)	(1.425517e-02 -1.488972e-03 9.538805e-04)
20            	(-4.389682e-02 -2.024199e-01 9.603131e+02)	(-5.804252e-02 -2.013701e-01 9.603121e+02)	(1.414570e-02 -1.049799e-03 9.669099e-04)
21            	(2.693397e-02 -1.296065e-01 9.602790e+02)	(1.321787e-02 -1.289525e-01 9.602781e+02)	(1.371610e-02 -6.539861e-04 9.521974e-04)
22            	(7.820736e-02 -3.695854e-02 9.602569e+02)	(6.513256e-02 -3.659341e-02 9.602559e+02)	(1.307480e-02 -3.651331e-04 9.233629e-04)
23            	(1.056941e-01 4.747009e-02 9.602439e+02)	(9.331161e-02 4.768028e-02 9.602430e+02)	(1.238247e-02 -2.101964e-04 8.998256e-04)
24            	(1.109140e-01 1.069581e-01 9.602428e+02)	(9.914379e-02 1.071389e-01 9.602419e+02)	(1.177024e-02 -1.808084e-04 8.942325e-04)
25            	(9.577924e-02 1.178741e-01 9.602473e+02)	(8.449928e-02 1.181270e-01 9.602464e+02)	(1.127996e-02 -2.528932e-04 9.125893e-04)
26            	(7.798294e-02 1.255739e-01 9.602821e+02)	(6.707460e-02 1.259161e-01 9.602812e+02)	(1.090835e-02 -3.421848e-04 9.557554e-04)
27            	(5.956648e-02 1.107442e-01 9.603184e+02)	(4.889861e-02 1.111590e-01 9.603174e+02)	(1.066787e-02 -4.148113e-04 1.017957e-03)
28            	(4.786301e-02 9.062802e-02 9.603311e+02)	(3.735350e-02 9.107444e-02 9.603300e+02)	(1.050951e-02 -4.464233e-04 1.080693e-03)
29            	(4.269478e-02 6.987442e-02 9.603368e+02)	(3.231417e-02 7.030717e-02 9.603356e+02)	(1.038062e-02 -4.327518e-04 1.140043e-03)
30            	(4.186232e-02 5.064099e-02 9.603406e+02)	(3.159753e-02 5.102538e-02 9.603394e+02)	(1.026478e-02 -3.843923e-04 1.195861e-03)
31            	(4.011474e-02 2.259066e-02 9.603471e+02)	(2.997889e-02 2.291779e-02 9.603458e+02)	(1.013585e-02 -3.271260e-04 1.251446e-03)
32            	(4.352190e-02 1.716761e-02 9.603465e+02)	(3.353478e-02 1.742833e-02 9.603452e+02)	(9.987118e-03 -2.607207e-04 1.298819e-03)
33            	(4.635447e-02 1.580855e-02 9.603450e+02)	(3.653241e-02 1.600982e-02 9.603437e+02)	(9.822059e-03 -2.012761e-04 1.339851e-03)
34            	(4.782558e-02 1.660920e-02 9.603430e+02)	(3.818018e-02 1.676682e-02 9.603416e+02)	(9.645399e-03 -1.576213e-04 1.375075e-03)
35            	(4.794250e-02 1.904224e-02 9.603406e+02)	(3.847793e-02 1.917420e-02 9.603392e+02)	(9.464564e-03 -1.319678e-04 1.404780e-03)
36            	(4.692480e-02 2.339600e-02 9.603338e+02)	(3.764095e-02 2.351626e-02 9.603324e+02)	(9.283851e-03 -1.202559e-04 1.425929e-03)
37            	(4.616780e-02 2.674811e-02 9.603323e+02)	(3.705604e-02 2.686635e-02 9.603309e+02)	(9.111766e-03 -1.182353e-04 1.445720e-03)
38            	(4.670156e-02 3.191315e-02 9.603262e+02)	(3.773911e-02 3.202924e-02 9.603248e+02)	(8.962450e-03 -1.160838e-04 1.464352e-03)
39            	(4.767299e-02 3.679970e-02 9.603203e+02)	(3.884268e-02 3.691005e-02 9.603189e+02)	(8.830314e-03 -1.103476e-04 1.482879e-03)
40            	(4.855112e-02 4.037236e-02 9.603170e+02)	(3.984102e-02 4.047163e-02 9.603155e+02)	(8.710104e-03 -9.926193e-05 1.502224e-03)
41            	(4.901045e-02 4.171460e-02 9.603175e+02)	(4.041433e-02 4.179840e-02 9.603160e+02)	(8.596112e-03 -8.380567e-05 1.522675e-03)
42            	(4.955379e-02 4.263148e-02 9.603182e+02)	(4.106945e-02 4.269556e-02 9.603167e+02)	(8.484342e-03 -6.408037e-05 1.544344e-03)
43            	(5.004976e-02 4.328948e-02 9.603189e+02)	(4.167591e-02 4.333155e-02 9.603173e+02)	(8.373843e-03 -4.206415e-05 1.568033e-03)
44            	(5.040022e-02 4.371564e-02 9.603196e+02)	(4.213603e-02 4.373596e-02 9.603180e+02)	(8.264184e-03 -2.031915e-05 1.593680e-03)
45            	(5.054677e-02 4.388318e-02 9.603203e+02)	(4.239064e-02 4.388438e-02 9.603187e+02)	(8.156135e-03 -1.200669e-06 1.620539e-03)
46            	(5.045484e-02 4.373180e-02 9.603209e+02)	(4.240388e-02 4.371761e-02 9.603193e+02)	(8.050956e-03 1.418529e-05 1.647820e-03)
47            	(4.988888e-02 4.309054e-02 9.603228e+02)	(4.194007e-02 4.306468e-02 9.603212e+02)	(7.948811e-03 2.585173e-05 1.674974e-03)
48            	(4.884470e-02 4.137704e-02 9.603276e+02)	(4.099436e-02 4.134326e-02 9.603259e+02)	(7.850332e-03 3.377987e-05 1.701285e-03)
49            	(4.804537e-02 3.865934e-02 9.603356e+02)	(4.028632e-02 3.862134e-02 9.603338e+02)	(7.759054e-03 3.800580e-05 1.725661e-03)
50            	(4.681644e-02 3.687055e-02 9.603416e+02)	(3.914502e-02 3.682903e-02 9.603398e+02)	(7.671423e-03 4.152348e-05 1.747525e-03)
51            	(4.609134e-02 3.569257e-02 9.603472e+02)	(3.850253e-02 3.564729e-02 9.603455e+02)	(7.588817e-03 4.528401e-05 1.766540e-03)
52            	(4.610767e-02 3.568699e-02 9.603469e+02)	(3.859475e-02 3.563676e-02 9.603451e+02)	(7.512919e-03 5.023126e-05 1.783534e-03)
53            	(4.622878e-02 3.608647e-02 9.603465e+02)	(3.878686e-02 3.603006e-02 9.603447e+02)	(7.441918e-03 5.640926e-05 1.798653e-03)
54            	(4.641293e-02 3.679853e-02 9.603460e+02)	(3.903799e-02 3.673485e-02 9.603442e+02)	(7.374935e-03 6.367359e-05 1.812208e-03)
55            	(4.663277e-02 3.776129e-02 9.603456e+02)	(3.932146e-02 3.768951e-02 9.603437e+02)	(7.311308e-03 7.177904e-05 1.824316e-03)
56            	(4.683330e-02 3.888776e-02 9.603452e+02)	(3.958285e-02 3.880714e-02 9.603434e+02)	(7.250452e-03 8.062201e-05 1.834899e-03)
57            	(4.704111e-02 4.016904e-02 9.603449e+02)	(3.984871e-02 4.007897e-02 9.603431e+02)	(7.192400e-03 9.006672e-05 1.843873e-03)
58            	(4.723762e-02 4.153538e-02 9.603448e+02)	(4.010045e-02 4.143551e-02 9.603429e+02)	(7.137165e-03 9.987608e-05 1.851116e-03)
59            	(4.740771e-02 4.290059e-02 9.603447e+02)	(4.032316e-02 4.279075e-02 9.603429e+02)	(7.084547e-03 1.098447e-04 1.856710e-03)
60            	(4.755983e-02 4.418647e-02 9.603450e+02)	(4.052596e-02 4.406665e-02 9.603432e+02)	(7.033862e-03 1.198276e-04 1.861200e-03)
61            	(4.761628e-02 4.539981e-02 9.603459e+02)	(4.063210e-02 4.526967e-02 9.603440e+02)	(6.984183e-03 1.301361e-04 1.865277e-03)
62            	(4.762748e-02 4.642963e-02 9.603470e+02)	(4.069194e-02 4.628863e-02 9.603451e+02)	(6.935543e-03 1.410038e-04 1.869485e-03)
63            	(4.757475e-02 4.721951e-02 9.603484e+02)	(4.068691e-02 4.706685e-02 9.603465e+02)	(6.887834e-03 1.526667e-04 1.874339e-03)
64            	(4.749666e-02 4.777291e-02 9.603500e+02)	(4.065550e-02 4.760782e-02 9.603481e+02)	(6.841163e-03 1.650900e-04 1.880204e-03)
65            	(4.740563e-02 4.809413e-02 9.603516e+02)	(4.060999e-02 4.791598e-02 9.603498e+02)	(6.795641e-03 1.781551e-04 1.887254e-03)
66            	(4.733386e-02 4.822993e-02 9.603531e+02)	(4.058235e-02 4.803826e-02 9.603512e+02)	(6.751506e-03 1.916720e-04 1.895542e-03)
67            	(4.728132e-02 4.817800e-02 9.603545e+02)	(4.057227e-02 4.797274e-02 9.603526e+02)	(6.709049e-03 2.052595e-04 1.905192e-03)
68            	(4.734249e-02 4.797403e-02 9.603552e+02)	(4.067360e-02 4.775568e-02 9.603533e+02)	(6.668898e-03 2.183472e-04 1.916087e-03)
69            	(4.737870e-02 4.769873e-02 9.603556e+02)	(4.074804e-02 4.746784e-02 9.603537e+02)	(6.630657e-03 2.308904e-04 1.928290e-03)
70            	(4.747034e-02 4.742005e-02 9.603562e+02)	(4.087573e-02 4.717730e-02 9.603542e+02)	(6.594604e-03 2.427519e-04 1.941687e-03)
71            	(4.756713e-02 4.718172e-02 9.603567e+02)	(4.100660e-02 4.692782e-02 9.603548e+02)	(6.560537e-03 2.539090e-04 1.955871e-03)
72            	(4.766690e-02 4.701576e-02 9.603572e+02)	(4.113865e-02 4.675133e-02 9.603553e+02)	(6.528256e-03 2.644360e-04 1.970294e-03)
73            	(4.766139e-02 4.684196e-02 9.603584e+02)	(4.116449e-02 4.656749e-02 9.603564e+02)	(6.496896e-03 2.744710e-04 1.984532e-03)
74            	(4.765931e-02 4.676861e-02 9.603594e+02)	(4.119297e-02 4.648457e-02 9.603574e+02)	(6.466339e-03 2.840331e-04 1.997993e-03)
75            	(4.765487e-02 4.677325e-02 9.603604e+02)	(4.121847e-02 4.648010e-02 9.603583e+02)	(6.436397e-03 2.931576e-04 2.010562e-03)
76            	(4.764174e-02 4.682727e-02 9.603612e+02)	(4.123475e-02 4.652560e-02 9.603592e+02)	(6.406990e-03 3.016700e-04 2.022147e-03)
77            	(4.761251e-02 4.690495e-02 9.603619e+02)	(4.123454e-02 4.659575e-02 9.603599e+02)	(6.377963e-03 3.091955e-04 2.032656e-03)
78            	(4.762229e-02 4.702611e-02 9.603621e+02)	(4.127272e-02 4.671067e-02 9.603600e+02)	(6.349567e-03 3.154383e-04 2.041918e-03)
79            	(4.754429e-02 4.711214e-02 9.603626e+02)	(4.122291e-02 4.679179e-02 9.603605e+02)	(6.321378e-03 3.203498e-04 2.049813e-03)
80            	(4.743667e-02 4.719282e-02 9.603630e+02)	(4.114317e-02 4.686888e-02 9.603609e+02)	(6.293495e-03 3.239439e-04 2.056263e-03)
81            	(4.735575e-02 4.729051e-02 9.603629e+02)	(4.108957e-02 4.696398e-02 9.603608e+02)	(6.266177e-03 3.265259e-04 2.061311e-03)
82            	(4.720198e-02 4.738079e-02 9.603630e+02)	(4.096286e-02 4.705238e-02 9.603610e+02)	(6.239119e-03 3.284069e-04 2.064896e-03)
83            	(4.709089e-02 4.750691e-02 9.603628e+02)	(4.087816e-02 4.717698e-02 9.603608e+02)	(6.212729e-03 3.299329e-04 2.067023e-03)
84            	(4.697716e-02 4.766013e-02 9.603625e+02)	(4.079022e-02 4.732860e-02 9.603605e+02)	(6.186947e-03 3.315297e-04 2.067959e-03)
85            	(4.686755e-02 4.785124e-02 9.603622e+02)	(4.070568e-02 4.751782e-02 9.603602e+02)	(6.161878e-03 3.334252e-04 2.067863e-03)
86            	(4.672295e-02 4.807387e-02 9.603621e+02)	(4.058557e-02 4.773811e-02 9.603601e+02)	(6.137386e-03 3.357626e-04 2.066784e-03)
87            	(4.664111e-02 4.835433e-02 9.603616e+02)	(4.052710e-02 4.801571e-02 9.603596e+02)	(6.114009e-03 3.386232e-04 2.064706e-03)
88            	(4.658684e-02 4.868621e-02 9.603611e+02)	(4.049505e-02 4.834415e-02 9.603591e+02)	(6.091793e-03 3.420561e-04 2.061775e-03)
89            	(4.656350e-02 4.906822e-02 9.603606e+02)	(4.049272e-02 4.872214e-02 9.603586e+02)	(6.070788e-03 3.460721e-04 2.058042e-03)
90            	(4.655245e-02 4.952739e-02 9.603604e+02)	(4.050166e-02 4.917663e-02 9.603584e+02)	(6.050789e-03 3.507625e-04 2.053656e-03)
91            	(4.658189e-02 5.003865e-02 9.603602e+02)	(4.055005e-02 4.968256e-02 9.603581e+02)	(6.031844e-03 3.560843e-04 2.048747e-03)
92            	(4.665973e-02 5.059026e-02 9.603597e+02)	(4.064568e-02 5.022831e-02 9.603577e+02)	(6.014050e-03 3.619503e-04 2.043343e-03)
93            	(4.677014e-02 5.120513e-02 9.603593e+02)	(4.077279e-02 5.083678e-02 9.603572e+02)	(5.997347e-03 3.683459e-04 2.037404e-03)
94            	(4.691128e-02 5.188471e-02 9.603588e+02)	(4.092954e-02 5.150945e-02 9.603568e+02)	(5.981745e-03 3.752618e-04 2.030838e-03)
95            	(4.708144e-02 5.263008e-02 9.603584e+02)	(4.111415e-02 5.224746e-02 9.603564e+02)	(5.967291e-03 3.826132e-04 2.023577e-03)
96            	(4.727505e-02 5.342806e-02 9.603580e+02)	(4.132106e-02 5.303783e-02 9.603559e+02)	(5.953987e-03 3.902270e-04 2.015479e-03)
97            	(4.749092e-02 5.428156e-02 9.603575e+02)	(4.154911e-02 5.388377e-02 9.603555e+02)	(5.941816e-03 3.977874e-04 2.006408e-03)
98            	(4.772362e-02 5.517689e-02 9.603571e+02)	(4.179292e-02 5.477188e-02 9.603551e+02)	(5.930704e-03 4.050103e-04 1.996305e-03)
99            	(4.796515e-02 5.609043e-02 9.603567e+02)	(4.204462e-02 5.567885e-02 9.603547e+02)	(5.920530e-03 4.115804e-04 1.985242e-03)
100           	(4.820734e-02 5.699618e-02 9.603563e+02)	(4.229610e-02 5.657893e-02 9.603543e+02)	(5.911243e-03 4.172519e-04 1.973227e-03)
101           	(4.844396e-02 5.787450e-02 9.603560e+02)	(4.254108e-02 5.745258e-02 9.603540e+02)	(5.902878e-03 4.219184e-04 1.960470e-03)
102           	(4.866878e-02 5.870399e-02 9.603557e+02)	(4.277341e-02 5.827836e-02 9.603537e+02)	(5.895372e-03 4.256346e-04 1.947317e-03)
103           	(4.888036e-02 5.949073e-02 9.603554e+02)	(4.299178e-02 5.906213e-02 9.603535e+02)	(5.888583e-03 4.285988e-04 1.934250e-03)
104           	(4.907457e-02 6.023010e-02 9.603552e+02)	(4.319212e-02 5.979891e-02 9.603533e+02)	(5.882452e-03 4.311876e-04 1.921881e-03)
105           	(4.924604e-02 6.091268e-02 9.603551e+02)	(4.336906e-02 6.047898e-02 9.603532e+02)	(5.876975e-03 4.337021e-04 1.910635e-03)
106           	(4.944070e-02 6.159141e-02 9.603547e+02)	(4.356829e-02 6.115490e-02 9.603528e+02)	(5.872405e-03 4.365090e-04 1.900653e-03)
107           	(4.959954e-02 6.219257e-02 9.603544e+02)	(4.373090e-02 6.175273e-02 9.603525e+02)	(5.868640e-03 4.398384e-04 1.892268e-03)
108           	(4.972379e-02 6.273416e-02 9.603541e+02)	(4.385822e-02 6.229026e-02 9.603522e+02)	(5.865577e-03 4.438956e-04 1.885684e-03)
109           	(4.981008e-02 6.320431e-02 9.603539e+02)	(4.394706e-02 6.275551e-02 9.603521e+02)	(5.863018e-03 4.488042e-04 1.881050e-03)
110           	(4.986150e-02 6.361575e-02 9.603539e+02)	(4.400070e-02 6.316114e-02 9.603520e+02)	(5.860801e-03 4.546114e-04 1.878382e-03)
111           	(4.984582e-02 6.391705e-02 9.603541e+02)	(4.398716e-02 6.345581e-02 9.603522e+02)	(5.858661e-03 4.612382e-04 1.877587e-03)
112           	(4.981151e-02 6.417381e-02 9.603543e+02)	(4.395485e-02 6.370513e-02 9.603524e+02)	(5.856652e-03 4.686807e-04 1.878551e-03)
113           	(4.976859e-02 6.438839e-02 9.603546e+02)	(4.391381e-02 6.391156e-02 9.603527e+02)	(5.854773e-03 4.768246e-04 1.881009e-03)
114           	(4.971479e-02 6.455377e-02 9.603549e+02)	(4.386180e-02 6.406833e-02 9.603530e+02)	(5.852992e-03 4.854486e-04 1.884588e-03)
115           	(4.965719e-02 6.467843e-02 9.603552e+02)	(4.380572e-02 6.418403e-02 9.603533e+02)	(5.851471e-03 4.943957e-04 1.889030e-03)
116           	(4.959701e-02 6.476567e-02 9.603555e+02)	(4.374664e-02 6.426224e-02 9.603536e+02)	(5.850375e-03 5.034294e-04 1.893978e-03)
117           	(4.954212e-02 6.483212e-02 9.603557e+02)	(4.369231e-02 6.431975e-02 9.603538e+02)	(5.849816e-03 5.123690e-04 1.899114e-03)
118           	(4.948631e-02 6.486852e-02 9.603559e+02)	(4.363642e-02 6.434756e-02 9.603539e+02)	(5.849895e-03 5.209621e-04 1.904059e-03)
119           	(4.942892e-02 6.487748e-02 9.603560e+02)	(4.357826e-02 6.434842e-02 9.603541e+02)	(5.850665e-03 5.290564e-04 1.908520e-03)
120           	(4.937290e-02 6.487446e-02 9.603560e+02)	(4.352078e-02 6.433791e-02 9.603541e+02)	(5.852121e-03 5.365466e-04 1.912332e-03)
121           	(4.931356e-02 6.485171e-02 9.603560e+02)	(4.345928e-02 6.430844e-02 9.603541e+02)	(5.854282e-03 5.432705e-04 1.915460e-03)
122           	(4.925044e-02 6.481476e-02 9.603560e+02)	(4.339329e-02 6.426562e-02 9.603541e+02)	(5.857152e-03 5.491383e-04 1.917950e-03)
123           	(4.918342e-02 6.477002e-02 9.603559e+02)	(4.332273e-02 6.421591e-02 9.603540e+02)	(5.860692e-03 5.541081e-04 1.919837e-03)
124           	(4.911243e-02 6.472399e-02 9.603557e+02)	(4.324762e-02 6.416576e-02 9.603538e+02)	(5.864807e-03 5.582209e-04 1.921164e-03)
125           	(4.903679e-02 6.468037e-02 9.603556e+02)	(4.316748e-02 6.411888e-02 9.603537e+02)	(5.869310e-03 5.614953e-04 1.921814e-03)
126           	(4.895547e-02 6.464132e-02 9.603554e+02)	(4.308138e-02 6.407733e-02 9.603535e+02)	(5.874085e-03 5.639904e-04 1.921481e-03)
127           	(4.886404e-02 6.459209e-02 9.603552e+02)	(4.298496e-02 6.402641e-02 9.603533e+02)	(5.879082e-03 5.656749e-04 1.919929e-03)
128           	(4.875926e-02 6.452078e-02 9.603550e+02)	(4.287499e-02 6.395428e-02 9.603530e+02)	(5.884268e-03 5.665048e-04 1.917264e-03)
129           	(4.863984e-02 6.441829e-02 9.603547e+02)	(4.275027e-02 6.385169e-02 9.603528e+02)	(5.889564e-03 5.665995e-04 1.913651e-03)
130           	(4.851086e-02 6.432219e-02 9.603545e+02)	(4.261607e-02 6.375597e-02 9.603526e+02)	(5.894788e-03 5.662228e-04 1.909175e-03)
131           	(4.837249e-02 6.421282e-02 9.603543e+02)	(4.247262e-02 6.364725e-02 9.603524e+02)	(5.899863e-03 5.655722e-04 1.903861e-03)
132           	(4.823097e-02 6.410809e-02 9.603542e+02)	(4.232630e-02 6.354327e-02 9.603523e+02)	(5.904674e-03 5.648246e-04 1.897844e-03)
133           	(4.809232e-02 6.402417e-02 9.603540e+02)	(4.218311e-02 6.345997e-02 9.603521e+02)	(5.909214e-03 5.641999e-04 1.891152e-03)
134           	(4.796097e-02 6.397407e-02 9.603538e+02)	(4.204755e-02 6.341008e-02 9.603519e+02)	(5.913413e-03 5.639831e-04 1.883798e-03)
135           	(4.784073e-02 6.396595e-02 9.603536e+02)	(4.192352e-02 6.340163e-02 9.603517e+02)	(5.917209e-03 5.643208e-04 1.875807e-03)
136           	(4.773379e-02 6.400059e-02 9.603534e+02)	(4.181321e-02 6.343531e-02 9.603515e+02)	(5.920579e-03 5.652765e-04 1.867130e-03)
137           	(4.763795e-02 6.406353e-02 9.603531e+02)	(4.171456e-02 6.349666e-02 9.603513e+02)	(5.923390e-03 5.668710e-04 1.857771e-03)
138           	(4.755247e-02 6.415042e-02 9.603529e+02)	(4.162688e-02 6.358137e-02 9.603510e+02)	(5.925582e-03 5.690461e-04 1.847754e-03)
139           	(4.747644e-02 6.425800e-02 9.603525e+02)	(4.154932e-02 6.368626e-02 9.603507e+02)	(5.927117e-03 5.717390e-04 1.837089e-03)
140           	(4.740705e-02 6.437451e-02 9.603522e+02)	(4.147903e-02 6.379972e-02 9.603504e+02)	(5.928019e-03 5.747929e-04 1.825845e-03)
141           	(4.734498e-02 6.450799e-02 9.603518e+02)	(4.141658e-02 6.392996e-02 9.603500e+02)	(5.928399e-03 5.780234e-04 1.814046e-03)
142           	(4.729010e-02 6.465816e-02 9.603514e+02)	(4.136175e-02 6.407692e-02 9.603496e+02)	(5.928342e-03 5.812403e-04 1.801831e-03)
143           	(4.724227e-02 6.481922e-02 9.603509e+02)	(4.131425e-02 6.423495e-02 9.603491e+02)	(5.928019e-03 5.842741e-04 1.789226e-03)
144           	(4.719948e-02 6.497660e-02 9.603504e+02)	(4.127192e-02 6.438963e-02 9.603487e+02)	(5.927562e-03 5.869649e-04 1.776338e-03)
145           	(4.715968e-02 6.511815e-02 9.603500e+02)	(4.123260e-02 6.452894e-02 9.603482e+02)	(5.927083e-03 5.892064e-04 1.763269e-03)
146           	(4.711686e-02 6.521266e-02 9.603495e+02)	(4.119022e-02 6.462179e-02 9.603477e+02)	(5.926638e-03 5.908610e-04 1.750195e-03)
147           	(4.707227e-02 6.527072e-02 9.603490e+02)	(4.114604e-02 6.467881e-02 9.603473e+02)	(5.926224e-03 5.919030e-04 1.737327e-03)
148           	(4.702532e-02 6.528976e-02 9.603486e+02)	(4.109955e-02 6.469741e-02 9.603469e+02)	(5.925770e-03 5.923547e-04 1.724715e-03)
149           	(4.697670e-02 6.527817e-02 9.603482e+02)	(4.105154e-02 6.468595e-02 9.603465e+02)	(5.925159e-03 5.922162e-04 1.712447e-03)
150           	(4.692795e-02 6.525011e-02 9.603479e+02)	(4.100364e-02 6.465862e-02 9.603462e+02)	(5.924306e-03 5.914990e-04 1.700622e-03)
151           	(4.687918e-02 6.521030e-02 9.603476e+02)	(4.095607e-02 6.462011e-02 9.603459e+02)	(5.923104e-03 5.901890e-04 1.689400e-03)
152           	(4.682884e-02 6.515401e-02 9.603474e+02)	(4.090735e-02 6.456573e-02 9.603457e+02)	(5.921483e-03 5.882874e-04 1.678908e-03)
153           	(4.677695e-02 6.508056e-02 9.603473e+02)	(4.085757e-02 6.449479e-02 9.603456e+02)	(5.919384e-03 5.857709e-04 1.669351e-03)
154           	(4.672033e-02 6.497966e-02 9.603472e+02)	(4.080352e-02 6.439702e-02 9.603455e+02)	(5.916815e-03 5.826405e-04 1.660847e-03)
155           	(4.665520e-02 6.484355e-02 9.603472e+02)	(4.074142e-02 6.426462e-02 9.603455e+02)	(5.913776e-03 5.789303e-04 1.653590e-03)
156           	(4.658187e-02 6.467357e-02 9.603472e+02)	(4.067157e-02 6.409880e-02 9.603456e+02)	(5.910300e-03 5.747716e-04 1.647576e-03)
157           	(4.650224e-02 6.448113e-02 9.603473e+02)	(4.059588e-02 6.391071e-02 9.603457e+02)	(5.906357e-03 5.704193e-04 1.642932e-03)
158           	(4.641549e-02 6.426301e-02 9.603474e+02)	(4.051352e-02 6.369687e-02 9.603458e+02)	(5.901967e-03 5.661376e-04 1.639641e-03)
159           	(4.632278e-02 6.402287e-02 9.603476e+02)	(4.042551e-02 6.346074e-02 9.603459e+02)	(5.897273e-03 5.621378e-04 1.637584e-03)
160           	(4.618453e-02 6.376102e-02 9.603480e+02)	(4.029231e-02 6.320244e-02 9.603464e+02)	(5.892218e-03 5.585768e-04 1.636691e-03)
161           	(4.608590e-02 6.349064e-02 9.603481e+02)	(4.019854e-02 6.293517e-02 9.603465e+02)	(5.887356e-03 5.554754e-04 1.636670e-03)
162           	(4.595189e-02 6.320783e-02 9.603486e+02)	(4.006933e-02 6.265488e-02 9.603469e+02)	(5.882560e-03 5.529493e-04 1.637326e-03)
163           	(4.585532e-02 6.293048e-02 9.603487e+02)	(3.997708e-02 6.237955e-02 9.603471e+02)	(5.878233e-03 5.509328e-04 1.638334e-03)
164           	(4.575996e-02 6.264751e-02 9.603488e+02)	(3.988557e-02 6.209799e-02 9.603472e+02)	(5.874396e-03 5.495232e-04 1.639533e-03)
165           	(4.566609e-02 6.235835e-02 9.603489e+02)	(3.979505e-02 6.180965e-02 9.603473e+02)	(5.871042e-03 5.487009e-04 1.640512e-03)
166           	(4.554833e-02 6.205287e-02 9.603492e+02)	(3.968047e-02 6.150430e-02 9.603476e+02)	(5.867860e-03 5.485720e-04 1.641116e-03)
167           	(4.546335e-02 6.177626e-02 9.603493e+02)	(3.959855e-02 6.122706e-02 9.603477e+02)	(5.864802e-03 5.491972e-04 1.641119e-03)
168           	(4.538246e-02 6.150787e-02 9.603494e+02)	(3.952087e-02 6.095727e-02 9.603477e+02)	(5.861592e-03 5.506004e-04 1.640346e-03)
169           	(4.530622e-02 6.125124e-02 9.603494e+02)	(3.944812e-02 6.069851e-02 9.603477e+02)	(5.858096e-03 5.527305e-04 1.638724e-03)
170           	(4.523726e-02 6.101954e-02 9.603494e+02)	(3.938303e-02 6.046405e-02 9.603478e+02)	(5.854223e-03 5.554894e-04 1.636220e-03)
171           	(4.517762e-02 6.082332e-02 9.603494e+02)	(3.932768e-02 6.026466e-02 9.603478e+02)	(5.849942e-03 5.586617e-04 1.632838e-03)
172           	(4.512836e-02 6.066949e-02 9.603494e+02)	(3.928307e-02 6.010744e-02 9.603478e+02)	(5.845295e-03 5.620436e-04 1.628607e-03)
173           	(4.508944e-02 6.056042e-02 9.603494e+02)	(3.924914e-02 5.999497e-02 9.603478e+02)	(5.840308e-03 5.654482e-04 1.623616e-03)
174           	(4.505908e-02 6.049095e-02 9.603495e+02)	(3.922400e-02 5.992221e-02 9.603478e+02)	(5.835084e-03 5.687394e-04 1.617951e-03)
175           	(4.503455e-02 6.045213e-02 9.603495e+02)	(3.920481e-02 5.988033e-02 9.603479e+02)	(5.829749e-03 5.718020e-04 1.611723e-03)
176           	(4.502006e-02 6.045805e-02 9.603495e+02)	(3.919565e-02 5.988342e-02 9.603479e+02)	(5.824411e-03 5.746253e-04 1.605050e-03)
177           	(4.500932e-02 6.048450e-02 9.603496e+02)	(3.919006e-02 5.990738e-02 9.603480e+02)	(5.819260e-03 5.771190e-04 1.598096e-03)
178           	(4.499862e-02 6.049708e-02 9.603497e+02)	(3.918417e-02 5.991790e-02 9.603481e+02)	(5.814448e-03 5.791786e-04 1.590934e-03)
179           	(4.498547e-02 6.051615e-02 9.603498e+02)	(3.917549e-02 5.993534e-02 9.603482e+02)	(5.809973e-03 5.808085e-04 1.583581e-03)
180           	(4.496455e-02 6.054671e-02 9.603498e+02)	(3.915882e-02 5.996463e-02 9.603483e+02)	(5.805728e-03 5.820828e-04 1.576123e-03)
181           	(4.493851e-02 6.057214e-02 9.603499e+02)	(3.913691e-02 5.998910e-02 9.603483e+02)	(5.801594e-03 5.830399e-04 1.568724e-03)
182           	(4.487748e-02 6.057295e-02 9.603502e+02)	(3.908022e-02 5.998922e-02 9.603486e+02)	(5.797265e-03 5.837281e-04 1.561516e-03)
183           	(4.483149e-02 6.055301e-02 9.603504e+02)	(3.903847e-02 5.996892e-02 9.603488e+02)	(5.793017e-03 5.840812e-04 1.554593e-03)
184           	(4.478791e-02 6.052720e-02 9.603504e+02)	(3.899901e-02 5.994306e-02 9.603489e+02)	(5.788894e-03 5.841398e-04 1.548032e-03)
185           	(4.474555e-02 6.050495e-02 9.603504e+02)	(3.896076e-02 5.992098e-02 9.603489e+02)	(5.784791e-03 5.839689e-04 1.541909e-03)
186           	(4.470567e-02 6.049034e-02 9.603505e+02)	(3.892512e-02 5.990675e-02 9.603490e+02)	(5.780543e-03 5.835946e-04 1.536255e-03)
187           	(4.466823e-02 6.048257e-02 9.603506e+02)	(3.889210e-02 5.989955e-02 9.603490e+02)	(5.776128e-03 5.830180e-04 1.531060e-03)
188           	(4.463344e-02 6.048363e-02 9.603506e+02)	(3.886193e-02 5.990141e-02 9.603491e+02)	(5.771512e-03 5.822192e-04 1.526439e-03)
189           	(4.460115e-02 6.049465e-02 9.603507e+02)	(3.883449e-02 5.991338e-02 9.603492e+02)	(5.766657e-03 5.812673e-04 1.522460e-03)
190           	(4.457057e-02 6.051358e-02 9.603508e+02)	(3.880904e-02 5.993337e-02 9.603493e+02)	(5.761536e-03 5.802124e-04 1.519179e-03)
191           	(4.454033e-02 6.053572e-02 9.603509e+02)	(3.878416e-02 5.995665e-02 9.603494e+02)	(5.756162e-03 5.790684e-04 1.516614e-03)
192           	(4.450884e-02 6.055296e-02 9.603510e+02)	(3.875839e-02 5.997512e-02 9.603495e+02)	(5.750456e-03 5.778466e-04 1.514844e-03)
193           	(4.447604e-02 6.056710e-02 9.603511e+02)	(3.873165e-02 5.999048e-02 9.603496e+02)	(5.744392e-03 5.766203e-04 1.513834e-03)
194           	(4.444286e-02 6.058164e-02 9.603513e+02)	(3.870496e-02 6.000617e-02 9.603497e+02)	(5.737903e-03 5.754684e-04 1.513593e-03)
195           	(4.441040e-02 6.060453e-02 9.603514e+02)	(3.867942e-02 6.003000e-02 9.603499e+02)	(5.730979e-03 5.745281e-04 1.514012e-03)
196           	(4.438126e-02 6.063990e-02 9.603515e+02)	(3.865770e-02 6.006600e-02 9.603500e+02)	(5.723555e-03 5.739022e-04 1.515047e-03)
197           	(4.435749e-02 6.069302e-02 9.603516e+02)	(3.864187e-02 6.011941e-02 9.603501e+02)	(5.715625e-03 5.736029e-04 1.516621e-03)
198           	(4.434074e-02 6.076695e-02 9.603517e+02)	(3.863356e-02 6.019332e-02 9.603502e+02)	(5.707182e-03 5.736281e-04 1.518674e-03)
199           	(4.433221e-02 6.086318e-02 9.603518e+02)	(3.863397e-02 6.028920e-02 9.603503e+02)	(5.698245e-03 5.739798e-04 1.521115e-03)
200           	(4.433231e-02 6.098136e-02 9.603519e+02)	(3.864345e-02 6.040674e-02 9.603503e+02)	(5.688853e-03 5.746187e-04 1.523826e-03)
201           	(4.434056e-02 6.111920e-02 9.603519e+02)	(3.866158e-02 6.054368e-02 9.603504e+02)	(5.678984e-03 5.755189e-04 1.526702e-03)
202           	(4.435514e-02 6.127188e-02 9.603520e+02)	(3.868641e-02 6.069523e-02 9.603505e+02)	(5.668725e-03 5.766502e-04 1.529605e-03)
203           	(4.437579e-02 6.143673e-02 9.603520e+02)	(3.871768e-02 6.085875e-02 9.603505e+02)	(5.658116e-03 5.779891e-04 1.532462e-03)
204           	(4.440080e-02 6.160832e-02 9.603521e+02)	(3.875351e-02 6.102879e-02 9.603506e+02)	(5.647283e-03 5.795312e-04 1.535201e-03)
205           	(4.442896e-02 6.178349e-02 9.603521e+02)	(3.879272e-02 6.120218e-02 9.603506e+02)	(5.636234e-03 5.813149e-04 1.537782e-03)
206           	(4.445901e-02 6.195931e-02 9.603522e+02)	(3.883403e-02 6.137597e-02 9.603507e+02)	(5.624984e-03 5.833431e-04 1.540206e-03)
207           	(4.449003e-02 6.213292e-02 9.603523e+02)	(3.887647e-02 6.154727e-02 9.603507e+02)	(5.613565e-03 5.856533e-04 1.542454e-03)
208           	(4.452152e-02 6.230111e-02 9.603523e+02)	(3.891955e-02 6.171287e-02 9.603508e+02)	(5.601962e-03 5.882430e-04 1.544561e-03)
209           	(4.455131e-02 6.245850e-02 9.603524e+02)	(3.896110e-02 6.186743e-02 9.603509e+02)	(5.590210e-03 5.910697e-04 1.546449e-03)
210           	(4.457842e-02 6.259953e-02 9.603525e+02)	(3.899998e-02 6.200551e-02 9.603509e+02)	(5.578436e-03 5.940154e-04 1.548099e-03)
211           	(4.457824e-02 6.271864e-02 9.603528e+02)	(3.901164e-02 6.212157e-02 9.603513e+02)	(5.566601e-03 5.970718e-04 1.549544e-03)
212           	(4.457328e-02 6.281022e-02 9.603531e+02)	(3.901849e-02 6.221008e-02 9.603516e+02)	(5.554797e-03 6.001357e-04 1.550816e-03)
213           	(4.458439e-02 6.287511e-02 9.603532e+02)	(3.904122e-02 6.227198e-02 9.603517e+02)	(5.543172e-03 6.031301e-04 1.551958e-03)
214           	(4.458857e-02 6.291232e-02 9.603533e+02)	(3.905697e-02 6.230638e-02 9.603518e+02)	(5.531601e-03 6.059417e-04 1.553045e-03)
215           	(4.458685e-02 6.292468e-02 9.603534e+02)	(3.906675e-02 6.231625e-02 9.603519e+02)	(5.520103e-03 6.084307e-04 1.554031e-03)