# Moment      
# CofR        : (0.000000e+00 0.000000e+00 0.000000e+00)
#
# Time        	(total_x total_y total_z)	(pressure_x pressure_y pressure_z)	(viscous_x viscous_y viscous_z)
1             	(-1.530950e-01 4.321090e-02 5.574821e-04)	(-1.530271e-01 4.186795e-02 5.565057e-04)	(-6.782594e-05 1.342956e-03 9.763929e-07)
2             	(-1.340876e-01 3.195873e-02 -2.220877e-03)	(-1.340297e-01 3.082397e-02 -2.219750e-03)	(-5.786763e-05 1.134760e-03 -1.126408e-06)
3             	(-8.378522e-02 1.358075e-02 -9.517693e-03)	(-8.374237e-02 1.260784e-02 -9.527290e-03)	(-4.284364e-05 9.729142e-04 9.596587e-06)
4             	(-2.761284e-02 -1.085625e-02 -1.891169e-02)	(-2.759574e-02 -1.168027e-02 -1.885985e-02)	(-1.709650e-05 8.240217e-04 -5.183808e-05)
5             	(1.866707e-02 -2.770107e-02 -2.781697e-02)	(1.865990e-02 -2.842869e-02 -2.778995e-02)	(7.170027e-06 7.276291e-04 -2.701428e-05)
6             	(4.706514e-02 -2.921197e-02 -3.136999e-02)	(4.703261e-02 -2.990909e-02 -3.130004e-02)	(3.253808e-05 6.971210e-04 -6.995174e-05)
7             	(5.055400e-02 -2.390846e-02 -2.938989e-02)	(5.050853e-02 -2.461839e-02 -2.927849e-02)	(4.546291e-05 7.099274e-04 -1.114046e-04)
8             	(4.492094e-02 -1.215088e-02 -2.236514e-02)	(4.487671e-02 -1.286952e-02 -2.222609e-02)	(4.422942e-05 7.186386e-04 -1.390550e-04)
9             	(2.949807e-02 2.885285e-03 -1.145749e-02)	(2.946566e-02 2.178711e-03 -1.130347e-02)	(3.241024e-05 7.065743e-04 -1.540206e-04)
10            	(1.044256e-02 1.314682e-02 -1.070127e-03)	(1.043127e-02 1.248021e-02 -9.060254e-04)	(1.128735e-05 6.666150e-04 -1.641014e-04)
11            	(-6.230025e-03 1.638835e-02 5.783919e-03)	(-6.218105e-03 1.577961e-02 5.928022e-03)	(-1.192029e-05 6.087341e-04 -1.441037e-04)
12            	(-1.660605e-02 1.429872e-02 7.922627e-03)	(-1.657622e-02 1.375751e-02 8.033252e-03)	(-2.983322e-05 5.412127e-04 -1.106255e-04)
13            	(-1.906982e-02 9.970631e-03 5.858766e-03)	(-1.903455e-02 9.487565e-03 5.937254e-03)	(-3.527595e-05 4.830662e-04 -7.848766e-05)
14            	(-1.722993e-02 4.649870e-03 1.781494e-03)	(-1.719821e-02 4.205335e-03 1.846728e-03)	(-3.172241e-05 4.445350e-04 -6.523384e-05)
15            	(-1.224432e-02 -1.860441e-04 -3.705659e-03)	(-1.222030e-02 -6.094298e-04 -3.626679e-03)	(-2.402398e-05 4.233857e-04 -7.897950e-05)
16            	(-5.604059e-03 -3.068157e-03 -9.021239e-03)	(-5.587014e-03 -3.473599e-03 -8.922420e-03)	(-1.704449e-05 4.054413e-04 -9.881904e-05)
17            	(6.391389e-04 -4.078626e-03 -1.282799e-02)	(6.493836e-04 -4.474064e-03 -1.270637e-02)	(-1.024467e-05 3.954388e-04 -1.216193e-04)
18            	(4.533824e-03 -3.399227e-03 -1.396882e-02)	(4.540751e-03 -3.786789e-03 -1.382931e-02)	(-6.927007e-06 3.875625e-04 -1.395047e-04)
19            	(5.614289e-03 -2.180518e-03 -1.284078e-02)	(5.622301e-03 -2.560846e-03 -1.269287e-02)	(-8.011274e-06 3.803282e-04 -1.479093e-04)
20            	(4.856047e-03 -6.144137e-04 -1.060115e-02)	(4.868249e-03 -9.874832e-04 -1.045467e-02)	(-1.220182e-05 3.730694e-04 -1.464850e-04)
21            	(3.122294e-03 1.033991e-03 -7.900699e-03)	(3.140265e-03 6.686547e-04 -7.763548e-03)	(-1.797142e-05 3.653365e-04 -1.371508e-04)
22            	(9.937572e-04 2.497901e-03 -5.353133e-03)	(1.017698e-03 2.140519e-03 -5.230789e-03)	(-2.394047e-05 3.573819e-04 -1.223445e-04)
23            	(-9.795758e-04 3.251555e-03 -3.526294e-03)	(-9.503978e-04 2.903074e-03 -3.418841e-03)	(-2.917802e-05 3.484810e-04 -1.074530e-04)
24            	(-2.383868e-03 3.396730e-03 -2.651350e-03)	(-2.350813e-03 3.057888e-03 -2.557352e-03)	(-3.305453e-05 3.388411e-04 -9.399728e-05)
25            	(-2.625663e-03 3.106285e-03 -2.715838e-03)	(-2.591462e-03 2.777861e-03 -2.631291e-03)	(-3.420011e-05 3.284234e-04 -8.454771e-05)
26            	(-2.793592e-03 2.735697e-03 -3.329283e-03)	(-2.758339e-03 2.418552e-03 -3.248601e-03)	(-3.525293e-05 3.171455e-04 -8.068224e-05)
27            	(-2.440076e-03 2.305922e-03 -4.237669e-03)	(-2.404105e-03 1.998981e-03 -4.155657e-03)	(-3.597080e-05 3.069408e-04 -8.201110e-05)
28            	(-1.955261e-03 2.050361e-03 -4.828596e-03)	(-1.918562e-03 1.751723e-03 -4.742086e-03)	(-3.669858e-05 2.986387e-04 -8.650936e-05)
29            	(-1.471473e-03 1.894372e-03 -5.321074e-03)	(-1.434092e-03 1.602406e-03 -5.228470e-03)	(-3.738097e-05 2.919655e-04 -9.260336e-05)
30            	(-1.015942e-03 1.877915e-03 -5.731099e-03)	(-9.781351e-04 1.590278e-03 -5.632559e-03)	(-3.780646e-05 2.876367e-04 -9.854055e-05)
31            	(-3.365110e-04 1.909799e-03 -6.308409e-03)	(-2.996740e-04 1.624843e-03 -6.204224e-03)	(-3.683704e-05 2.849560e-04 -1.041845e-04)
32            	(-1.758114e-04 2.118031e-03 -6.385890e-03)	(-1.397256e-04 1.834778e-03 -6.277525e-03)	(-3.608573e-05 2.832537e-04 -1.083654e-04)
33            	(-9.736378e-05 2.366127e-03 -6.367286e-03)	(-6.222377e-05 2.083969e-03 -6.255566e-03)	(-3.514001e-05 2.821584e-04 -1.117199e-04)
34            	(-5.282436e-05 2.644937e-03 -6.291206e-03)	(-1.893689e-05 2.363642e-03 -6.176561e-03)	(-3.388747e-05 2.812950e-04 -1.146456e-04)
35            	(-1.869353e-05 2.994057e-03 -6.166404e-03)	(1.355813e-05 2.713178e-03 -6.048814e-03)	(-3.225166e-05 2.808797e-04 -1.175901e-04)
36            	(4.665946e-05 3.597976e-03 -5.847751e-03)	(7.686063e-05 3.316318e-03 -5.727015e-03)	(-3.020117e-05 2.816574e-04 -1.207359e-04)
37            	(3.097212e-05 3.816001e-03 -5.781640e-03)	(5.902050e-05 3.533462e-03 -5.657678e-03)	(-2.804839e-05 2.825392e-04 -1.239619e-04)
38            	(-6.018740e-05 3.943044e-03 -5.728817e-03)	(-3.404849e-05 3.658945e-03 -5.601591e-03)	(-2.613892e-05 2.840990e-04 -1.272253e-04)
39            	(-1.626073e-04 4.014267e-03 -5.706541e-03)	(-1.381578e-04 3.728016e-03 -5.575966e-03)	(-2.444956e-05 2.862514e-04 -1.305753e-04)
40            	(-2.379683e-04 4.069192e-03 -5.721885e-03)	(-2.149386e-04 3.780624e-03 -5.588108e-03)	(-2.302974e-05 2.885680e-04 -1.337775e-04)
41            	(-2.638167e-04 4.102577e-03 -5.767202e-03)	(-2.419867e-04 3.811977e-03 -5.630614e-03)	(-2.183003e-05 2.905998e-04 -1.365875e-04)
42            	(-2.844604e-04 4.121035e-03 -5.830531e-03)	(-2.636410e-04 3.828732e-03 -5.691490e-03)	(-2.081939e-05 2.923029e-04 -1.390413e-04)
43            	(-3.011574e-04 4.130947e-03 -5.909566e-03)	(-2.812667e-04 3.837124e-03 -5.768462e-03)	(-1.989075e-05 2.938223e-04 -1.411036e-04)
44            	(-3.136260e-04 4.132733e-03 -6.000957e-03)	(-2.946524e-04 3.837562e-03 -5.858160e-03)	(-1.897365e-05 2.951716e-04 -1.427972e-04)
45            	(-3.204157e-04 4.127527e-03 -6.104567e-03)	(-3.023503e-04 3.831297e-03 -5.960347e-03)	(-1.806539e-05 2.962292e-04 -1.442200e-04)
46            	(-3.188933e-04 4.118553e-03 -6.218168e-03)	(-3.017136e-04 3.821636e-03 -6.072611e-03)	(-1.717975e-05 2.969170e-04 -1.455568e-04)
47            	(-2.946190e-04 4.138793e-03 -6.356394e-03)	(-2.783037e-04 3.841577e-03 -6.209439e-03)	(-1.631532e-05 2.972161e-04 -1.469557e-04)
48            	(-2.404240e-04 4.163220e-03 -6.534846e-03)	(-2.249784e-04 3.866104e-03 -6.386393e-03)	(-1.544550e-05 2.971159e-04 -1.484536e-04)
49            	(-1.930806e-04 4.078146e-03 -6.771063e-03)	(-1.785291e-04 3.781455e-03 -6.621105e-03)	(-1.455144e-05 2.966913e-04 -1.499588e-04)
50            	(-1.274192e-04 4.131270e-03 -6.856646e-03)	(-1.136493e-04 3.835286e-03 -6.705378e-03)	(-1.376993e-05 2.959844e-04 -1.512677e-04)
51            	(-9.013847e-05 4.143731e-03 -6.872601e-03)	(-7.695201e-05 3.848822e-03 -6.720395e-03)	(-1.318646e-05 2.949097e-04 -1.522059e-04)
52            	(-9.715896e-05 4.113247e-03 -6.809772e-03)	(-8.438158e-05 3.819428e-03 -6.656973e-03)	(-1.277738e-05 2.938198e-04 -1.527986e-04)
53            	(-1.126833e-04 4.089788e-03 -6.721585e-03)	(-1.001402e-04 3.797130e-03 -6.568544e-03)	(-1.254315e-05 2.926578e-04 -1.530415e-04)
54            	(-1.346379e-04 4.072053e-03 -6.622753e-03)	(-1.221977e-04 3.780558e-03 -6.469917e-03)	(-1.244026e-05 2.914945e-04 -1.528356e-04)
55            	(-1.616987e-04 4.058945e-03 -6.525559e-03)	(-1.492516e-04 3.768608e-03 -6.373365e-03)	(-1.244707e-05 2.903370e-04 -1.521938e-04)
56            	(-1.904192e-04 4.054333e-03 -6.440208e-03)	(-1.778544e-04 3.765198e-03 -6.289005e-03)	(-1.256486e-05 2.891351e-04 -1.512032e-04)
57            	(-2.222093e-04 4.052711e-03 -6.367462e-03)	(-2.094082e-04 3.764873e-03 -6.217503e-03)	(-1.280111e-05 2.878372e-04 -1.499587e-04)
58            	(-2.549060e-04 4.055441e-03 -6.307829e-03)	(-2.417463e-04 3.769062e-03 -6.159287e-03)	(-1.315975e-05 2.863784e-04 -1.485420e-04)
59            	(-2.858616e-04 4.064338e-03 -6.258770e-03)	(-2.722320e-04 3.779602e-03 -6.111749e-03)	(-1.362958e-05 2.847363e-04 -1.470205e-04)
60            	(-3.135850e-04 4.078136e-03 -6.214664e-03)	(-2.994181e-04 3.795162e-03 -6.069266e-03)	(-1.416687e-05 2.829735e-04 -1.453981e-04)
61            	(-3.329767e-04 4.114608e-03 -6.167659e-03)	(-3.182344e-04 3.833455e-03 -6.023959e-03)	(-1.474227e-05 2.811527e-04 -1.437003e-04)
62            	(-3.442744e-04 4.164378e-03 -6.111467e-03)	(-3.289333e-04 3.885060e-03 -5.969477e-03)	(-1.534110e-05 2.793185e-04 -1.419903e-04)
63            	(-3.456083e-04 4.229074e-03 -6.040881e-03)	(-3.296553e-04 3.951576e-03 -5.900575e-03)	(-1.595299e-05 2.774978e-04 -1.403064e-04)
64            	(-3.390574e-04 4.302204e-03 -5.953298e-03)	(-3.224931e-04 4.026498e-03 -5.814671e-03)	(-1.656430e-05 2.757060e-04 -1.386269e-04)
65            	(-3.262740e-04 4.378252e-03 -5.850641e-03)	(-3.091069e-04 4.104315e-03 -5.713694e-03)	(-1.716709e-05 2.739364e-04 -1.369469e-04)
66            	(-3.103939e-04 4.450392e-03 -5.737818e-03)	(-2.926407e-04 4.178202e-03 -5.602520e-03)	(-1.775322e-05 2.721898e-04 -1.352983e-04)
67            	(-2.922788e-04 4.515157e-03 -5.620531e-03)	(-2.739801e-04 4.244664e-03 -5.486830e-03)	(-1.829876e-05 2.704927e-04 -1.337012e-04)
68            	(-2.777654e-04 4.555965e-03 -5.516839e-03)	(-2.589854e-04 4.287093e-03 -5.384639e-03)	(-1.878002e-05 2.688730e-04 -1.321998e-04)
69            	(-2.609877e-04 4.598526e-03 -5.423232e-03)	(-2.418079e-04 4.331163e-03 -5.292398e-03)	(-1.917976e-05 2.673625e-04 -1.308341e-04)
70            	(-2.468926e-04 4.632339e-03 -5.345151e-03)	(-2.274058e-04 4.366336e-03 -5.215493e-03)	(-1.948686e-05 2.660032e-04 -1.296578e-04)
71            	(-2.342153e-04 4.664550e-03 -5.288136e-03)	(-2.145107e-04 4.399750e-03 -5.159397e-03)	(-1.970463e-05 2.647999e-04 -1.287387e-04)
72            	(-2.234445e-04 4.696038e-03 -5.253979e-03)	(-2.035986e-04 4.432295e-03 -5.125823e-03)	(-1.984596e-05 2.637426e-04 -1.281560e-04)
73            	(-2.080917e-04 4.741429e-03 -5.240683e-03)	(-1.881763e-04 4.478609e-03 -5.112683e-03)	(-1.991542e-05 2.628203e-04 -1.280000e-04)
74            	(-1.952665e-04 4.786119e-03 -5.249304e-03)	(-1.753338e-04 4.524104e-03 -5.120989e-03)	(-1.993265e-05 2.620148e-04 -1.283153e-04)
75            	(-1.846035e-04 4.829294e-03 -5.275713e-03)	(-1.647100e-04 4.567938e-03 -5.146590e-03)	(-1.989346e-05 2.613562e-04 -1.291223e-04)
76            	(-1.757573e-04 4.869499e-03 -5.314897e-03)	(-1.559654e-04 4.608643e-03 -5.184514e-03)	(-1.979187e-05 2.608559e-04 -1.303830e-04)
77            	(-1.685629e-04 4.904826e-03 -5.362661e-03)	(-1.489388e-04 4.644339e-03 -5.230667e-03)	(-1.962412e-05 2.604866e-04 -1.319940e-04)
78            	(-1.664384e-04 4.925455e-03 -5.413108e-03)	(-1.470304e-04 4.665274e-03 -5.279276e-03)	(-1.940795e-05 2.601818e-04 -1.338319e-04)
79            	(-1.627569e-04 4.946284e-03 -5.471668e-03)	(-1.435964e-04 4.686425e-03 -5.335805e-03)	(-1.916050e-05 2.598595e-04 -1.358632e-04)
80            	(-1.609300e-04 4.958481e-03 -5.534187e-03)	(-1.420236e-04 4.699030e-03 -5.396156e-03)	(-1.890649e-05 2.594506e-04 -1.380304e-04)
81            	(-1.637102e-04 4.955101e-03 -5.596372e-03)	(-1.450329e-04 4.696201e-03 -5.456082e-03)	(-1.867732e-05 2.589002e-04 -1.402901e-04)
82            	(-1.664738e-04 4.948945e-03 -5.665951e-03)	(-1.479723e-04 4.690813e-03 -5.523313e-03)	(-1.850152e-05 2.581325e-04 -1.426377e-04)
83            	(-1.742143e-04 4.928032e-03 -5.733932e-03)	(-1.558064e-04 4.670921e-03 -5.588888e-03)	(-1.840790e-05 2.571115e-04 -1.450439e-04)
84            	(-1.846099e-04 4.899290e-03 -5.803507e-03)	(-1.662027e-04 4.643439e-03 -5.656006e-03)	(-1.840721e-05 2.558510e-04 -1.475015e-04)
85            	(-1.976471e-04 4.863981e-03 -5.873652e-03)	(-1.791451e-04 4.609615e-03 -5.723679e-03)	(-1.850201e-05 2.543658e-04 -1.499728e-04)
86            	(-2.109720e-04 4.829507e-03 -5.945156e-03)	(-1.922766e-04 4.576854e-03 -5.792748e-03)	(-1.869538e-05 2.526528e-04 -1.524080e-04)
87            	(-2.278960e-04 4.788347e-03 -6.009152e-03)	(-2.089095e-04 4.537610e-03 -5.854415e-03)	(-1.898650e-05 2.507369e-04 -1.547370e-04)
88            	(-2.465396e-04 4.746228e-03 -6.066987e-03)	(-2.271762e-04 4.497563e-03 -5.910071e-03)	(-1.936338e-05 2.486654e-04 -1.569159e-04)
89            	(-2.665087e-04 4.704679e-03 -6.115409e-03)	(-2.466929e-04 4.458209e-03 -5.956501e-03)	(-1.981580e-05 2.464698e-04 -1.589087e-04)
90            	(-2.872119e-04 4.667889e-03 -6.154360e-03)	(-2.668780e-04 4.423706e-03 -5.993683e-03)	(-2.033399e-05 2.441827e-04 -1.606774e-04)
91            	(-3.091517e-04 4.632411e-03 -6.178875e-03)	(-2.882448e-04 4.390582e-03 -6.016698e-03)	(-2.090689e-05 2.418285e-04 -1.621763e-04)
92            	(-3.326488e-04 4.596118e-03 -6.186612e-03)	(-3.111194e-04 4.356706e-03 -6.023245e-03)	(-2.152943e-05 2.394124e-04 -1.633669e-04)
93            	(-3.577793e-04 4.560282e-03 -6.179183e-03)	(-3.355740e-04 4.323355e-03 -6.014958e-03)	(-2.220528e-05 2.369262e-04 -1.642252e-04)
94            	(-3.846330e-04 4.524540e-03 -6.156618e-03)	(-3.616901e-04 4.290183e-03 -5.991868e-03)	(-2.294290e-05 2.343569e-04 -1.647500e-04)
95            	(-4.131736e-04 4.488955e-03 -6.119300e-03)	(-3.894261e-04 4.257251e-03 -5.954359e-03)	(-2.374748e-05 2.317035e-04 -1.649411e-04)
96            	(-4.429209e-04 4.453882e-03 -6.068761e-03)	(-4.182980e-04 4.224925e-03 -5.903961e-03)	(-2.462289e-05 2.289572e-04 -1.648003e-04)
97            	(-4.737149e-04 4.420019e-03 -6.007260e-03)	(-4.481501e-04 4.193903e-03 -5.842948e-03)	(-2.556480e-05 2.261154e-04 -1.643113e-04)
98            	(-5.048072e-04 4.388724e-03 -5.936406e-03)	(-4.782445e-04 4.165527e-03 -5.772936e-03)	(-2.656276e-05 2.231973e-04 -1.634701e-04)
99            	(-5.350427e-04 4.361975e-03 -5.857101e-03)	(-5.074474e-04 4.141730e-03 -5.694826e-03)	(-2.759525e-05 2.202450e-04 -1.622748e-04)
100           	(-5.631706e-04 4.341973e-03 -5.769992e-03)	(-5.345253e-04 4.124681e-03 -5.609253e-03)	(-2.864532e-05 2.172921e-04 -1.607393e-04)
101           	(-5.881149e-04 4.330938e-03 -5.675386e-03)	(-5.584270e-04 4.116535e-03 -5.516488e-03)	(-2.968789e-05 2.144024e-04 -1.588973e-04)
102           	(-6.089074e-04 4.330570e-03 -5.573599e-03)	(-5.782136e-04 4.118921e-03 -5.416813e-03)	(-3.069381e-05 2.116490e-04 -1.567862e-04)
103           	(-6.252196e-04 4.342763e-03 -5.464851e-03)	(-5.935857e-04 4.133652e-03 -5.310409e-03)	(-3.163396e-05 2.091110e-04 -1.544422e-04)
104           	(-6.366482e-04 4.368697e-03 -5.350705e-03)	(-6.041693e-04 4.161823e-03 -5.198770e-03)	(-3.247889e-05 2.068740e-04 -1.519344e-04)
105           	(-6.428833e-04 4.408753e-03 -5.233548e-03)	(-6.096702e-04 4.203770e-03 -5.084219e-03)	(-3.321310e-05 2.049830e-04 -1.493294e-04)
106           	(-6.464483e-04 4.459483e-03 -5.109485e-03)	(-6.126046e-04 4.256038e-03 -4.962804e-03)	(-3.384372e-05 2.034444e-04 -1.466811e-04)
107           	(-6.444573e-04 4.523891e-03 -4.986644e-03)	(-6.100910e-04 4.321632e-03 -4.842567e-03)	(-3.436632e-05 2.022596e-04 -1.440766e-04)
108           	(-6.376024e-04 4.601092e-03 -4.867545e-03)	(-6.028187e-04 4.399679e-03 -4.725955e-03)	(-3.478372e-05 2.014135e-04 -1.415900e-04)
109           	(-6.262266e-04 4.688673e-03 -4.754936e-03)	(-5.911277e-04 4.487788e-03 -4.615654e-03)	(-3.509893e-05 2.008849e-04 -1.392826e-04)
110           	(-6.112206e-04 4.784454e-03 -4.651300e-03)	(-5.759002e-04 4.583821e-03 -4.514100e-03)	(-3.532039e-05 2.006335e-04 -1.372003e-04)
111           	(-5.913103e-04 4.887731e-03 -4.560403e-03)	(-5.558559e-04 4.687121e-03 -4.425018e-03)	(-3.545444e-05 2.006100e-04 -1.353855e-04)
112           	(-5.699112e-04 4.992621e-03 -4.482272e-03)	(-5.344016e-04 4.791832e-03 -4.348399e-03)	(-3.550961e-05 2.007890e-04 -1.338729e-04)
113           	(-5.481668e-04 5.095172e-03 -4.420393e-03)	(-5.126696e-04 4.894036e-03 -4.287713e-03)	(-3.549729e-05 2.011355e-04 -1.326805e-04)
114           	(-5.262350e-04 5.193992e-03 -4.374504e-03)	(-4.908073e-04 4.992389e-03 -4.242701e-03)	(-3.542777e-05 2.016030e-04 -1.318031e-04)
115           	(-5.050457e-04 5.286383e-03 -4.345707e-03)	(-4.697410e-04 5.084206e-03 -4.214459e-03)	(-3.530467e-05 2.021766e-04 -1.312473e-04)
116           	(-4.851106e-04 5.370646e-03 -4.332788e-03)	(-4.499742e-04 5.167813e-03 -4.201791e-03)	(-3.513639e-05 2.028335e-04 -1.309975e-04)
117           	(-4.673142e-04 5.445021e-03 -4.335038e-03)	(-4.323844e-04 5.241466e-03 -4.204002e-03)	(-3.492982e-05 2.035547e-04 -1.310368e-04)
118           	(-4.515848e-04 5.508748e-03 -4.350260e-03)	(-4.168890e-04 5.304439e-03 -4.218929e-03)	(-3.469576e-05 2.043096e-04 -1.313307e-04)
119           	(-4.381714e-04 5.561046e-03 -4.376628e-03)	(-4.037285e-04 5.355976e-03 -4.244776e-03)	(-3.444292e-05 2.050708e-04 -1.318520e-04)
120           	(-4.275243e-04 5.601617e-03 -4.412135e-03)	(-3.933435e-04 5.395793e-03 -4.279563e-03)	(-3.418080e-05 2.058239e-04 -1.325723e-04)
121           	(-4.194090e-04 5.630477e-03 -4.455427e-03)	(-3.855014e-04 5.423909e-03 -4.321980e-03)	(-3.390765e-05 2.065680e-04 -1.334462e-04)
122           	(-4.138329e-04 5.648036e-03 -4.505064e-03)	(-3.802088e-04 5.440727e-03 -4.370626e-03)	(-3.362414e-05 2.073090e-04 -1.344381e-04)
123           	(-4.107995e-04 5.654805e-03 -4.559908e-03)	(-3.774661e-04 5.446763e-03 -4.424392e-03)	(-3.333334e-05 2.080422e-04 -1.355158e-04)
124           	(-4.102708e-04 5.651502e-03 -4.619320e-03)	(-3.772266e-04 5.442744e-03 -4.482660e-03)	(-3.304420e-05 2.087573e-04 -1.366600e-04)
125           	(-4.120751e-04 5.639108e-03 -4.682918e-03)	(-3.793037e-04 5.429701e-03 -4.545080e-03)	(-3.277134e-05 2.094064e-04 -1.378386e-04)
126           	(-4.159838e-04 5.618703e-03 -4.750035e-03)	(-3.834440e-04 5.408800e-03 -4.611002e-03)	(-3.253988e-05 2.099035e-04 -1.390324e-04)
127           	(-4.213514e-04 5.591359e-03 -4.819454e-03)	(-3.889826e-04 5.381184e-03 -4.679250e-03)	(-3.236873e-05 2.101752e-04 -1.402040e-04)
128           	(-4.275618e-04 5.558345e-03 -4.889375e-03)	(-3.952995e-04 5.348125e-03 -4.748067e-03)	(-3.226234e-05 2.102193e-04 -1.413076e-04)
129           	(-4.341040e-04 5.520820e-03 -4.958076e-03)	(-4.018822e-04 5.310779e-03 -4.815747e-03)	(-3.222181e-05 2.100409e-04 -1.423289e-04)
130           	(-4.410072e-04 5.482203e-03 -5.023973e-03)	(-4.087572e-04 5.272569e-03 -4.880718e-03)	(-3.225001e-05 2.096346e-04 -1.432548e-04)
131           	(-4.477249e-04 5.442870e-03 -5.087035e-03)	(-4.153764e-04 5.233868e-03 -4.942950e-03)	(-3.234858e-05 2.090015e-04 -1.440853e-04)
132           	(-4.543440e-04 5.404307e-03 -5.146554e-03)	(-4.218315e-04 5.196132e-03 -5.001747e-03)	(-3.251252e-05 2.081747e-04 -1.448073e-04)
133           	(-4.609755e-04 5.367723e-03 -5.201350e-03)	(-4.282360e-04 5.160549e-03 -5.055928e-03)	(-3.273951e-05 2.071737e-04 -1.454224e-04)
134           	(-4.676888e-04 5.334148e-03 -5.249708e-03)	(-4.346600e-04 5.128129e-03 -5.103762e-03)	(-3.302881e-05 2.060186e-04 -1.459462e-04)
135           	(-4.745583e-04 5.304135e-03 -5.289755e-03)	(-4.411811e-04 5.099396e-03 -5.143379e-03)	(-3.337715e-05 2.047392e-04 -1.463753e-04)
136           	(-4.816406e-04 5.277572e-03 -5.320175e-03)	(-4.478598e-04 5.074218e-03 -5.173471e-03)	(-3.378082e-05 2.033543e-04 -1.467038e-04)
137           	(-4.887766e-04 5.253689e-03 -5.340648e-03)	(-4.545417e-04 5.051804e-03 -5.193715e-03)	(-3.423498e-05 2.018844e-04 -1.469334e-04)
138           	(-4.960302e-04 5.231788e-03 -5.350785e-03)	(-4.612987e-04 5.031436e-03 -5.203725e-03)	(-3.473150e-05 2.003517e-04 -1.470603e-04)
139           	(-5.035238e-04 5.211046e-03 -5.350659e-03)	(-4.682609e-04 5.012273e-03 -5.203571e-03)	(-3.526291e-05 1.987732e-04 -1.470879e-04)
140           	(-5.111771e-04 5.190596e-03 -5.340762e-03)	(-4.753589e-04 4.993422e-03 -5.193752e-03)	(-3.581827e-05 1.971735e-04 -1.470106e-04)
141           	(-5.192407e-04 5.170166e-03 -5.321426e-03)	(-4.828544e-04 4.974595e-03 -5.174610e-03)	(-3.638622e-05 1.955708e-04 -1.468152e-04)
142           	(-5.277969e-04 5.149379e-03 -5.293413e-03)	(-4.908449e-04 4.955377e-03 -5.146925e-03)	(-3.695193e-05 1.940020e-04 -1.464876e-04)
143           	(-5.367792e-04 5.127933e-03 -5.257458e-03)	(-4.992729e-04 4.935450e-03 -5.111435e-03)	(-3.750633e-05 1.924834e-04 -1.460230e-04)
144           	(-5.458227e-04 5.105852e-03 -5.214324e-03)	(-5.077853e-04 4.914811e-03 -5.068907e-03)	(-3.803738e-05 1.910413e-04 -1.454173e-04)
145           	(-5.544842e-04 5.083684e-03 -5.164708e-03)	(-5.159477e-04 4.893988e-03 -5.020029e-03)	(-3.853658e-05 1.896960e-04 -1.446792e-04)
146           	(-5.618805e-04 5.061849e-03 -5.109273e-03)	(-5.228903e-04 4.873373e-03 -4.965457e-03)	(-3.899027e-05 1.884755e-04 -1.438158e-04)
147           	(-5.679126e-04 5.041723e-03 -5.049040e-03)	(-5.285250e-04 4.854316e-03 -4.906197e-03)	(-3.938765e-05 1.874067e-04 -1.428429e-04)
148           	(-5.723182e-04 5.024102e-03 -4.985613e-03)	(-5.325900e-04 4.837609e-03 -4.843839e-03)	(-3.972827e-05 1.864930e-04 -1.417740e-04)
149           	(-5.749729e-04 5.010270e-03 -4.921309e-03)	(-5.349630e-04 4.824535e-03 -4.780687e-03)	(-4.000998e-05 1.857345e-04 -1.406223e-04)
150           	(-5.758495e-04 5.001685e-03 -4.858308e-03)	(-5.356185e-04 4.816556e-03 -4.718905e-03)	(-4.023095e-05 1.851292e-04 -1.394032e-04)
151           	(-5.747899e-04 4.999416e-03 -4.799054e-03)	(-5.344022e-04 4.814735e-03 -4.660920e-03)	(-4.038769e-05 1.846812e-04 -1.381341e-04)
152           	(-5.714935e-04 5.004171e-03 -4.745755e-03)	(-5.310153e-04 4.819781e-03 -4.608911e-03)	(-4.047823e-05 1.843900e-04 -1.368439e-04)
153           	(-5.658342e-04 5.016390e-03 -4.700032e-03)	(-5.253389e-04 4.832122e-03 -4.564475e-03)	(-4.049534e-05 1.842676e-04 -1.355566e-04)
154           	(-5.575160e-04 5.036217e-03 -4.663329e-03)	(-5.170809e-04 4.851897e-03 -4.529023e-03)	(-4.043508e-05 1.843199e-04 -1.343059e-04)
155           	(-5.463663e-04 5.063529e-03 -4.635593e-03)	(-5.060773e-04 4.878962e-03 -4.502469e-03)	(-4.028902e-05 1.845662e-04 -1.331240e-04)
156           	(-5.325678e-04 5.097775e-03 -4.616373e-03)	(-4.925084e-04 4.912772e-03 -4.484330e-03)	(-4.005943e-05 1.850030e-04 -1.320427e-04)
157           	(-5.164736e-04 5.138688e-03 -4.604009e-03)	(-4.767291e-04 4.953041e-03 -4.472915e-03)	(-3.974441e-05 1.856473e-04 -1.310936e-04)
158           	(-4.981948e-04 5.185554e-03 -4.597058e-03)	(-4.588461e-04 4.999051e-03 -4.466755e-03)	(-3.934866e-05 1.865027e-04 -1.303034e-04)
159           	(-4.780044e-04 5.237714e-03 -4.593787e-03)	(-4.391219e-04 5.050157e-03 -4.464098e-03)	(-3.888256e-05 1.875575e-04 -1.296883e-04)
160           	(-4.540306e-04 5.301246e-03 -4.593751e-03)	(-4.156801e-04 5.112443e-03 -4.464500e-03)	(-3.835049e-05 1.888026e-04 -1.292507e-04)
161           	(-4.313754e-04 5.360247e-03 -4.593440e-03)	(-3.936056e-04 5.170046e-03 -4.464466e-03)	(-3.776980e-05 1.902001e-04 -1.289746e-04)
162           	(-4.063033e-04 5.426539e-03 -4.594031e-03)	(-3.691531e-04 5.234823e-03 -4.465184e-03)	(-3.715018e-05 1.917157e-04 -1.288474e-04)
163           	(-3.835447e-04 5.485692e-03 -4.593595e-03)	(-3.470353e-04 5.292388e-03 -4.464760e-03)	(-3.650945e-05 1.933041e-04 -1.288346e-04)
164           	(-3.613274e-04 5.542457e-03 -4.592388e-03)	(-3.254687e-04 5.347519e-03 -4.463461e-03)	(-3.585873e-05 1.949383e-04 -1.289265e-04)
165           	(-3.399984e-04 5.595468e-03 -4.589935e-03)	(-3.047760e-04 5.398909e-03 -4.460835e-03)	(-3.522244e-05 1.965582e-04 -1.291003e-04)
166           	(-3.183762e-04 5.647603e-03 -4.586269e-03)	(-2.837637e-04 5.449472e-03 -4.456927e-03)	(-3.461255e-05 1.981313e-04 -1.293417e-04)
167           	(-3.002587e-04 5.689935e-03 -4.581791e-03)	(-2.662103e-04 5.490320e-03 -4.452163e-03)	(-3.404836e-05 1.996153e-04 -1.296274e-04)
168           	(-2.840353e-04 5.725977e-03 -4.577898e-03)	(-2.504920e-04 5.525009e-03 -4.447965e-03)	(-3.354333e-05 2.009683e-04 -1.299331e-04)
169           	(-2.699618e-04 5.755068e-03 -4.576185e-03)	(-2.368576e-04 5.552909e-03 -4.445949e-03)	(-3.310422e-05 2.021593e-04 -1.302361e-04)
170           	(-2.583487e-04 5.777254e-03 -4.577818e-03)	(-2.256130e-04 5.574089e-03 -4.447308e-03)	(-3.273572e-05 2.031646e-04 -1.305103e-04)
171           	(-2.493124e-04 5.793067e-03 -4.583130e-03)	(-2.168728e-04 5.589099e-03 -4.452410e-03)	(-3.243964e-05 2.039679e-04 -1.307205e-04)
172           	(-2.427672e-04 5.803457e-03 -4.591652e-03)	(-2.105517e-04 5.598894e-03 -4.460812e-03)	(-3.221552e-05 2.045628e-04 -1.308398e-04)
173           	(-2.384373e-04 5.809658e-03 -4.602263e-03)	(-2.063791e-04 5.604702e-03 -4.471420e-03)	(-3.205826e-05 2.049554e-04 -1.308428e-04)
174           	(-2.357515e-04 5.813302e-03 -4.613133e-03)	(-2.037887e-04 5.608144e-03 -4.482415e-03)	(-3.196286e-05 2.051574e-04 -1.307186e-04)
175           	(-2.340725e-04 5.815903e-03 -4.622638e-03)	(-2.021502e-04 5.610715e-03 -4.492171e-03)	(-3.192225e-05 2.051876e-04 -1.304665e-04)
176           	(-2.333030e-04 5.819165e-03 -4.629821e-03)	(-2.013736e-04 5.614090e-03 -4.499726e-03)	(-3.192942e-05 2.050753e-04 -1.300954e-04)
177           	(-2.327313e-04 5.823421e-03 -4.634025e-03)	(-2.007604e-04 5.618562e-03 -4.504409e-03)	(-3.197093e-05 2.048582e-04 -1.296162e-04)
178           	(-2.317111e-04 5.827928e-03 -4.635372e-03)	(-1.996764e-04 5.623363e-03 -4.506326e-03)	(-3.203472e-05 2.045653e-04 -1.290458e-04)
179           	(-2.301078e-04 5.834934e-03 -4.634044e-03)	(-1.979932e-04 5.630714e-03 -4.505641e-03)	(-3.211452e-05 2.042205e-04 -1.284030e-04)
180           	(-2.275796e-04 5.846050e-03 -4.629472e-03)	(-1.953770e-04 5.642192e-03 -4.501757e-03)	(-3.220263e-05 2.038580e-04 -1.277148e-04)
181           	(-2.241836e-04 5.859679e-03 -4.623281e-03)	(-1.918981e-04 5.656160e-03 -4.496275e-03)	(-3.228544e-05 2.035184e-04 -1.270060e-04)
182           	(-2.184146e-04 5.879028e-03 -4.617348e-03)	(-1.860637e-04 5.675798e-03 -4.491049e-03)	(-3.235096e-05 2.032292e-04 -1.262998e-04)
183           	(-2.126867e-04 5.896693e-03 -4.611326e-03)	(-1.803005e-04 5.693672e-03 -4.485715e-03)	(-3.238625e-05 2.030207e-04 -1.256107e-04)
184           	(-2.065179e-04 5.915557e-03 -4.606844e-03)	(-1.741327e-04 5.712646e-03 -4.481886e-03)	(-3.238519e-05 2.029107e-04 -1.249574e-04)
185           	(-2.001144e-04 5.935695e-03 -4.604255e-03)	(-1.677710e-04 5.732785e-03 -4.479907e-03)	(-3.234338e-05 2.029099e-04 -1.243481e-04)
186           	(-1.937204e-04 5.956628e-03 -4.603844e-03)	(-1.614604e-04 5.753608e-03 -4.480062e-03)	(-3.226005e-05 2.030197e-04 -1.237825e-04)
187           	(-1.874632e-04 5.977832e-03 -4.605819e-03)	(-1.553268e-04 5.774597e-03 -4.482559e-03)	(-3.213638e-05 2.032345e-04 -1.232604e-04)
188           	(-1.815278e-04 5.998791e-03 -4.610112e-03)	(-1.495607e-04 5.795231e-03 -4.487334e-03)	(-3.196712e-05 2.035598e-04 -1.227780e-04)
189           	(-1.760748e-04 6.018996e-03 -4.616509e-03)	(-1.443214e-04 5.815000e-03 -4.494161e-03)	(-3.175342e-05 2.039956e-04 -1.223484e-04)
190           	(-1.711876e-04 6.037919e-03 -4.624475e-03)	(-1.396915e-04 5.833379e-03 -4.502496e-03)	(-3.149607e-05 2.045394e-04 -1.219783e-04)
191           	(-1.668676e-04 6.055079e-03 -4.633375e-03)	(-1.356710e-04 5.849892e-03 -4.511708e-03)	(-3.119659e-05 2.051869e-04 -1.216664e-04)
192           	(-1.630620e-04 6.069889e-03 -4.642490e-03)	(-1.322089e-04 5.863951e-03 -4.521082e-03)	(-3.085312e-05 2.059377e-04 -1.214078e-04)
193           	(-1.598069e-04 6.082353e-03 -4.651776e-03)	(-1.293347e-04 5.875574e-03 -4.530569e-03)	(-3.047227e-05 2.067794e-04 -1.212070e-04)
194           	(-1.571694e-04 6.092541e-03 -4.661293e-03)	(-1.271117e-04 5.884837e-03 -4.540225e-03)	(-3.005768e-05 2.077033e-04 -1.210675e-04)
195           	(-1.551972e-04 6.100994e-03 -4.671626e-03)	(-1.255775e-04 5.892310e-03 -4.550625e-03)	(-2.961962e-05 2.086841e-04 -1.210014e-04)
196           	(-1.540528e-04 6.107525e-03 -4.682928e-03)	(-1.248885e-04 5.897818e-03 -4.561914e-03)	(-2.916426e-05 2.097064e-04 -1.210131e-04)
197           	(-1.538532e-04 6.112209e-03 -4.695525e-03)	(-1.251564e-04 5.901455e-03 -4.574434e-03)	(-2.869686e-05 2.107537e-04 -1.210907e-04)
198           	(-1.546818e-04 6.115046e-03 -4.709457e-03)	(-1.264590e-04 5.903234e-03 -4.588237e-03)	(-2.822273e-05 2.118120e-04 -1.212199e-04)
199           	(-1.565844e-04 6.116023e-03 -4.724519e-03)	(-1.288361e-04 5.903160e-03 -4.603134e-03)	(-2.774835e-05 2.128629e-04 -1.213850e-04)
200           	(-1.595737e-04 6.115075e-03 -4.740267e-03)	(-1.322918e-04 5.901189e-03 -4.618704e-03)	(-2.728186e-05 2.138866e-04 -1.215634e-04)
201           	(-1.636517e-04 6.111984e-03 -4.756163e-03)	(-1.368203e-04 5.897125e-03 -4.634432e-03)	(-2.683135e-05 2.148587e-04 -1.217311e-04)
202           	(-1.687558e-04 6.106511e-03 -4.771631e-03)	(-1.423515e-04 5.890759e-03 -4.649760e-03)	(-2.640432e-05 2.157516e-04 -1.218708e-04)
203           	(-1.749635e-04 6.098131e-03 -4.786520e-03)	(-1.489567e-04 5.881582e-03 -4.664555e-03)	(-2.600683e-05 2.165493e-04 -1.219656e-04)
204           	(-1.822237e-04 6.086506e-03 -4.800978e-03)	(-1.565799e-04 5.869272e-03 -4.678970e-03)	(-2.564379e-05 2.172338e-04 -1.220078e-04)
205           	(-1.905203e-04 6.071385e-03 -4.815252e-03)	(-1.651992e-04 5.853595e-03 -4.693257e-03)	(-2.532107e-05 2.177903e-04 -1.219956e-04)
206           	(-1.998240e-04 6.052589e-03 -4.829562e-03)	(-1.747816e-04 5.834377e-03 -4.707634e-03)	(-2.504238e-05 2.182116e-04 -1.219277e-04)
207           	(-2.100861e-04 6.030027e-03 -4.844065e-03)	(-1.852741e-04 5.811534e-03 -4.722251e-03)	(-2.481200e-05 2.184924e-04 -1.218138e-04)