# Moment      
# CofR        : (0.000000e+00 0.000000e+00 0.000000e+00)
#
# Time        	(total_x total_y total_z)	(pressure_x pressure_y pressure_z)	(viscous_x viscous_y viscous_z)
0.00059988    	(1.453114e-02 2.832315e-01 -1.376285e-02)	(1.454487e-02 2.818725e-01 -1.364799e-02)	(-1.372951e-05 1.358981e-03 -1.148518e-04)
0.00131991    	(1.423167e-02 2.757379e-01 -1.233341e-02)	(1.424579e-02 2.743776e-01 -1.221773e-02)	(-1.411465e-05 1.360269e-03 -1.156843e-04)
0.00218382    	(1.438606e-02 2.723801e-01 -1.083737e-02)	(1.440051e-02 2.710190e-01 -1.072093e-02)	(-1.445360e-05 1.361085e-03 -1.164480e-04)
0.00322105    	(1.447153e-02 2.703406e-01 -9.937095e-03)	(1.448630e-02 2.689790e-01 -9.819869e-03)	(-1.477331e-05 1.361561e-03 -1.172256e-04)
0.00446547    	(1.452872e-02 2.690302e-01 -9.398379e-03)	(1.454378e-02 2.676684e-01 -9.280341e-03)	(-1.506246e-05 1.361769e-03 -1.180382e-04)
0.00595802    	(1.459054e-02 2.681832e-01 -9.070779e-03)	(1.460584e-02 2.668215e-01 -8.951854e-03)	(-1.530118e-05 1.361767e-03 -1.189255e-04)
0.00774909    	(1.467667e-02 2.676313e-01 -8.865486e-03)	(1.469213e-02 2.662697e-01 -8.745574e-03)	(-1.546160e-05 1.361605e-03 -1.199113e-04)
0.00989682    	(1.477104e-02 2.673329e-01 -8.762758e-03)	(1.478656e-02 2.659715e-01 -8.641743e-03)	(-1.551307e-05 1.361344e-03 -1.210146e-04)
0.0124162     	(1.489387e-02 2.671439e-01 -8.678954e-03)	(1.490929e-02 2.657829e-01 -8.556723e-03)	(-1.541995e-05 1.361025e-03 -1.222304e-04)
0.0153123     	(1.503673e-02 2.670692e-01 -8.644495e-03)	(1.505188e-02 2.657086e-01 -8.520948e-03)	(-1.515564e-05 1.360696e-03 -1.235474e-04)
0.0185837     	(1.519253e-02 2.670421e-01 -8.645523e-03)	(1.520723e-02 2.656817e-01 -8.520563e-03)	(-1.469979e-05 1.360387e-03 -1.249595e-04)
0.0222321     	(1.536058e-02 2.670393e-01 -8.650756e-03)	(1.537462e-02 2.656791e-01 -8.524313e-03)	(-1.403692e-05 1.360142e-03 -1.264434e-04)
0.0259783     	(1.553405e-02 2.670360e-01 -8.677593e-03)	(1.554725e-02 2.656760e-01 -8.549677e-03)	(-1.319531e-05 1.359965e-03 -1.279158e-04)
0.0297246     	(1.570130e-02 2.670405e-01 -8.716657e-03)	(1.571352e-02 2.656806e-01 -8.587321e-03)	(-1.221778e-05 1.359863e-03 -1.293363e-04)
0.0334708     	(1.586407e-02 2.670483e-01 -8.762266e-03)	(1.587519e-02 2.656885e-01 -8.631563e-03)	(-1.111566e-05 1.359837e-03 -1.307035e-04)
0.037217      	(1.600557e-02 2.670572e-01 -8.814829e-03)	(1.601544e-02 2.656973e-01 -8.682836e-03)	(-9.873522e-06 1.359877e-03 -1.319933e-04)
0.0409633     	(1.614132e-02 2.670641e-01 -8.858080e-03)	(1.614981e-02 2.657042e-01 -8.724884e-03)	(-8.490347e-06 1.359971e-03 -1.331954e-04)
0.0447095     	(1.627492e-02 2.670759e-01 -8.888722e-03)	(1.628188e-02 2.657158e-01 -8.754418e-03)	(-6.960540e-06 1.360106e-03 -1.343041e-04)
0.0484557     	(1.639447e-02 2.670887e-01 -8.913780e-03)	(1.639974e-02 2.657284e-01 -8.778454e-03)	(-5.276752e-06 1.360270e-03 -1.353257e-04)
0.052202      	(1.650389e-02 2.671046e-01 -8.944075e-03)	(1.650733e-02 2.657441e-01 -8.807818e-03)	(-3.439466e-06 1.360455e-03 -1.362562e-04)
0.0559335     	(1.660335e-02 2.671235e-01 -8.959956e-03)	(1.660482e-02 2.657629e-01 -8.822867e-03)	(-1.468108e-06 1.360657e-03 -1.370889e-04)
0.059665      	(1.668721e-02 2.671415e-01 -8.975978e-03)	(1.668658e-02 2.657806e-01 -8.838137e-03)	(6.341080e-07 1.360877e-03 -1.378403e-04)
0.0633964     	(1.676738e-02 2.671674e-01 -8.981071e-03)	(1.676452e-02 2.658062e-01 -8.842553e-03)	(2.866461e-06 1.361119e-03 -1.385176e-04)
0.0671279     	(1.683293e-02 2.671963e-01 -8.987208e-03)	(1.682776e-02 2.658349e-01 -8.848090e-03)	(5.165715e-06 1.361352e-03 -1.391184e-04)
0.0708594     	(1.688930e-02 2.672265e-01 -8.987127e-03)	(1.688173e-02 2.658649e-01 -8.847486e-03)	(7.565160e-06 1.361620e-03 -1.396416e-04)
0.0745909     	(1.693729e-02 2.672600e-01 -8.982550e-03)	(1.692723e-02 2.658981e-01 -8.842456e-03)	(1.006256e-05 1.361926e-03 -1.400939e-04)
0.0783224     	(1.696704e-02 2.672986e-01 -8.980605e-03)	(1.695438e-02 2.659363e-01 -8.840126e-03)	(1.265534e-05 1.362278e-03 -1.404789e-04)
0.0820539     	(1.698647e-02 2.673407e-01 -8.979316e-03)	(1.697112e-02 2.659781e-01 -8.838531e-03)	(1.535002e-05 1.362680e-03 -1.407844e-04)
0.0857854     	(1.699309e-02 2.673848e-01 -8.981282e-03)	(1.697496e-02 2.660217e-01 -8.840271e-03)	(1.812958e-05 1.363135e-03 -1.410113e-04)
0.0895169     	(1.698182e-02 2.674324e-01 -8.993440e-03)	(1.696083e-02 2.660688e-01 -8.852282e-03)	(2.099418e-05 1.363646e-03 -1.411580e-04)
0.0932484     	(1.695984e-02 2.674834e-01 -9.016527e-03)	(1.693591e-02 2.661192e-01 -8.875305e-03)	(2.392627e-05 1.364215e-03 -1.412213e-04)
0.0969798     	(1.692116e-02 2.675350e-01 -9.047604e-03)	(1.689424e-02 2.661701e-01 -8.906400e-03)	(2.691721e-05 1.364843e-03 -1.412041e-04)
0.100711      	(1.687175e-02 2.675878e-01 -9.083500e-03)	(1.684179e-02 2.662222e-01 -8.942389e-03)	(2.996659e-05 1.365529e-03 -1.411111e-04)
0.104443      	(1.679872e-02 2.676450e-01 -9.146970e-03)	(1.676565e-02 2.662787e-01 -9.006030e-03)	(3.307184e-05 1.366270e-03 -1.409399e-04)
0.108174      	(1.671822e-02 2.677011e-01 -9.216518e-03)	(1.668198e-02 2.663340e-01 -9.075815e-03)	(3.623378e-05 1.367064e-03 -1.407033e-04)
0.111906      	(1.662461e-02 2.677551e-01 -9.284179e-03)	(1.658516e-02 2.663872e-01 -9.143782e-03)	(3.945606e-05 1.367905e-03 -1.403968e-04)
0.115637      	(1.651040e-02 2.678076e-01 -9.368301e-03)	(1.646764e-02 2.664388e-01 -9.228277e-03)	(4.275253e-05 1.368786e-03 -1.400239e-04)
0.119369      	(1.639225e-02 2.678589e-01 -9.436519e-03)	(1.634613e-02 2.664892e-01 -9.296934e-03)	(4.612081e-05 1.369703e-03 -1.395856e-04)
0.1231        	(1.626481e-02 2.679070e-01 -9.511433e-03)	(1.621524e-02 2.665363e-01 -9.372352e-03)	(4.956763e-05 1.370645e-03 -1.390812e-04)
0.126832      	(1.612648e-02 2.679544e-01 -9.577525e-03)	(1.607338e-02 2.665828e-01 -9.439021e-03)	(5.310209e-05 1.371603e-03 -1.385040e-04)
0.130563      	(1.597969e-02 2.679994e-01 -9.654145e-03)	(1.592299e-02 2.666269e-01 -9.516300e-03)	(5.670421e-05 1.372566e-03 -1.378447e-04)
0.134295      	(1.582020e-02 2.680414e-01 -9.741214e-03)	(1.575982e-02 2.666679e-01 -9.604127e-03)	(6.037844e-05 1.373526e-03 -1.370879e-04)
0.138026      	(1.565511e-02 2.680754e-01 -9.806058e-03)	(1.559100e-02 2.667010e-01 -9.669848e-03)	(6.411668e-05 1.374473e-03 -1.362095e-04)
0.141758      	(1.549235e-02 2.681071e-01 -9.859231e-03)	(1.542443e-02 2.667317e-01 -9.724026e-03)	(6.792166e-05 1.375401e-03 -1.352060e-04)
0.145489      	(1.532384e-02 2.681317e-01 -9.892622e-03)	(1.525203e-02 2.667554e-01 -9.758555e-03)	(7.180342e-05 1.376302e-03 -1.340663e-04)
0.149221      	(1.515543e-02 2.681518e-01 -9.914793e-03)	(1.507967e-02 2.667746e-01 -9.781995e-03)	(7.575886e-05 1.377171e-03 -1.327982e-04)
0.152952      	(1.498759e-02 2.681678e-01 -9.926038e-03)	(1.490780e-02 2.667898e-01 -9.794627e-03)	(7.978682e-05 1.378001e-03 -1.314110e-04)
0.156684      	(1.482359e-02 2.681769e-01 -9.915984e-03)	(1.473971e-02 2.667981e-01 -9.786070e-03)	(8.387720e-05 1.378785e-03 -1.299145e-04)
0.160415      	(1.465121e-02 2.681848e-01 -9.888525e-03)	(1.456320e-02 2.668053e-01 -9.760211e-03)	(8.801000e-05 1.379520e-03 -1.283134e-04)
0.164147      	(1.448431e-02 2.681866e-01 -9.836984e-03)	(1.439214e-02 2.668064e-01 -9.710359e-03)	(9.217604e-05 1.380200e-03 -1.266248e-04)
0.167878      	(1.431782e-02 2.681862e-01 -9.777471e-03)	(1.422145e-02 2.668054e-01 -9.652611e-03)	(9.637177e-05 1.380824e-03 -1.248601e-04)
0.17161       	(1.415166e-02 2.681842e-01 -9.691675e-03)	(1.405110e-02 2.668028e-01 -9.568643e-03)	(1.005587e-04 1.381394e-03 -1.230322e-04)
0.175358      	(1.398513e-02 2.681794e-01 -9.565430e-03)	(1.388041e-02 2.667975e-01 -9.444292e-03)	(1.047198e-04 1.381913e-03 -1.211379e-04)
0.179106      	(1.381682e-02 2.681696e-01 -9.428234e-03)	(1.370800e-02 2.667872e-01 -9.309043e-03)	(1.088286e-04 1.382385e-03 -1.191918e-04)
0.182855      	(1.364605e-02 2.681595e-01 -9.278279e-03)	(1.353321e-02 2.667767e-01 -9.161073e-03)	(1.128400e-04 1.382814e-03 -1.172058e-04)
0.186603      	(1.347681e-02 2.681516e-01 -9.101073e-03)	(1.336006e-02 2.667684e-01 -8.985899e-03)	(1.167491e-04 1.383209e-03 -1.151741e-04)
0.190351      	(1.330669e-02 2.681418e-01 -8.903446e-03)	(1.318615e-02 2.667582e-01 -8.790353e-03)	(1.205373e-04 1.383574e-03 -1.130933e-04)
0.1941        	(1.312907e-02 2.681324e-01 -8.696950e-03)	(1.300489e-02 2.667484e-01 -8.585974e-03)	(1.241869e-04 1.383915e-03 -1.109756e-04)
0.197848      	(1.294899e-02 2.681239e-01 -8.478024e-03)	(1.282106e-02 2.667397e-01 -8.369132e-03)	(1.279324e-04 1.384198e-03 -1.088925e-04)
0.201597      	(1.276588e-02 2.681150e-01 -8.238873e-03)	(1.263463e-02 2.667305e-01 -8.132138e-03)	(1.312467e-04 1.384494e-03 -1.067349e-04)
0.205345      	(1.257562e-02 2.681083e-01 -7.999874e-03)	(1.244105e-02 2.667235e-01 -7.895262e-03)	(1.345722e-04 1.384750e-03 -1.046129e-04)
0.209093      	(1.238791e-02 2.681024e-01 -7.738875e-03)	(1.225025e-02 2.667174e-01 -7.636391e-03)	(1.376683e-04 1.385002e-03 -1.024835e-04)
0.212842      	(1.219139e-02 2.680997e-01 -7.482139e-03)	(1.205104e-02 2.667144e-01 -7.381821e-03)	(1.403486e-04 1.385283e-03 -1.003180e-04)
0.21659       	(1.199278e-02 2.680989e-01 -7.214121e-03)	(1.184980e-02 2.667134e-01 -7.115927e-03)	(1.429848e-04 1.385551e-03 -9.819429e-05)
0.220338      	(1.179726e-02 2.681037e-01 -6.948561e-03)	(1.165186e-02 2.667179e-01 -6.852467e-03)	(1.453990e-04 1.385832e-03 -9.609402e-05)
0.224087      	(1.159435e-02 2.681070e-01 -6.698045e-03)	(1.144688e-02 2.667209e-01 -6.604029e-03)	(1.474719e-04 1.386135e-03 -9.401649e-05)
0.227835      	(1.139821e-02 2.681108e-01 -6.427025e-03)	(1.124871e-02 2.667244e-01 -6.335027e-03)	(1.495002e-04 1.386436e-03 -9.199840e-05)
0.231584      	(1.120581e-02 2.681210e-01 -6.159157e-03)	(1.105444e-02 2.667343e-01 -6.069113e-03)	(1.513639e-04 1.386742e-03 -9.004355e-05)
0.235332      	(1.101457e-02 2.681309e-01 -5.900254e-03)	(1.086149e-02 2.667439e-01 -5.812082e-03)	(1.530806e-04 1.387052e-03 -8.817160e-05)
0.23908       	(1.083333e-02 2.681421e-01 -5.651472e-03)	(1.067869e-02 2.667548e-01 -5.565098e-03)	(1.546435e-04 1.387360e-03 -8.637433e-05)
0.242829      	(1.065945e-02 2.681561e-01 -5.393431e-03)	(1.050337e-02 2.667684e-01 -5.308790e-03)	(1.560796e-04 1.387665e-03 -8.464135e-05)
0.246577      	(1.048719e-02 2.681707e-01 -5.133217e-03)	(1.032979e-02 2.667828e-01 -5.050239e-03)	(1.574080e-04 1.387961e-03 -8.297786e-05)
0.250325      	(1.032851e-02 2.681870e-01 -4.868436e-03)	(1.016985e-02 2.667988e-01 -4.787068e-03)	(1.586586e-04 1.388242e-03 -8.136787e-05)
0.254093      	(1.017556e-02 2.682039e-01 -4.619665e-03)	(1.001571e-02 2.668154e-01 -4.539852e-03)	(1.598526e-04 1.388508e-03 -7.981245e-05)
0.25786       	(1.002755e-02 2.682162e-01 -4.361595e-03)	(9.866554e-03 2.668274e-01 -4.283302e-03)	(1.609989e-04 1.388750e-03 -7.829297e-05)
0.261627      	(9.887175e-03 2.682245e-01 -4.106536e-03)	(9.725052e-03 2.668355e-01 -4.029727e-03)	(1.621234e-04 1.388963e-03 -7.680939e-05)
0.265394      	(9.758461e-03 2.682353e-01 -3.851146e-03)	(9.595225e-03 2.668461e-01 -3.775779e-03)	(1.632357e-04 1.389146e-03 -7.536701e-05)
0.269161      	(9.641061e-03 2.682424e-01 -3.605342e-03)	(9.476711e-03 2.668531e-01 -3.531369e-03)	(1.643496e-04 1.389297e-03 -7.397297e-05)
0.272929      	(9.519147e-03 2.682487e-01 -3.370508e-03)	(9.353676e-03 2.668593e-01 -3.297886e-03)	(1.654715e-04 1.389417e-03 -7.262245e-05)
0.276696      	(9.403466e-03 2.682583e-01 -3.139022e-03)	(9.236871e-03 2.668688e-01 -3.067708e-03)	(1.665948e-04 1.389509e-03 -7.131407e-05)
0.280463      	(9.302645e-03 2.682651e-01 -2.911516e-03)	(9.134916e-03 2.668755e-01 -2.841472e-03)	(1.677295e-04 1.389575e-03 -7.004375e-05)
0.28423       	(9.213916e-03 2.682716e-01 -2.677493e-03)	(9.045035e-03 2.668820e-01 -2.608683e-03)	(1.688815e-04 1.389618e-03 -6.881021e-05)
0.287998      	(9.140681e-03 2.682759e-01 -2.431340e-03)	(8.970638e-03 2.668863e-01 -2.363713e-03)	(1.700434e-04 1.389638e-03 -6.762718e-05)
0.291765      	(9.074730e-03 2.682789e-01 -2.180500e-03)	(8.903520e-03 2.668893e-01 -2.114018e-03)	(1.712104e-04 1.389637e-03 -6.648225e-05)
0.295532      	(9.013440e-03 2.682855e-01 -1.932891e-03)	(8.841055e-03 2.668959e-01 -1.867520e-03)	(1.723849e-04 1.389624e-03 -6.537144e-05)
0.299299      	(8.956778e-03 2.682918e-01 -1.677313e-03)	(8.783211e-03 2.669022e-01 -1.613031e-03)	(1.735676e-04 1.389603e-03 -6.428214e-05)
0.303066      	(8.911597e-03 2.683024e-01 -1.416912e-03)	(8.736850e-03 2.669129e-01 -1.353711e-03)	(1.747466e-04 1.389575e-03 -6.320041e-05)
0.306834      	(8.879061e-03 2.683137e-01 -1.127422e-03)	(8.703113e-03 2.669242e-01 -1.065306e-03)	(1.759478e-04 1.389542e-03 -6.211609e-05)
0.310601      	(8.841774e-03 2.683278e-01 -8.438629e-04)	(8.664590e-03 2.669383e-01 -7.828397e-04)	(1.771846e-04 1.389504e-03 -6.102324e-05)
0.314368      	(8.814156e-03 2.683453e-01 -5.421835e-04)	(8.635684e-03 2.669558e-01 -4.822680e-04)	(1.784721e-04 1.389463e-03 -5.991549e-05)
0.318135      	(8.795957e-03 2.683652e-01 -2.348214e-04)	(8.616142e-03 2.669758e-01 -1.760275e-04)	(1.798153e-04 1.389422e-03 -5.879391e-05)
0.321902      	(8.775737e-03 2.683873e-01 7.491588e-05)	(8.594517e-03 2.669979e-01 1.325775e-04)	(1.812208e-04 1.389379e-03 -5.766165e-05)
0.32567       	(8.759640e-03 2.684120e-01 3.834642e-04)	(8.576947e-03 2.670227e-01 4.399910e-04)	(1.826931e-04 1.389334e-03 -5.652681e-05)
0.329437      	(8.743338e-03 2.684386e-01 6.963828e-04)	(8.559105e-03 2.670493e-01 7.517779e-04)	(1.842331e-04 1.389285e-03 -5.539510e-05)
0.333204      	(8.724473e-03 2.684696e-01 1.006071e-03)	(8.538645e-03 2.670804e-01 1.060347e-03)	(1.858279e-04 1.389235e-03 -5.427607e-05)
0.336971      	(8.698085e-03 2.685015e-01 1.308304e-03)	(8.510630e-03 2.671124e-01 1.361480e-03)	(1.874545e-04 1.389182e-03 -5.317577e-05)
0.340738      	(8.666705e-03 2.685333e-01 1.597167e-03)	(8.477603e-03 2.671442e-01 1.649267e-03)	(1.891022e-04 1.389125e-03 -5.210001e-05)
0.344506      	(8.632038e-03 2.685671e-01 1.890006e-03)	(8.441268e-03 2.671780e-01 1.941045e-03)	(1.907700e-04 1.389065e-03 -5.103987e-05)
0.348273      	(8.592100e-03 2.686027e-01 2.170937e-03)	(8.399642e-03 2.672137e-01 2.220926e-03)	(1.924582e-04 1.388998e-03 -4.998806e-05)
0.352062      	(8.543637e-03 2.686359e-01 2.444965e-03)	(8.349472e-03 2.672470e-01 2.493891e-03)	(1.941647e-04 1.388924e-03 -4.892620e-05)
0.355851      	(8.489011e-03 2.686659e-01 2.699181e-03)	(8.293132e-03 2.672770e-01 2.747044e-03)	(1.958791e-04 1.388839e-03 -4.786320e-05)
0.35964       	(8.415436e-03 2.686966e-01 2.923901e-03)	(8.217841e-03 2.673079e-01 2.970693e-03)	(1.975949e-04 1.388743e-03 -4.679199e-05)
0.363429      	(8.350791e-03 2.687244e-01 3.166235e-03)	(8.151475e-03 2.673357e-01 3.211939e-03)	(1.993153e-04 1.388632e-03 -4.570391e-05)
0.367218      	(8.278031e-03 2.687536e-01 3.385116e-03)	(8.077004e-03 2.673651e-01 3.429703e-03)	(2.010266e-04 1.388507e-03 -4.458706e-05)
0.371008      	(8.186202e-03 2.687793e-01 3.570440e-03)	(7.983486e-03 2.673909e-01 3.613884e-03)	(2.027162e-04 1.388362e-03 -4.344431e-05)
0.374797      	(8.101391e-03 2.688017e-01 3.750838e-03)	(7.897001e-03 2.674135e-01 3.793102e-03)	(2.043900e-04 1.388196e-03 -4.226442e-05)
0.378586      	(8.011364e-03 2.688217e-01 3.906365e-03)	(7.805321e-03 2.674337e-01 3.947416e-03)	(2.060432e-04 1.388007e-03 -4.105178e-05)
0.382375      	(7.908672e-03 2.688403e-01 4.044336e-03)	(7.701015e-03 2.674526e-01 4.084138e-03)	(2.076575e-04 1.387797e-03 -3.980191e-05)
0.386164      	(7.808662e-03 2.688546e-01 4.157202e-03)	(7.599450e-03 2.674670e-01 4.195713e-03)	(2.092119e-04 1.387561e-03 -3.851100e-05)
0.389953      	(7.711719e-03 2.688676e-01 4.307762e-03)	(7.501023e-03 2.674803e-01 4.344924e-03)	(2.106960e-04 1.387298e-03 -3.716187e-05)
0.393742      	(7.619952e-03 2.688826e-01 4.450589e-03)	(7.407850e-03 2.674956e-01 4.486345e-03)	(2.121024e-04 1.387008e-03 -3.575549e-05)
0.397531      	(7.507942e-03 2.688965e-01 4.538411e-03)	(7.294517e-03 2.675098e-01 4.572704e-03)	(2.134244e-04 1.386690e-03 -3.429231e-05)
0.40132       	(7.401137e-03 2.689055e-01 4.628282e-03)	(7.186460e-03 2.675191e-01 4.661058e-03)	(2.146770e-04 1.386345e-03 -3.277614e-05)
0.40511       	(7.295833e-03 2.689110e-01 4.713053e-03)	(7.079950e-03 2.675250e-01 4.744267e-03)	(2.158831e-04 1.385970e-03 -3.121442e-05)
0.408899      	(7.182110e-03 2.689186e-01 4.786740e-03)	(6.965068e-03 2.675330e-01 4.816345e-03)	(2.170414e-04 1.385566e-03 -2.960499e-05)
0.412688      	(7.076252e-03 2.689277e-01 4.865143e-03)	(6.858079e-03 2.675425e-01 4.893092e-03)	(2.181733e-04 1.385135e-03 -2.794878e-05)
0.416501      	(6.971496e-03 2.689376e-01 4.939213e-03)	(6.752213e-03 2.675529e-01 4.965465e-03)	(2.192833e-04 1.384675e-03 -2.625186e-05)
0.420315      	(6.869437e-03 2.689437e-01 5.005689e-03)	(6.649079e-03 2.675596e-01 5.030231e-03)	(2.203585e-04 1.384186e-03 -2.454211e-05)
0.424129      	(6.757394e-03 2.689500e-01 5.054367e-03)	(6.536008e-03 2.675663e-01 5.077186e-03)	(2.213859e-04 1.383669e-03 -2.281946e-05)
0.427943      	(6.646965e-03 2.689553e-01 5.087351e-03)	(6.424602e-03 2.675722e-01 5.108444e-03)	(2.223624e-04 1.383121e-03 -2.109394e-05)
0.431756      	(6.538822e-03 2.689612e-01 5.128725e-03)	(6.315522e-03 2.675787e-01 5.148096e-03)	(2.232995e-04 1.382545e-03 -1.937120e-05)
0.43557       	(6.431326e-03 2.689707e-01 5.155405e-03)	(6.207124e-03 2.675887e-01 5.173076e-03)	(2.242019e-04 1.381940e-03 -1.767071e-05)
0.439384      	(6.314617e-03 2.689766e-01 5.158958e-03)	(6.089568e-03 2.675953e-01 5.174957e-03)	(2.250492e-04 1.381306e-03 -1.599972e-05)
0.443197      	(6.194933e-03 2.689855e-01 5.173105e-03)	(5.969070e-03 2.676049e-01 5.187472e-03)	(2.258630e-04 1.380650e-03 -1.436760e-05)
0.447011      	(6.060106e-03 2.689944e-01 5.176985e-03)	(5.833458e-03 2.676144e-01 5.189760e-03)	(2.266487e-04 1.379973e-03 -1.277557e-05)
0.450825      	(5.926156e-03 2.690002e-01 5.141796e-03)	(5.698751e-03 2.676209e-01 5.153046e-03)	(2.274048e-04 1.379275e-03 -1.124902e-05)
0.454639      	(5.791274e-03 2.690075e-01 5.120733e-03)	(5.563136e-03 2.676290e-01 5.130520e-03)	(2.281381e-04 1.378557e-03 -9.787390e-06)
0.458452      	(5.649020e-03 2.690122e-01 5.071367e-03)	(5.420169e-03 2.676343e-01 5.079772e-03)	(2.288508e-04 1.377822e-03 -8.405601e-06)
0.462266      	(5.495683e-03 2.690189e-01 5.009294e-03)	(5.266150e-03 2.676418e-01 5.016393e-03)	(2.295330e-04 1.377075e-03 -7.098656e-06)
0.46608       	(5.339163e-03 2.690213e-01 4.953790e-03)	(5.108966e-03 2.676449e-01 4.959667e-03)	(2.301978e-04 1.376318e-03 -5.876630e-06)
0.469893      	(5.182910e-03 2.690228e-01 4.886148e-03)	(4.952068e-03 2.676472e-01 4.890893e-03)	(2.308429e-04 1.375552e-03 -4.744937e-06)
0.473707      	(5.017136e-03 2.690201e-01 4.807821e-03)	(4.785683e-03 2.676453e-01 4.811533e-03)	(2.314539e-04 1.374775e-03 -3.712995e-06)
0.477521      	(4.838749e-03 2.690160e-01 4.707317e-03)	(4.606732e-03 2.676420e-01 4.710093e-03)	(2.320174e-04 1.373989e-03 -2.776221e-06)
0.481335      	(4.656231e-03 2.690102e-01 4.607130e-03)	(4.423718e-03 2.676370e-01 4.609062e-03)	(2.325122e-04 1.373192e-03 -1.931983e-06)
0.485148      	(4.463467e-03 2.690005e-01 4.491788e-03)	(4.230537e-03 2.676281e-01 4.492971e-03)	(2.329297e-04 1.372383e-03 -1.183633e-06)
0.488962      	(4.259524e-03 2.689878e-01 4.361775e-03)	(4.026281e-03 2.676162e-01 4.362296e-03)	(2.332435e-04 1.371568e-03 -5.213568e-07)
0.492776      	(4.051973e-03 2.689737e-01 4.230287e-03)	(3.818525e-03 2.676029e-01 4.230225e-03)	(2.334478e-04 1.370743e-03 6.225429e-08)
0.49659       	(3.853451e-03 2.689577e-01 4.113236e-03)	(3.619927e-03 2.675878e-01 4.112661e-03)	(2.335239e-04 1.369905e-03 5.744603e-07)
0.500432      	(3.645176e-03 2.689409e-01 3.989202e-03)	(3.411722e-03 2.675719e-01 3.988162e-03)	(2.334535e-04 1.369049e-03 1.039934e-06)
0.504275      	(3.436420e-03 2.689203e-01 3.872676e-03)	(3.203191e-03 2.675522e-01 3.871219e-03)	(2.332294e-04 1.368170e-03 1.456776e-06)
0.508118      	(3.224111e-03 2.688956e-01 3.751110e-03)	(2.991264e-03 2.675284e-01 3.749268e-03)	(2.328470e-04 1.367267e-03 1.842114e-06)
0.511961      	(3.005981e-03 2.688733e-01 3.627020e-03)	(2.773661e-03 2.675069e-01 3.624805e-03)	(2.323203e-04 1.366341e-03 2.214208e-06)
0.515804      	(2.785311e-03 2.688474e-01 3.507259e-03)	(2.553646e-03 2.674820e-01 3.504673e-03)	(2.316655e-04 1.365390e-03 2.585261e-06)
0.519646      	(2.564127e-03 2.688230e-01 3.390602e-03)	(2.333228e-03 2.674586e-01 3.387660e-03)	(2.308982e-04 1.364413e-03 2.942091e-06)
0.523489      	(2.344675e-03 2.687997e-01 3.290235e-03)	(2.114627e-03 2.674363e-01 3.286946e-03)	(2.300477e-04 1.363411e-03 3.288921e-06)
0.527332      	(2.121525e-03 2.687743e-01 3.195404e-03)	(1.892386e-03 2.674119e-01 3.191782e-03)	(2.291383e-04 1.362382e-03 3.622500e-06)
0.531175      	(1.894695e-03 2.687491e-01 3.111893e-03)	(1.666506e-03 2.673878e-01 3.107941e-03)	(2.281891e-04 1.361325e-03 3.951327e-06)
0.535018      	(1.657514e-03 2.687264e-01 3.012653e-03)	(1.430308e-03 2.673662e-01 3.008361e-03)	(2.272060e-04 1.360241e-03 4.291865e-06)
0.538861      	(1.419102e-03 2.686975e-01 2.927626e-03)	(1.192901e-03 2.673384e-01 2.922958e-03)	(2.262012e-04 1.359127e-03 4.667653e-06)
0.542703      	(1.179340e-03 2.686701e-01 2.852050e-03)	(9.541499e-04 2.673121e-01 2.846949e-03)	(2.251902e-04 1.357982e-03 5.101136e-06)
0.546546      	(9.341306e-04 2.686453e-01 2.785485e-03)	(7.099696e-04 2.672884e-01 2.779890e-03)	(2.241610e-04 1.356809e-03 5.595292e-06)
0.550389      	(6.972448e-04 2.686208e-01 2.744852e-03)	(4.741221e-04 2.672652e-01 2.738689e-03)	(2.231227e-04 1.355611e-03 6.162682e-06)
0.554232      	(4.442447e-04 2.685961e-01 2.694425e-03)	(2.221861e-04 2.672417e-01 2.687622e-03)	(2.220585e-04 1.354386e-03 6.803006e-06)
0.558075      	(1.860264e-04 2.685738e-01 2.642810e-03)	(-3.493254e-05 2.672207e-01 2.635297e-03)	(2.209590e-04 1.353141e-03 7.512685e-06)
0.561918      	(-6.904398e-05 2.685549e-01 2.608923e-03)	(-2.888685e-04 2.672030e-01 2.600642e-03)	(2.198246e-04 1.351879e-03 8.281076e-06)
0.56576       	(-3.326271e-04 2.685385e-01 2.579208e-03)	(-5.512845e-04 2.671879e-01 2.570116e-03)	(2.186573e-04 1.350605e-03 9.092060e-06)
0.569603      	(-6.049056e-04 2.685248e-01 2.524917e-03)	(-8.223813e-04 2.671754e-01 2.514996e-03)	(2.174756e-04 1.349323e-03 9.920902e-06)
0.573446      	(-8.922736e-04 2.685107e-01 2.466533e-03)	(-1.108528e-03 2.671627e-01 2.455772e-03)	(2.162548e-04 1.348036e-03 1.076099e-05)
0.577289      	(-1.191793e-03 2.685017e-01 2.411312e-03)	(-1.406785e-03 2.671549e-01 2.399708e-03)	(2.149925e-04 1.346749e-03 1.160409e-05)
0.581132      	(-1.483385e-03 2.684858e-01 2.403693e-03)	(-1.697092e-03 2.671404e-01 2.391245e-03)	(2.137077e-04 1.345465e-03 1.244744e-05)
0.584975      	(-1.798435e-03 2.684805e-01 2.356254e-03)	(-2.010841e-03 2.671363e-01 2.342959e-03)	(2.124064e-04 1.344192e-03 1.329503e-05)
0.588782      	(-2.121601e-03 2.684710e-01 2.296201e-03)	(-2.332689e-03 2.671280e-01 2.282058e-03)	(2.110882e-04 1.342931e-03 1.414248e-05)
0.59259       	(-2.454028e-03 2.684644e-01 2.250391e-03)	(-2.663773e-03 2.671228e-01 2.235392e-03)	(2.097444e-04 1.341682e-03 1.499856e-05)
0.596397      	(-2.803287e-03 2.684584e-01 2.184607e-03)	(-3.011650e-03 2.671179e-01 2.168746e-03)	(2.083626e-04 1.340446e-03 1.586032e-05)
0.600205      	(-3.167686e-03 2.684625e-01 2.090097e-03)	(-3.374619e-03 2.671232e-01 2.073367e-03)	(2.069339e-04 1.339233e-03 1.672945e-05)
0.604012      	(-3.548261e-03 2.684618e-01 2.014124e-03)	(-3.753719e-03 2.671238e-01 1.996523e-03)	(2.054571e-04 1.338042e-03 1.760079e-05)
0.60782       	(-3.932131e-03 2.684537e-01 1.966217e-03)	(-4.136087e-03 2.671168e-01 1.947754e-03)	(2.039559e-04 1.336876e-03 1.846269e-05)
0.611628      	(-4.330831e-03 2.684522e-01 1.884782e-03)	(-4.533266e-03 2.671165e-01 1.865475e-03)	(2.024354e-04 1.335736e-03 1.930634e-05)
0.615435      	(-4.745697e-03 2.684509e-01 1.782446e-03)	(-4.946590e-03 2.671163e-01 1.762332e-03)	(2.008922e-04 1.334621e-03 2.011454e-05)
0.619243      	(-5.160372e-03 2.684474e-01 1.705518e-03)	(-5.359705e-03 2.671138e-01 1.684634e-03)	(1.993331e-04 1.333535e-03 2.088416e-05)
0.62305       	(-5.587549e-03 2.684409e-01 1.640130e-03)	(-5.785312e-03 2.671084e-01 1.618523e-03)	(1.977632e-04 1.332473e-03 2.160696e-05)
0.626858      	(-6.023182e-03 2.684389e-01 1.568965e-03)	(-6.219361e-03 2.671075e-01 1.546689e-03)	(1.961792e-04 1.331433e-03 2.227592e-05)
0.630665      	(-6.475528e-03 2.684325e-01 1.504482e-03)	(-6.670111e-03 2.671021e-01 1.481594e-03)	(1.945831e-04 1.330415e-03 2.288775e-05)
0.634473      	(-6.933086e-03 2.684223e-01 1.455974e-03)	(-7.126057e-03 2.670929e-01 1.432534e-03)	(1.929718e-04 1.329418e-03 2.344021e-05)
0.638281      	(-7.392498e-03 2.684124e-01 1.417881e-03)	(-7.583827e-03 2.670839e-01 1.393957e-03)	(1.913287e-04 1.328441e-03 2.392424e-05)
0.642088      	(-7.852688e-03 2.683984e-01 1.424547e-03)	(-8.042329e-03 2.670709e-01 1.400201e-03)	(1.896402e-04 1.327485e-03 2.434632e-05)
0.645896      	(-8.324969e-03 2.683903e-01 1.402637e-03)	(-8.512848e-03 2.670637e-01 1.377943e-03)	(1.878794e-04 1.326549e-03 2.469437e-05)
0.649703      	(-8.802242e-03 2.683812e-01 1.398990e-03)	(-8.988271e-03 2.670555e-01 1.374019e-03)	(1.860289e-04 1.325631e-03 2.497150e-05)
0.653511      	(-9.268893e-03 2.683635e-01 1.413125e-03)	(-9.452986e-03 2.670388e-01 1.387953e-03)	(1.840930e-04 1.324724e-03 2.517233e-05)
0.657318      	(-9.733815e-03 2.683436e-01 1.431250e-03)	(-9.915899e-03 2.670197e-01 1.405951e-03)	(1.820839e-04 1.323827e-03 2.529906e-05)
0.661126      	(-1.020333e-02 2.683237e-01 1.465409e-03)	(-1.038332e-02 2.670008e-01 1.440051e-03)	(1.799923e-04 1.322936e-03 2.535763e-05)
0.664934      	(-1.067339e-02 2.683028e-01 1.510076e-03)	(-1.085120e-02 2.669808e-01 1.484712e-03)	(1.778028e-04 1.322051e-03 2.536422e-05)
0.668741      	(-1.113567e-02 2.682755e-01 1.559461e-03)	(-1.131117e-02 2.669544e-01 1.534139e-03)	(1.755020e-04 1.321168e-03 2.532108e-05)
0.672549      	(-1.159197e-02 2.682482e-01 1.624271e-03)	(-1.176507e-02 2.669279e-01 1.599038e-03)	(1.731025e-04 1.320287e-03 2.523288e-05)
0.676356      	(-1.204638e-02 2.682215e-01 1.692418e-03)	(-1.221697e-02 2.669021e-01 1.667314e-03)	(1.705919e-04 1.319408e-03 2.510451e-05)
0.680164      	(-1.249826e-02 2.681965e-01 1.759645e-03)	(-1.266623e-02 2.668780e-01 1.734699e-03)	(1.679708e-04 1.318534e-03 2.494527e-05)
0.683971      	(-1.293143e-02 2.681638e-01 1.851520e-03)	(-1.309668e-02 2.668462e-01 1.826756e-03)	(1.652472e-04 1.317665e-03 2.476447e-05)
0.687779      	(-1.335907e-02 2.681334e-01 1.950924e-03)	(-1.352150e-02 2.668166e-01 1.926345e-03)	(1.624355e-04 1.316806e-03 2.457858e-05)
0.691587      	(-1.378129e-02 2.681046e-01 2.061439e-03)	(-1.394083e-02 2.667887e-01 2.037044e-03)	(1.595436e-04 1.315958e-03 2.439486e-05)
0.695394      	(-1.418192e-02 2.680774e-01 2.165806e-03)	(-1.433850e-02 2.667623e-01 2.141582e-03)	(1.565855e-04 1.315119e-03 2.422370e-05)
0.699202      	(-1.457110e-02 2.680476e-01 2.280157e-03)	(-1.472467e-02 2.667333e-01 2.256081e-03)	(1.535755e-04 1.314291e-03 2.407563e-05)
0.703009      	(-1.494581e-02 2.680192e-01 2.400787e-03)	(-1.509634e-02 2.667057e-01 2.376828e-03)	(1.505262e-04 1.313472e-03 2.395952e-05)
0.706817      	(-1.531109e-02 2.679926e-01 2.514066e-03)	(-1.545854e-02 2.666799e-01 2.490178e-03)	(1.474491e-04 1.312661e-03 2.388768e-05)
0.710624      	(-1.565283e-02 2.679669e-01 2.637753e-03)	(-1.579719e-02 2.666550e-01 2.613900e-03)	(1.443625e-04 1.311857e-03 2.385373e-05)
0.714432      	(-1.597978e-02 2.679478e-01 2.774892e-03)	(-1.612107e-02 2.666368e-01 2.751042e-03)	(1.412840e-04 1.311063e-03 2.385001e-05)
0.71824       	(-1.629109e-02 2.679296e-01 2.904998e-03)	(-1.642932e-02 2.666193e-01 2.881124e-03)	(1.382388e-04 1.310280e-03 2.387412e-05)
0.722047      	(-1.657162e-02 2.679143e-01 3.047148e-03)	(-1.670685e-02 2.666048e-01 3.023227e-03)	(1.352352e-04 1.309513e-03 2.392107e-05)
0.725855      	(-1.683643e-02 2.679016e-01 3.193247e-03)	(-1.696872e-02 2.665929e-01 3.169254e-03)	(1.322888e-04 1.308762e-03 2.399328e-05)
0.729662      	(-1.707914e-02 2.678864e-01 3.326174e-03)	(-1.720855e-02 2.665784e-01 3.302082e-03)	(1.294034e-04 1.308029e-03 2.409233e-05)
0.73347       	(-1.730826e-02 2.678720e-01 3.461790e-03)	(-1.743483e-02 2.665647e-01 3.437570e-03)	(1.265664e-04 1.307316e-03 2.421977e-05)
0.737277      	(-1.751670e-02 2.678605e-01 3.581865e-03)	(-1.764047e-02 2.665539e-01 3.557498e-03)	(1.237710e-04 1.306621e-03 2.436674e-05)
0.741085      	(-1.770045e-02 2.678474e-01 3.723384e-03)	(-1.782146e-02 2.665414e-01 3.698844e-03)	(1.210086e-04 1.305952e-03 2.454047e-05)
0.744893      	(-1.785520e-02 2.678333e-01 3.870650e-03)	(-1.797347e-02 2.665280e-01 3.845907e-03)	(1.182753e-04 1.305314e-03 2.474225e-05)
0.7487        	(-1.799121e-02 2.678220e-01 4.019814e-03)	(-1.810676e-02 2.665173e-01 3.994812e-03)	(1.155514e-04 1.304706e-03 2.500190e-05)
0.752508      	(-1.811421e-02 2.678083e-01 4.145956e-03)	(-1.822703e-02 2.665042e-01 4.120650e-03)	(1.128208e-04 1.304133e-03 2.530620e-05)
0.756315      	(-1.821286e-02 2.677949e-01 4.301390e-03)	(-1.832296e-02 2.664913e-01 4.275788e-03)	(1.101038e-04 1.303612e-03 2.560270e-05)
0.760123      	(-1.830711e-02 2.677734e-01 4.440498e-03)	(-1.841451e-02 2.664703e-01 4.414609e-03)	(1.074011e-04 1.303142e-03 2.588909e-05)
0.76393       	(-1.838054e-02 2.677571e-01 4.590315e-03)	(-1.848531e-02 2.664544e-01 4.564138e-03)	(1.047667e-04 1.302690e-03 2.617693e-05)
0.767738      	(-1.843468e-02 2.677391e-01 4.734109e-03)	(-1.853684e-02 2.664368e-01 4.707634e-03)	(1.021629e-04 1.302255e-03 2.647517e-05)
0.771484      	(-1.847038e-02 2.677118e-01 4.859218e-03)	(-1.856999e-02 2.664099e-01 4.832442e-03)	(9.960653e-05 1.301830e-03 2.677608e-05)
0.77523       	(-1.848858e-02 2.677027e-01 5.006015e-03)	(-1.858565e-02 2.664013e-01 4.978914e-03)	(9.707326e-05 1.301413e-03 2.710079e-05)
0.778977      	(-1.849077e-02 2.676916e-01 5.150597e-03)	(-1.858534e-02 2.663906e-01 5.123151e-03)	(9.457546e-05 1.300998e-03 2.744522e-05)