# k  POINT_DATA 7061
# x  y  z  k
3.89618e-26 -0.079 8.5914e-08 1.59502e-07
0 -0.079 0.000550926 1.61004e-07
0 -0.079 0.0011232 2.16355e-07
0 -0.079 0.00172954 2.93951e-07
-2.06795e-25 -0.079 0.0023683 3.20588e-07
0 -0.079 0.00302578 3.24506e-07
1.03398e-25 -0.079 0.00316768 3.24353e-07
-4.1359e-25 -0.079 0.00368597 3.23794e-07
4.1359e-25 -0.079 0.00433887 3.15224e-07
0 -0.079 0.00498192 2.98577e-07
0 -0.079 0.0056169 2.95581e-07
8.27181e-25 -0.079 0.00624674 3.14862e-07
2.71051e-20 -0.079254 0.000278027 1.59502e-07
-2.71051e-20 -0.0792534 0.000845552 1.62532e-07
-5.42101e-20 -0.0792519 0.00144222 2.71662e-07
-2.71051e-20 -0.0792508 0.00206883 3.16825e-07
2.71051e-20 -0.0792502 0.00271551 3.24409e-07
0 -0.079 0.00687383 3.18281e-07
-2.71051e-20 -0.07925 0.00336932 3.24603e-07
-5.42101e-20 -0.0792504 0.00402046 3.22989e-07
-8.27181e-25 -0.079 0.00749963 2.74867e-07
-5.16988e-26 -0.0793284 0.00304732 2.39945e-07
5.42101e-20 -0.0792509 0.00466442 3.0752e-07
0 -0.079 0.00812489 2.09765e-07
2.71051e-20 -0.0792514 0.00530113 2.89691e-07
0 -0.0792518 0.00593244 3.01448e-07
0 -0.079 0.00874998 1.63437e-07
0 -0.0794672 0.00240658 1.98701e-07
0 -0.0795066 8.13086e-08 3.19998e-07
2.06795e-25 -0.0795065 0.000303907 2.65649e-07
-1.57212e-20 -0.0795065 0.000561025 2.19656e-07
2.06795e-25 -0.0795027 0.00114835 1.39939e-07
0 -0.0795014 0.00176809 1.7471e-07
0 -0.0792519 0.00656044 3.28247e-07
0 -0.0795013 0.00233667 1.88086e-07
0 -0.0795013 0.00240938 1.89796e-07
-4.1359e-25 -0.079 0.009375 1.58028e-07
-2.20454e-20 -0.0795014 0.00305867 1.95381e-07
-5.42101e-20 -0.079252 0.00718675 3.08325e-07
1.01336e-20 -0.0795017 0.00370691 2.02536e-07
-2.06795e-25 -0.0796091 6.307e-08 3.52904e-07
1.31859e-20 -0.0795024 0.00434988 2.02974e-07
0 -0.079 0.01 2.05875e-07
0 -0.079252 0.00781225 2.41424e-07
3.05354e-21 -0.079503 0.00498679 1.91251e-07
-2.06795e-25 -0.079 0.0103106 2.60867e-07
5.42101e-20 -0.079252 0.00843743 1.78111e-07
1.7025e-20 -0.0795035 0.00561869 1.82834e-07
0 -0.079 0.010625 3.16548e-07
1.60804e-20 -0.0795039 0.00624726 1.87023e-07
2.71051e-20 -0.0792521 0.00906248 1.48762e-07
0 -0.0797726 0.000282959 4.83216e-07
-2.71051e-20 -0.0797727 0.000861182 7.05373e-08
5.42101e-20 -0.0797711 0.00146986 4.99715e-08
0 -0.079 0.01125 4.96317e-07
-2.71051e-20 -0.079771 0.00210389 5.40688e-08
1.32663e-20 -0.079504 0.00687391 1.85514e-07
-2.71051e-20 -0.0797714 0.00274903 5.92107e-08
-2.71051e-20 -0.0792521 0.0096875 1.67293e-07
0 -0.0797718 0.00339467 7.00166e-08
1.50059e-20 -0.0795041 0.00749961 1.59815e-07
0 -0.0797726 0.00403626 8.9679e-08
0 -0.079 0.011875 7.45337e-07
-2.71051e-20 -0.0797735 0.00467288 8.86842e-08
-1.68838e-20 -0.0795041 0.00812487 1.23175e-07
-2.71051e-20 -0.0792521 0.0103125 2.44457e-07
0 -0.0797742 0.00530505 7.57091e-08
0 -0.079 0.0125 1.05639e-06
-1.92946e-20 -0.0795041 0.00874996 9.87641e-08
-2.71051e-20 -0.0797748 0.00593404 6.04761e-08
0 -0.0792521 0.0109375 3.88639e-07
0 -0.0800346 -3.72863e-10 4.89529e-07
0 -0.079 0.0128484 1.25498e-06
4.1359e-25 -0.0800404 0.000568646 2.83711e-07
0 -0.0797751 0.00656102 5.31983e-08
0 -0.0800382 0.00116603 5.78587e-08
-4.94199e-21 -0.0795041 0.00937499 1.00076e-07
0 -0.0800391 0.00179599 4.32992e-08
1.9387e-26 -0.0800406 0.00227145 4.98427e-08
0 -0.0800412 0.00244118 5.21786e-08
0 -0.079 0.013125 1.41262e-06
-2.71051e-20 -0.0792521 0.0115625 6.03995e-07
2.71051e-20 -0.0797752 0.00718692 4.72763e-08
-2.48611e-20 -0.0800427 0.00308639 7.86512e-08
3.45859e-20 -0.0800437 0.00372651 1.38776e-07
-1.06736e-20 -0.0795041 0.01 1.35841e-07
-5.42101e-20 -0.0797753 0.00781229 3.78647e-08
-1.13965e-21 -0.0800446 0.00436171 1.83211e-07
1.29247e-26 -0.0795041 0.0104105 1.86527e-07
0 -0.0792521 0.0121875 8.86679e-07
-4.1359e-25 -0.079 0.01375 1.78795e-06
2.49791e-20 -0.0800454 0.00499307 1.65015e-07
0 -0.0795041 0.010625 2.13015e-07
2.71051e-20 -0.0797753 0.00843744 3.19836e-08
-1.97324e-20 -0.0800459 0.00562167 1.1191e-07
0 -0.0792521 0.0128125 1.2261e-06
-2.71051e-20 -0.0797753 0.00906248 3.37163e-08
-4.31985e-21 -0.0800463 0.00624853 6.51572e-08
0 -0.0795042 0.01125 3.36275e-07
4.1359e-25 -0.079 0.014375 2.14886e-06
2.71051e-20 -0.0803223 0.000287068 4.96024e-07
0 -0.0803283 0.00087395 7.69089e-08
-1.62618e-20 -0.0800464 0.0068744 4.51868e-08
2.71051e-20 -0.0803303 0.00149111 3.30123e-08
0 -0.0797753 0.00968749 4.83032e-08
-2.71051e-20 -0.0803332 0.00213043 3.56555e-08
0 -0.0792521 0.0134375 1.59914e-06
2.71051e-20 -0.0803356 0.00277473 5.982e-08
5.16988e-26 -0.0795042 0.011875 5.06933e-07
8.05736e-21 -0.0800465 0.00749977 3.87463e-08
-2.71051e-20 -0.080337 0.00341474 1.2659e-07
-4.1359e-25 -0.079 0.015 2.46081e-06
0 -0.0797754 0.0103125 8.06171e-08
2.71051e-20 -0.0803381 0.00404944 2.71758e-07
1.51777e-21 -0.0800465 0.00812492 3.83552e-08
2.71051e-20 -0.080339 0.00468044 2.86501e-07
0 -0.0795042 0.0125 7.21187e-07
0 -0.0792521 0.0140625 1.97676e-06
2.71051e-20 -0.0803397 0.00530896 2.12551e-07
-2.71051e-20 -0.0797754 0.0109375 1.34361e-07
-2.05544e-20 -0.0800466 0.00874998 4.71326e-08
0 -0.079 0.015625 2.69751e-06
-2.71051e-20 -0.0803402 0.00593584 1.00774e-07
0 -0.0795042 0.0130673 9.45746e-07
6.46235e-27 -0.0795042 0.013125 9.68568e-07
3.14335e-20 -0.0800466 0.00937499 7.21082e-08
0 -0.0805982 4.55363e-09 4.56923e-07
0 -0.0792521 0.0146875 2.32097e-06
-2.71051e-20 -0.0803404 0.00656179 4.65458e-08
2.71051e-20 -0.0797754 0.0115625 2.11989e-07
0 -0.0806135 0.000576473 2.67448e-07
0 -0.0806183 0.00118217 5.53742e-08
0 -0.0806237 0.00181858 3.9934e-08
0 -0.079 0.01625 2.84945e-06
2.71051e-20 -0.0803405 0.00718721 3.34917e-08
-1.61559e-27 -0.0806282 0.00243043 6.69874e-08
0 -0.0806285 0.00246498 6.8515e-08
1.83129e-20 -0.0800466 0.01 1.21537e-07
9.72501e-21 -0.0795042 0.01375 1.23209e-06
2.09896e-20 -0.0806311 0.00310603 1.6085e-07
-2.71051e-20 -0.0797754 0.0121875 3.15953e-07
-4.1359e-25 -0.079 0.0165368 2.88264e-06
-2.71051e-20 -0.0792521 0.0153125 2.60066e-06
-3.22479e-20 -0.0806325 0.00373992 3.69645e-07
0 -0.0803405 0.00781239 3.61745e-08
-6.46235e-27 -0.0800232 0.010625 2.04334e-07
3.90328e-20 -0.0800466 0.010625 2.03943e-07
-1.58698e-20 -0.0806333 0.0043697 5.27156e-07
-3.23117e-27 -0.0800466 0.0107289 2.24664e-07
0 -0.0797049 0.013125 9.96344e-07
4.1359e-25 -0.079 0.016875 2.92178e-06
2.71051e-20 -0.0803406 0.00843746 4.75611e-08
-1.79369e-21 -0.0806339 0.00499735 4.66474e-07
-2.75031e-20 -0.0795042 0.014375 1.49355e-06
2.71051e-20 -0.0797754 0.0128125 4.43198e-07
0 -0.080825 5.74177e-10 4.47942e-07
-2.25055e-21 -0.0806343 0.00562377 2.728e-07
0 -0.0800466 0.01125 3.28602e-07
0 -0.0792521 0.0159375 2.79436e-06
2.71051e-20 -0.0803406 0.00906249 7.59437e-08
3.59812e-20 -0.0806345 0.00624947 1.07671e-07
2.71051e-20 -0.0797754 0.0134375 5.88854e-07
-1.04078e-20 -0.0795042 0.015 1.73745e-06
0 -0.0809079 0.000289884 4.16654e-07
4.1359e-25 -0.079 0.0175 2.92411e-06
-2.71051e-20 -0.0803406 0.0096875 1.31939e-07
6.46235e-27 -0.0800466 0.011875 5.05286e-07
2.71051e-20 -0.0809209 0.000883698 7.2771e-08
-7.28943e-21 -0.0806346 0.00687478 5.26304e-08
0 -0.0809342 0.000579086 2.60988e-07
0 -0.0809282 0.00150678 3.82302e-08
5.42101e-20 -0.0809342 0.00214884 5.32054e-08
2.71051e-20 -0.0792521 0.0165625 2.90455e-06
4.17938e-21 -0.0806346 0.00749992 5.44356e-08
-5.42101e-20 -0.080938 0.00279164 1.26119e-07
0 -0.079 0.0178786 2.8828e-06
-2.71051e-20 -0.0803406 0.0103125 2.27987e-07
-2.71051e-20 -0.0797754 0.0140625 7.42357e-07
-2.71051e-20 -0.0809399 0.0034273 3.32469e-07
0 -0.0800466 0.0125 7.43071e-07
3.41429e-21 -0.0795042 0.015625 1.94701e-06
0 -0.0809409 0.00405742 7.51527e-07
-4.41813e-21 -0.0806346 0.00812497 8.02208e-08
0 -0.079 0.018125 2.85591e-06
0 -0.0809416 0.00468493 8.04817e-07
0 -0.0803406 0.0109375 3.77371e-07
-2.71051e-20 -0.0792521 0.0171875 2.93902e-06
2.58494e-26 -0.0810975 0.00119034 5.86926e-08
6.46493e-21 -0.0806346 0.00874999 1.32331e-07
-6.46235e-27 -0.0800466 0.013125 1.04363e-06
2.71051e-20 -0.080942 0.00531125 5.67625e-07
-2.71051e-20 -0.0797754 0.0146875 9.09068e-07
2.33329e-20 -0.0795042 0.01625 2.11348e-06
-2.71051e-20 -0.0809422 0.00593694 2.1343e-07
-6.46235e-26 -0.0795042 0.0163268 2.12906e-06
0 -0.0803406 0.0115625 5.98044e-07
-1.6484e-20 -0.0806346 0.009375 2.26705e-07
0 -0.0811445 0.00247654 1.1467e-07
-1.61559e-27 -0.0800204 0.01375 1.38879e-06
4.1359e-25 -0.079 0.01875 2.7236e-06
0 -0.0811987 6.05348e-09 4.33145e-07
0 -0.0809424 0.00656226 7.09061e-08
0 -0.0800466 0.01375 1.39673e-06
1.13684e-20 -0.0812193 0.00058141 2.55247e-07
-2.71051e-20 -0.0792521 0.0178125 2.90921e-06
0 -0.0797754 0.0153125 1.09145e-06
2.49301e-20 -0.0812305 0.00119261 5.96133e-08
1.61559e-27 -0.0800466 0.0138832 1.4787e-06
-2.47833e-20 -0.0806346 0.01 3.87893e-07
0 -0.0812385 0.00177788 5.66333e-08
-2.71051e-20 -0.0803406 0.0121875 9.0659e-07
0 -0.0812393 0.00183257 5.63548e-08
-2.71051e-20 -0.0809424 0.00718741 5.99426e-08
0 -0.0795042 0.016875 2.24022e-06
0 -0.0812453 0.0024788 1.23685e-07
0 -0.0812455 0.00251508 1.36419e-07
3.23117e-27 -0.0812481 0.00311668 3.47561e-07
0 -0.0809424 0.00781246 8.87009e-08
6.46235e-27 -0.0800466 0.014375 1.78127e-06
3.46873e-22 -0.0806346 0.010625 6.35149e-07
1.93434e-21 -0.0812492 0.0037467 8.1694e-07
0 -0.079 0.019375 2.55111e-06
2.71051e-20 -0.0797754 0.0159375 1.27287e-06
2.71051e-20 -0.0803406 0.0128125 1.32376e-06
-8.98331e-22 -0.0812497 0.00437348 1.11942e-06
-3.63507e-27 -0.0805866 0.01125 9.24148e-07
0 -0.0792521 0.0184375 2.80261e-06
-2.71051e-20 -0.0809424 0.00843749 1.49563e-07
0 -0.0813716 0.00183379 6.22395e-08
3.27682e-20 -0.08125 0.00499929 8.80743e-07
-1.03398e-25 -0.0795041 0.0175 2.3271e-06
1.4188e-20 -0.0806346 0.01125 9.77094e-07
-1.00974e-28 -0.0813987 0.00248015 1.44035e-07
-1.0671e-20 -0.0800466 0.015 2.17126e-06
6.47292e-21 -0.0812501 0.00562469 4.3027e-07
5.42101e-20 -0.0809424 0.0090625 2.58316e-07
4.03897e-28 -0.0806346 0.0114856 1.14159e-06
0 -0.0803406 0.0134375 1.84368e-06
-3.23117e-27 -0.0798284 0.01625 2.6004e-06
0 -0.0797754 0.0165625 1.45399e-06
2.02756e-20 -0.0812502 0.00624987 1.56749e-07
0 -0.079 0.02 2.35668e-06
1.55096e-25 -0.0794513 0.018125 2.4199e-06
-8.07794e-28 -0.0806346 0.011875 1.41346e-06
0 -0.0792521 0.0190625 2.64459e-06
0 -0.0809424 0.0096875 4.44212e-07
5.42101e-20 -0.0815221 0.000290974 4.49988e-07
-1.79118e-21 -0.0812502 0.00687495 9.81512e-08
2.71051e-20 -0.0815381 0.000888595 7.56548e-08
-2.58494e-26 -0.0795042 0.018125 2.36876e-06
-3.78018e-20 -0.0800466 0.015625 2.55616e-06
2.71051e-20 -0.0803406 0.0140625 2.44668e-06
-2.71051e-20 -0.0815484 0.0015151 5.1537e-08
5.42101e-20 -0.0815556 0.00215845 8.26967e-08
1.07515e-20 -0.0812502 0.00749998 1.36189e-07
-2.71051e-20 -0.0809424 0.0103125 7.53518e-07
0 -0.0806346 0.0125 1.93758e-06
-2.71051e-20 -0.0797754 0.0171875 1.63726e-06
2.71051e-20 -0.0815595 0.00280008 2.32457e-07
0 -0.0795042 0.0185135 2.36881e-06
2.71051e-20 -0.0815612 0.00343325 6.98246e-07
-6.46235e-27 -0.0800466 0.0160256 2.79458e-06
0 -0.079 0.020625 2.1537e-06
1.26305e-20 -0.0812502 0.00812499 2.30702e-07
5.42101e-20 -0.0792521 0.0196875 2.45763e-06
-2.71051e-20 -0.0815618 0.00406097 1.48529e-06
-2.71051e-20 -0.0803406 0.0146875 3.07225e-06
0 -0.0809424 0.0109375 1.19145e-06
-6.46235e-27 -0.0800466 0.01625 2.92817e-06
0 -0.0795042 0.01875 2.36884e-06
0 -0.0806346 0.013125 2.51937e-06
0 -0.0815621 0.00468683 1.43805e-06
-3.47448e-22 -0.0812502 0.00875 3.892e-07
-2.71051e-20 -0.0815623 0.00531219 7.14066e-07
0 -0.0797754 0.0178125 1.79991e-06
-2.71051e-20 -0.0809424 0.0115625 1.75583e-06
0 -0.0815624 0.00593736 2.26505e-07
2.71051e-20 -0.0803406 0.0153125 3.66777e-06
-4.25134e-20 -0.0812502 0.009375 6.28203e-07
0 -0.0806346 0.01375 3.10904e-06
2.58494e-26 -0.0800466 0.016875 3.28626e-06
0 -0.079 0.02125 1.95608e-06
-2.71051e-20 -0.0792521 0.0203125 2.25573e-06
-4.1359e-25 -0.0818256 2.85353e-09 4.58892e-07
2.71051e-20 -0.0815624 0.00656245 1.16327e-07
5.1523e-22 -0.0795042 0.019375 2.3392e-06
-2.58453e-21 -0.0818444 0.000583063 2.72502e-07
2.71051e-20 -0.0809424 0.0121875 2.41272e-06
3.25814e-20 -0.0812502 0.01 9.68771e-07
-2.82443e-20 -0.0818572 0.00119679 7.39316e-08
0 -0.0806346 0.0141611 3.48268e-06
-2.71051e-20 -0.0797754 0.0184375 1.9447e-06
0 -0.0815624 0.00718748 1.45732e-07
6.46235e-27 -0.0818662 0.00183835 8.42342e-08
9.19561e-21 -0.0806346 0.014375 3.67704e-06
0 -0.0803406 0.0159375 4.25764e-06
2.87476e-20 -0.0818715 0.00248433 2.06749e-07
-7.79045e-21 -0.0818737 0.0031207 6.48503e-07
0 -0.0815624 0.00781249 2.50956e-07
0 -0.0800466 0.0175 3.62805e-06
2.76504e-20 -0.0812502 0.010625 1.41627e-06
0 -0.0809424 0.0128125 3.13131e-06
-2.63996e-20 -0.0818743 0.00374909 1.44876e-06
0 -0.0792521 0.0209375 2.05167e-06
0 -0.079 0.021875 1.77653e-06
-1.79896e-20 -0.0795042 0.02 2.28818e-06
-1.04875e-20 -0.0818745 0.00437472 1.72535e-06
2.71051e-20 -0.0815624 0.0084375 4.34629e-07
-4.03897e-28 -0.0811347 0.011875 2.30538e-06
6.46235e-27 -0.0798282 0.01875 3.49259e-06
-1.61559e-20 -0.0806346 0.015 4.21649e-06
2.71051e-20 -0.0797754 0.0190625 2.06988e-06
-1.94913e-20 -0.0812502 0.01125 1.9439e-06
1.06144e-20 -0.0818746 0.00499988 1.10077e-06
2.71051e-20 -0.0803406 0.0165625 4.80229e-06
0 -0.0809424 0.0134375 3.80612e-06
0 -0.0815624 0.0090625 7.16026e-07
-1.05933e-20 -0.0818746 0.00562495 4.48934e-07
-2.58494e-26 -0.0800466 0.018125 3.94846e-06
4.68695e-21 -0.0818746 0.00624998 2.00335e-07
2.11536e-20 -0.0812502 0.011875 2.51144e-06
4.03897e-28 -0.0820795 0.00248483 2.4451e-07
5.42101e-20 -0.0792521 0.0215625 1.86049e-06
3.04943e-20 -0.0806346 0.015625 4.74014e-06
-2.71051e-20 -0.0815624 0.0096875 1.09685e-06
-2.3959e-20 -0.0795042 0.020625 2.22368e-06
1.00974e-28 -0.0812502 0.0120364 2.65605e-06
4.1359e-25 -0.079 0.0225 1.62225e-06
2.71051e-20 -0.0821529 0.000291161 4.6788e-07
2.71051e-20 -0.0809424 0.0140625 4.36788e-06
-2.71051e-20 -0.0803406 0.0171875 5.33388e-06
-1.37183e-20 -0.0818746 0.00687499 2.05596e-07
0 -0.0797754 0.0196875 2.17657e-06
5.42101e-20 -0.0821667 0.00089009 9.13337e-08
0 -0.0806346 0.0158836 4.94759e-06
-2.71051e-20 -0.0821764 0.00151811 7.70402e-08
0 -0.0812502 0.0125 3.0715e-06
-2.71051e-20 -0.0821826 0.00216199 1.25718e-07
-2.06795e-25 -0.0822113 2.26144e-13 4.5515e-07
-2.71051e-20 -0.0815624 0.0103125 1.58397e-06
0 -0.0800466 0.01875 4.25027e-06
2.79591e-20 -0.0818746 0.0075 3.35758e-07
-2.71051e-20 -0.0821857 0.00280307 3.84761e-07
0 -0.0806346 0.01625 5.24143e-06
0 -0.0821868 0.00343525 1.2747e-06
2.71051e-20 -0.0809424 0.0146875 4.84822e-06
7.55388e-21 -0.0818746 0.008125 5.43656e-07
-2.71051e-20 -0.0821871 0.00406209 2.33412e-06
0 -0.0822699 0.00183944 1.14315e-07
-2.71051e-20 -0.0803406 0.0178125 5.83151e-06
2.71051e-20 -0.0815624 0.0109375 2.14032e-06
3.76138e-20 -0.0795042 0.02125 2.15615e-06
2.71051e-20 -0.0792521 0.0221875 1.69256e-06
0 -0.0812502 0.013125 3.55813e-06
0 -0.0799981 0.019375 4.34626e-06
0 -0.079 0.023125 1.49005e-06
0 -0.0821872 0.00468738 1.64387e-06
-2.71051e-20 -0.0797754 0.0203125 2.26017e-06
-2.46722e-20 -0.0818746 0.00875 8.16771e-07
0 -0.0800466 0.019375 4.54345e-06
-2.71051e-20 -0.0821872 0.00531245 6.07369e-07
-2.71051e-20 -0.0815624 0.0115625 2.6924e-06
-2.71051e-20 -0.0809424 0.0153125 5.30249e-06
1.29247e-26 -0.0806346 0.016875 5.72264e-06
-2.71051e-20 -0.0821872 0.00593748 2.47879e-07
0 -0.0812502 0.01375 3.93043e-06
2.38835e-20 -0.0818746 0.009375 1.16559e-06
1.00974e-28 -0.0823544 0.00312146 9.68383e-07
3.23117e-27 -0.0800466 0.0196607 4.67294e-06
0 -0.0824248 0.000583335 2.79753e-07
0 -0.0803406 0.0184375 6.31594e-06
0 -0.0824396 0.00119784 1.02281e-07
0 -0.079 0.0235965 1.39898e-06
2.71051e-20 -0.0821872 0.00656249 2.10663e-07
-1.11448e-20 -0.0795042 0.021875 2.09503e-06
4.1359e-25 -0.0824642 1.87153e-09 4.52697e-07
0 -0.0815624 0.0121875 3.18883e-06
2.01948e-28 -0.0812502 0.014131 4.10782e-06
0 -0.0792521 0.0228125 1.55193e-06
-2.71051e-20 -0.0797754 0.0209375 2.3298e-06
1.29247e-26 -0.0824772 0.00058336 2.80407e-07
3.29045e-20 -0.0818746 0.01 1.59285e-06
1.03398e-25 -0.079 0.02375 1.36933e-06
3.23117e-27 -0.0824876 0.00119793 1.04619e-07
-5.42101e-20 -0.0809424 0.0159375 5.7554e-06
0 -0.0821872 0.0071875 3.4973e-07
0 -0.0800466 0.02 4.82673e-06
0 -0.0806346 0.0175 6.19479e-06
-1.11715e-20 -0.0812502 0.014375 4.22139e-06
0 -0.0824946 0.00184004 1.31056e-07
-8.07794e-28 -0.0824982 0.00248583 3.20503e-07
-2.71051e-20 -0.0821873 0.0078125 5.96742e-07
0 -0.0824996 0.00312169 1.06496e-06
-1.96955e-20 -0.0818746 0.010625 2.06212e-06
2.71051e-20 -0.0815624 0.0128125 3.55598e-06
2.71051e-20 -0.0803406 0.0190625 6.7768e-06
0 -0.0824998 0.00355979 1.84685e-06
0 -0.0824999 0.00374962 2.18564e-06
1.47172e-20 -0.0824999 0.00437498 2.1495e-06
2.71051e-20 -0.0821873 0.0084375 8.92484e-07
-2.71051e-20 -0.0809424 0.0165625 6.1712e-06
-1.67729e-20 -0.0812502 0.015 4.49648e-06
-3.26415e-20 -0.0795042 0.0225 2.06054e-06
2.71051e-20 -0.0797754 0.0215625 2.39029e-06
5.45921e-21 -0.0818746 0.01125 2.50106e-06
0 -0.0792521 0.0234375 1.42817e-06
0 -0.0806346 0.018125 6.6475e-06
3.49445e-20 -0.0824999 0.00499999 1.07223e-06
2.28807e-20 -0.0800466 0.020625 5.1001e-06
-2.71051e-20 -0.0815624 0.0134375 3.73995e-06
2.58494e-26 -0.079 0.024375 1.24953e-06
-3.36042e-25 -0.079 0.0244069 1.24311e-06
0 -0.0821872 0.0090625 1.22417e-06
2.12023e-20 -0.0824999 0.005625 4.26688e-07
-2.71051e-20 -0.0803406 0.0196875 7.26516e-06
-9.88622e-21 -0.0818746 0.011875 2.84873e-06
-1.31451e-20 -0.0824999 0.00625 2.9585e-07
-1.49056e-20 -0.0812502 0.015625 4.79826e-06
-2.71051e-20 -0.0809424 0.0171875 6.60233e-06
0 -0.0821872 0.0096875 1.62557e-06
0 -0.0815624 0.0140625 3.80633e-06
-4.57392e-21 -0.0824999 0.006875 4.20008e-07
0 -0.0806346 0.01875 7.07581e-06
2.71051e-20 -0.0827889 0.00029129 4.37506e-07
2.52435e-29 -0.0818746 0.0122925 3.01518e-06
0 -0.0812502 0.0159052 4.92868e-06
2.58494e-26 -0.0791259 0.024375 1.5226e-06
1.03398e-25 -0.0793188 0.02375 1.86846e-06
-2.34902e-20 -0.0795042 0.023125 2.0736e-06
1.61559e-27 -0.0803482 0.02 6.45317e-06
5.42101e-20 -0.0827983 0.00089054 1.20811e-07
2.71051e-20 -0.0797754 0.0221875 2.44894e-06
1.53083e-20 -0.0800466 0.02125 5.3637e-06
0 -0.0828054 0.00151904 1.29293e-07
0 -0.0818746 0.0125 3.0979e-06
0 -0.0792521 0.0240625 1.31049e-06
0 -0.0821872 0.0103125 2.06523e-06
-2.71051e-20 -0.0828097 0.00216304 1.92099e-07
-2.5916e-20 -0.0824999 0.0075 6.73254e-07
-5.42101e-20 -0.0828117 0.00280384 5.77275e-07
0 -0.0812502 0.01625 5.08919e-06
8.27181e-25 -0.079 0.025 1.12374e-06
2.71051e-20 -0.0803406 0.0203125 7.72852e-06
-2.71051e-20 -0.0815624 0.0146875 3.8595e-06
0 -0.0809424 0.0178125 7.02934e-06
2.71051e-20 -0.0828123 0.0034357 2.01718e-06
6.24928e-21 -0.0824999 0.008125 9.57312e-07
-5.04871e-29 -0.082822 0.00374965 2.58619e-06
-2.71051e-20 -0.0821872 0.0109375 2.45913e-06
0 -0.0828124 0.00406232 3.11425e-06
0 -0.0818746 0.013125 3.25005e-06
0 -0.0806346 0.019375 7.5176e-06
2.71051e-20 -0.0828124 0.00468749 1.50601e-06
-2.64998e-21 -0.0824999 0.00875 1.25992e-06
2.71051e-20 -0.0797754 0.0228125 2.56548e-06
-1.39319e-20 -0.0795042 0.02375 2.15873e-06
-2.4683e-20 -0.0800466 0.021875 5.60914e-06
0 -0.0828124 0.0053125 5.31769e-07
3.23117e-27 -0.0812502 0.016875 5.37211e-06
0 -0.0815624 0.0153125 3.97025e-06
0 -0.0821873 0.0115625 2.71244e-06
5.42101e-20 -0.0792521 0.0246875 1.18857e-06
-2.71051e-20 -0.0809424 0.0184375 7.43e-06
1.00974e-28 -0.0818746 0.01375 3.31864e-06
0 -0.0803406 0.0209375 8.21471e-06
0 -0.0828125 0.0059375 3.19746e-07
1.59613e-20 -0.0824999 0.009375 1.60692e-06
0 -0.079 0.025625 9.98642e-07
0 -0.0818746 0.0140175 3.33567e-06
-2.71051e-20 -0.0828125 0.0065625 4.05096e-07
3.23117e-27 -0.0806346 0.02 7.99743e-06
2.71051e-20 -0.0821873 0.0121875 2.80117e-06
4.1359e-25 -0.0831036 2.44088e-09 4.76986e-07
6.12758e-22 -0.0824999 0.01 1.99072e-06
0 -0.0815624 0.0159375 4.15806e-06
0 -0.0831107 0.000583608 3.2373e-07
0 -0.0812502 0.0175 5.69299e-06
0 -0.0805237 0.020625 7.86956e-06
-2.71051e-20 -0.0828125 0.0071875 7.14512e-07
0 -0.0831175 0.00119843 1.77816e-07
1.00974e-28 -0.0818746 0.014375 3.35842e-06
1.29247e-26 -0.083122 0.00184061 2.17317e-07
2.71051e-20 -0.0797754 0.0234375 2.77113e-06
6.24669e-21 -0.0800466 0.0225 5.87154e-06
2.71051e-20 -0.0809424 0.0190625 7.796e-06
-4.01296e-21 -0.0795042 0.024375 2.34336e-06
0 -0.0831241 0.00248621 4.63288e-07
0 -0.0821873 0.0128125 2.84535e-06
0 -0.0828124 0.0078125 1.03199e-06
1.51368e-21 -0.0824999 0.010625 2.34947e-06
-8.07794e-28 -0.0831248 0.00312186 1.55607e-06
0 -0.0803406 0.0215625 8.66224e-06
0 -0.0792521 0.0253125 1.0589e-06
0 -0.083125 0.00374968 2.963e-06
2.71051e-20 -0.0815624 0.0165625 4.2639e-06
0 -0.0806346 0.020625 8.51335e-06
-1.52887e-20 -0.0818746 0.015 3.42247e-06
-3.15544e-29 -0.083125 0.00436103 2.50419e-06
1.57772e-30 -0.083125 0.004375 2.49371e-06
0 -0.0828125 0.0084375 1.30799e-06
-8.27181e-25 -0.079 0.02625 9.02326e-07
1.61559e-27 -0.0812502 0.018125 6.02785e-06
3.30905e-20 -0.0824999 0.01125 2.60113e-06
1.13117e-20 -0.083125 0.005 1.02396e-06
-2.71051e-20 -0.0821872 0.0134375 2.85857e-06
0 -0.0809424 0.0196875 8.24698e-06
0 -0.0828125 0.0090625 1.61497e-06
-1.92994e-20 -0.083125 0.005625 4.77989e-07
-2.01175e-20 -0.0800466 0.023125 6.22148e-06
2.71051e-20 -0.0797754 0.0240625 3.15531e-06
-1.10772e-20 -0.0795042 0.025 2.65805e-06
-5.42101e-20 -0.0803406 0.0221875 9.08619e-06
1.43039e-20 -0.0824999 0.011875 2.72332e-06
-2.2057e-20 -0.0818746 0.015625 3.53954e-06
-2.71051e-20 -0.0815624 0.0171875 4.4415e-06
-8.07794e-28 -0.0806023 0.02125 8.85574e-06
-1.92994e-20 -0.083125 0.00625 4.99847e-07
0 -0.0828124 0.0096875 1.96291e-06
-2.71051e-20 -0.0821872 0.0140625 2.86926e-06
-8.07794e-28 -0.0812502 0.01875 6.34623e-06
0 -0.0806346 0.02125 9.05883e-06
-2.71051e-20 -0.0792521 0.0259375 9.3838e-07
-1.52159e-20 -0.083125 0.006875 7.80362e-07
0 -0.0824786 0.0125 2.78631e-06
-5.04871e-29 -0.0818746 0.0160046 3.62129e-06
-2.71051e-20 -0.0834239 0.000291594 5.1634e-07
0 -0.0834291 0.000890967 2.16089e-07
0 -0.0824999 0.0125 2.77533e-06
8.27181e-25 -0.079 0.026875 8.78276e-07
2.71051e-20 -0.0834334 0.00151954 2.45154e-07
8.07794e-28 -0.0806346 0.0214965 9.27598e-06
-2.71051e-20 -0.0828125 0.0103125 2.30912e-06
2.71051e-20 -0.0809424 0.0203125 8.76371e-06
3.15544e-30 -0.0824999 0.012607 2.7814e-06
-2.96572e-21 -0.083125 0.0075 1.11003e-06
2.71051e-20 -0.083436 0.00216346 3.02537e-07
0 -0.0818746 0.01625 3.67413e-06
0 -0.0834371 0.00280405 7.78545e-07
0 -0.0815624 0.0178125 4.68824e-06
2.71051e-20 -0.0821872 0.0146875 2.89812e-06
2.45508e-20 -0.0800466 0.02375 6.76197e-06
5.42101e-20 -0.0797754 0.0246875 3.76091e-06
2.71051e-20 -0.0834374 0.00343577 2.8434e-06
5.42101e-20 -0.0803406 0.0228125 9.54493e-06
-2.94934e-20 -0.083125 0.008125 1.38836e-06
1.61559e-27 -0.0812502 0.019375 6.6907e-06
-5.42101e-20 -0.0828124 0.0109375 2.56437e-06
-1.35223e-20 -0.0795042 0.025625 3.15712e-06
0 -0.0834375 0.00406234 3.87551e-06
-6.31089e-30 -0.0824999 0.013125 2.81079e-06
0 -0.0806346 0.021875 9.60947e-06
-2.71051e-20 -0.0834375 0.0046875 1.47938e-06
-1.72431e-20 -0.083125 0.00875 1.6741e-06
5.42101e-20 -0.0792521 0.0265625 8.66271e-07
0 -0.0818746 0.016875 3.82807e-06
-5.42101e-20 -0.0821872 0.0153125 2.96154e-06
0 -0.0834375 0.0053125 5.78674e-07
0 -0.0809424 0.0209375 9.36232e-06
0 -0.0828125 0.0115625 2.66856e-06
0 -0.0815624 0.0184375 4.95253e-06
0 -0.0824999 0.01375 2.8352e-06
-2.71051e-20 -0.0834375 0.0059375 4.81763e-07
8.27181e-25 -0.079 0.0275 1.01923e-06
7.2573e-21 -0.083125 0.009375 2.0152e-06
0 -0.0824999 0.0138484 2.83952e-06
0 -0.0812502 0.02 7.07879e-06
-9.09221e-21 -0.0800466 0.024375 7.60045e-06
2.71051e-20 -0.0803406 0.0234375 1.01727e-05
0 -0.0797754 0.0253125 4.6825e-06
-2.71051e-20 -0.0834375 0.0065625 7.92769e-07
2.71051e-20 -0.0828125 0.0121875 2.7111e-06
-1.91445e-20 -0.0806346 0.0225 1.01757e-05
5.42101e-20 -0.0821872 0.0159375 3.06781e-06
0 -0.0818746 0.0175 4.04388e-06
-4.96392e-21 -0.083125 0.01 2.38694e-06
-6.49192e-21 -0.0795042 0.02625 3.91251e-06
4.1359e-25 -0.083739 2.96576e-09 8.09157e-07
0 -0.0824999 0.014375 2.86262e-06
0 -0.0837422 0.000583971 5.7187e-07
-2.71051e-20 -0.0834375 0.0071875 1.20904e-06
0 -0.0837459 0.00119887 3.43406e-07
-5.42101e-20 -0.0815624 0.0190625 5.19452e-06
2.71051e-20 -0.0809424 0.0215625 1.00142e-05
0 -0.0837484 0.00184095 3.72315e-07
0 -0.0792521 0.0271875 8.90281e-07
-6.46235e-27 -0.0837496 0.00248638 6.28273e-07
2.71051e-20 -0.0828124 0.0128125 2.74373e-06
1.13985e-20 -0.083125 0.010625 2.69005e-06
2.71051e-20 -0.0834375 0.0078125 1.48457e-06
0 -0.0837499 0.0031219 2.05096e-06
0 -0.0812502 0.020625 7.50715e-06
0 -0.08375 0.00374969 3.8083e-06
2.71051e-20 -0.0821872 0.0165625 3.20623e-06
-1.53687e-20 -0.0824999 0.015 2.90611e-06
1.00974e-28 -0.0818746 0.018125 4.30615e-06
-8.27181e-25 -0.079 0.028125 1.43625e-06
-3.48429e-21 -0.0800466 0.025 8.85891e-06
0 -0.0834375 0.0084375 1.72887e-06
-5.20648e-29 -0.08375 0.00436725 2.98258e-06
-2.32377e-20 -0.08375 0.004375 2.97222e-06
2.71051e-20 -0.0803406 0.0240625 1.11287e-05
7.34432e-21 -0.083125 0.01125 2.85504e-06
-3.16601e-20 -0.0806346 0.023125 1.08015e-05
8.13152e-20 -0.0797754 0.0259375 6.03118e-06
-2.71051e-20 -0.0828125 0.0134375 2.79554e-06
-2.32377e-20 -0.08375 0.005 1.11017e-06
-2.71051e-20 -0.0815624 0.0196875 5.51281e-06
-1.17431e-20 -0.0795042 0.026875 4.95229e-06
0 -0.0834375 0.0090625 2.04454e-06
-2.71051e-20 -0.0809424 0.0221875 1.06967e-05
-2.32377e-20 -0.08375 0.005625 6.38213e-07
2.71051e-20 -0.0821872 0.0171875 3.40015e-06
1.19748e-20 -0.0824999 0.015625 2.98045e-06
1.34839e-20 -0.083125 0.011875 2.92129e-06
4.20678e-20 -0.08375 0.00625 8.1218e-07
0 -0.0812502 0.02125 7.99715e-06
-2.71051e-20 -0.0792521 0.0278125 1.14818e-06
0 -0.0818746 0.01875 4.58426e-06
2.71051e-20 -0.0828124 0.0140625 2.81745e-06
0 -0.0834375 0.0096875 2.43834e-06
0 -0.082891 0.01375 2.97677e-06
0 -0.081134 0.021875 8.72498e-06
4.20678e-20 -0.08375 0.006875 1.23136e-06
0 -0.0803406 0.0246875 1.25531e-05
1.12329e-20 -0.0800466 0.025625 1.06189e-05
-3.15544e-30 -0.0830222 0.013125 2.99477e-06
0 -0.0815624 0.0203125 5.77829e-06
0 -0.0840556 0.000291911 1.10095e-06
2.44803e-20 -0.0806346 0.02375 1.16141e-05
4.20674e-20 -0.083125 0.0125 2.97078e-06
0 -0.0840581 0.000891431 4.4603e-07
0 -0.0824999 0.0161471 3.07617e-06
0 -0.079 0.02875 2.16384e-06
0 -0.0834375 0.0103125 2.83737e-06
-2.71051e-20 -0.0840604 0.00151995 4.66319e-07
-2.71051e-20 -0.0797754 0.0265625 7.92931e-06
0 -0.0824999 0.01625 3.09503e-06
-1.91543e-20 -0.08375 0.0075 1.59122e-06
2.71051e-20 -0.0840618 0.00216369 4.74995e-07
5.42101e-20 -0.0821872 0.0178125 3.64513e-06
0 -0.0809424 0.0228125 1.13999e-05
-2.71051e-20 -0.0828124 0.0146875 2.86566e-06
-2.71051e-20 -0.0840623 0.00280416 9.54159e-07
-1.93473e-20 -0.0795042 0.0275 6.31654e-06
2.71051e-20 -0.0840625 0.00343579 3.61764e-06
0 -0.0818746 0.019375 4.88018e-06
-2.32377e-20 -0.08375 0.008125 1.85795e-06
0 -0.0812502 0.021875 8.51922e-06
2.71051e-20 -0.0834375 0.0109375 3.04931e-06
0 -0.083125 0.013125 3.03099e-06
2.71051e-20 -0.0840625 0.00406235 4.89505e-06
-4.03897e-28 -0.0812502 0.0220194 8.64723e-06
0 -0.0840625 0.0046875 1.63942e-06
-2.71051e-20 -0.0792521 0.0284375 1.72433e-06
-7.93489e-22 -0.08375 0.00875 2.17958e-06
0 -0.0815624 0.0209375 6.10969e-06
0 -0.0824999 0.016875 3.25503e-06
0 -0.0828124 0.0153125 2.89913e-06
0 -0.0821873 0.0184375 3.93821e-06
-2.71051e-20 -0.0840625 0.0053125 7.43205e-07
-2.71051e-20 -0.0803406 0.0253125 1.46587e-05
0 -0.0834375 0.0115625 3.13789e-06
-2.36362e-20 -0.0806346 0.024375 1.27438e-05
8.7524e-21 -0.0800466 0.02625 1.29376e-05
3.18738e-20 -0.083125 0.01375 3.06147e-06
5.42101e-20 -0.0809424 0.0234375 1.2116e-05
-2.71051e-20 -0.0840625 0.0059375 7.49207e-07
9.40053e-21 -0.08375 0.009375 2.63337e-06
5.42101e-20 -0.0797754 0.0271875 1.02791e-05
-4.03897e-28 -0.0818746 0.02 5.16785e-06
0 -0.079 0.029375 3.13444e-06
0 -0.0812502 0.0225 9.07323e-06
0 -0.0840625 0.0065625 1.22498e-06
0 -0.0834375 0.0121875 3.16759e-06
-2.71051e-20 -0.0828125 0.0159375 2.99331e-06
4.02684e-20 -0.0795042 0.028125 7.93552e-06
0 -0.0824999 0.0175 3.46235e-06
5.31712e-21 -0.08375 0.01 3.10765e-06
-4.84789e-21 -0.083125 0.014375 3.0677e-06
0 -0.0815624 0.0215625 6.4865e-06
0 -0.0821872 0.0190625 4.2513e-06
0 -0.0840625 0.0071875 1.69865e-06
0 -0.08437 3.37202e-09 1.51277e-06
2.06795e-25 -0.0843712 0.000584294 1.06238e-06
-1.03398e-25 -0.084373 0.00119921 6.10136e-07
0 -0.0843743 0.00184118 6.01017e-07
-1.29247e-26 -0.0843748 0.00248648 8.09824e-07
5.42101e-20 -0.0792521 0.0290625 2.60335e-06
-5.42101e-20 -0.0834375 0.0128125 3.26067e-06
3.75419e-21 -0.0806346 0.025 1.43249e-05
-8.96031e-21 -0.08375 0.010625 3.41042e-06
-2.71051e-20 -0.0803406 0.0259375 1.73525e-05
2.71051e-20 -0.0840625 0.0078125 1.97263e-06
-8.07794e-28 -0.0818746 0.020625 5.42991e-06
-1.61559e-27 -0.084375 0.00312193 2.43356e-06
-2.08207e-20 -0.0800466 0.026875 1.58099e-05
0 -0.0809424 0.0240625 1.30673e-05
5.42101e-20 -0.0828125 0.0165625 3.11277e-06
0 -0.084375 0.00374969 4.75568e-06
5.91646e-31 -0.0824999 0.0181182 3.70759e-06
-2.66241e-29 -0.0824991 0.018125 3.71041e-06
-1.09585e-20 -0.083125 0.015 3.08122e-06
7.88861e-31 -0.0824999 0.0181651 3.7289e-06
-3.53602e-20 -0.0812502 0.023125 9.66392e-06
0 -0.0797754 0.0278125 1.31512e-05
5.42101e-20 -0.0840625 0.0084375 2.24571e-06
-1.41995e-29 -0.084375 0.00436891 3.78917e-06
-1.57772e-30 -0.084375 0.004375 3.77967e-06
3.28992e-21 -0.08375 0.01125 3.51759e-06
0 -0.079 0.03 4.20529e-06
2.71051e-20 -0.0821872 0.0196875 4.56164e-06
2.71051e-20 -0.0834375 0.0134375 3.32398e-06
3.15544e-30 -0.0829448 0.01625 3.17281e-06
2.77904e-20 -0.084375 0.005 1.37873e-06
-2.71051e-20 -0.0815624 0.0221875 6.8622e-06
-2.11597e-20 -0.0795042 0.02875 9.70491e-06
2.71051e-20 -0.0840625 0.0090625 2.69918e-06
-1.91543e-20 -0.084375 0.005625 8.92699e-07
0 -0.0828124 0.0171875 3.30096e-06
5.37398e-21 -0.083125 0.015625 3.12206e-06
-4.03897e-28 -0.0818746 0.02125 5.70143e-06
-4.8769e-21 -0.08375 0.011875 3.54541e-06
0 -0.0824999 0.01875 4.00068e-06
-1.09875e-20 -0.084375 0.00625 1.17839e-06
-2.63684e-21 -0.0806346 0.025625 1.6484e-05
-2.71051e-20 -0.0834375 0.0140625 3.30889e-06
5.42101e-20 -0.0803406 0.0265625 2.07197e-05
0 -0.0840625 0.0096875 3.35142e-06