# kMean  POINT_DATA 7061
# x  y  z  kMean
3.89618e-26 -0.079 8.5914e-08 1.68476e-05
0 -0.079 0.000550926 1.36731e-05
0 -0.079 0.0011232 1.05836e-05
0 -0.079 0.00172954 1.15425e-05
-2.06795e-25 -0.079 0.0023683 1.33491e-05
0 -0.079 0.00302578 1.52878e-05
1.03398e-25 -0.079 0.00316768 1.57346e-05
-4.1359e-25 -0.079 0.00368597 1.73665e-05
4.1359e-25 -0.079 0.00433887 1.96879e-05
0 -0.079 0.00498192 2.18639e-05
0 -0.079 0.0056169 2.33881e-05
8.27181e-25 -0.079 0.00624674 2.43803e-05
2.71051e-20 -0.079254 0.000278027 1.68476e-05
-2.71051e-20 -0.0792534 0.000845552 1.04441e-05
-5.42101e-20 -0.0792519 0.00144222 1.07269e-05
-2.71051e-20 -0.0792508 0.00206883 1.23796e-05
2.71051e-20 -0.0792502 0.00271551 1.43333e-05
0 -0.079 0.00687383 2.51604e-05
-2.71051e-20 -0.07925 0.00336932 1.62445e-05
-5.42101e-20 -0.0792504 0.00402046 1.84821e-05
-8.27181e-25 -0.079 0.00749963 2.57078e-05
-5.16988e-26 -0.0793284 0.00304732 1.40416e-05
5.42101e-20 -0.0792509 0.00466442 2.08844e-05
0 -0.079 0.00812489 2.60247e-05
2.71051e-20 -0.0792514 0.00530113 2.28371e-05
0 -0.0792518 0.00593244 2.39368e-05
0 -0.079 0.00874998 2.60708e-05
0 -0.0794672 0.00240658 1.10568e-05
0 -0.0795066 8.13086e-08 3.30326e-05
2.06795e-25 -0.0795065 0.000303907 2.67074e-05
-1.57212e-20 -0.0795065 0.000561025 2.13547e-05
2.06795e-25 -0.0795027 0.00114835 8.7704e-06
0 -0.0795014 0.00176809 8.91211e-06
0 -0.0792519 0.00656044 2.48228e-05
0 -0.0795013 0.00233667 1.06652e-05
0 -0.0795013 0.00240938 1.08893e-05
-4.1359e-25 -0.079 0.009375 2.57227e-05
-2.20454e-20 -0.0795014 0.00305867 1.33849e-05
-5.42101e-20 -0.079252 0.00718675 2.54977e-05
1.01336e-20 -0.0795017 0.00370691 1.63382e-05
-2.06795e-25 -0.0796091 6.307e-08 3.58324e-05
1.31859e-20 -0.0795024 0.00434988 1.94246e-05
0 -0.079 0.01 2.51567e-05
0 -0.079252 0.00781225 2.59178e-05
3.05354e-21 -0.079503 0.00498679 2.19854e-05
-2.06795e-25 -0.079 0.0103106 2.4845e-05
5.42101e-20 -0.079252 0.00843743 2.61315e-05
1.7025e-20 -0.0795035 0.00561869 2.34724e-05
0 -0.079 0.010625 2.45293e-05
1.60804e-20 -0.0795039 0.00624726 2.41055e-05
2.71051e-20 -0.0792521 0.00906248 2.60101e-05
0 -0.0797726 0.000282959 4.9492e-05
-2.71051e-20 -0.0797727 0.000861182 8.42068e-06
5.42101e-20 -0.0797711 0.00146986 5.3322e-06
0 -0.079 0.01125 2.40296e-05
-2.71051e-20 -0.079771 0.00210389 7.09719e-06
1.32663e-20 -0.079504 0.00687391 2.44271e-05
-2.71051e-20 -0.0797714 0.00274903 9.67129e-06
-2.71051e-20 -0.0792521 0.0096875 2.54353e-05
0 -0.0797718 0.00339467 1.32576e-05
1.50059e-20 -0.0795041 0.00749961 2.45993e-05
0 -0.0797726 0.00403626 1.73515e-05
0 -0.079 0.011875 2.3678e-05
-2.71051e-20 -0.0797735 0.00467288 2.0972e-05
-1.68838e-20 -0.0795041 0.00812487 2.46489e-05
-2.71051e-20 -0.0792521 0.0103125 2.48781e-05
0 -0.0797742 0.00530505 2.32485e-05
0 -0.079 0.0125 2.33033e-05
-1.92946e-20 -0.0795041 0.00874996 2.45502e-05
-2.71051e-20 -0.0797748 0.00593404 2.38683e-05
0 -0.0792521 0.0109375 2.41806e-05
0 -0.0800346 -3.72863e-10 4.74577e-05
0 -0.079 0.0128484 2.31289e-05
4.1359e-25 -0.0800404 0.000568646 2.83252e-05
0 -0.0797751 0.00656102 2.37829e-05
0 -0.0800382 0.00116603 7.75733e-06
-4.94199e-21 -0.0795041 0.00937499 2.42155e-05
0 -0.0800391 0.00179599 8.07647e-06
1.9387e-26 -0.0800406 0.00227145 1.05268e-05
0 -0.0800412 0.00244118 1.14014e-05
0 -0.079 0.013125 2.29905e-05
-2.71051e-20 -0.0792521 0.0115625 2.38787e-05
2.71051e-20 -0.0797752 0.00718692 2.35769e-05
-2.48611e-20 -0.0800427 0.00308639 1.55784e-05
3.45859e-20 -0.0800437 0.00372651 2.04603e-05
-1.06736e-20 -0.0795041 0.01 2.37672e-05
-5.42101e-20 -0.0797753 0.00781229 2.33624e-05
-1.13965e-21 -0.0800446 0.00436171 2.57472e-05
1.29247e-26 -0.0795041 0.0104105 2.35276e-05
0 -0.0792521 0.0121875 2.34774e-05
-4.1359e-25 -0.079 0.01375 2.28356e-05
2.49791e-20 -0.0800454 0.00499307 3.04938e-05
0 -0.0795041 0.010625 2.34024e-05
2.71051e-20 -0.0797753 0.00843744 2.3131e-05
-1.97324e-20 -0.0800459 0.00562167 3.34245e-05
0 -0.0792521 0.0128125 2.31293e-05
-2.71051e-20 -0.0797753 0.00906248 2.28695e-05
-4.31985e-21 -0.0800463 0.00624853 3.4173e-05
0 -0.0795042 0.01125 2.33464e-05
4.1359e-25 -0.079 0.014375 2.27533e-05
2.71051e-20 -0.0803223 0.000287068 4.53651e-05
0 -0.0803283 0.00087395 9.24114e-06
-1.62618e-20 -0.0800464 0.0068744 3.40021e-05
2.71051e-20 -0.0803303 0.00149111 8.06611e-06
0 -0.0797753 0.00968749 2.24889e-05
-2.71051e-20 -0.0803332 0.00213043 1.19663e-05
0 -0.0792521 0.0134375 2.28518e-05
2.71051e-20 -0.0803356 0.00277473 1.70347e-05
5.16988e-26 -0.0795042 0.011875 2.35583e-05
8.05736e-21 -0.0800465 0.00749977 3.40064e-05
-2.71051e-20 -0.080337 0.00341474 2.25033e-05
-4.1359e-25 -0.079 0.015 2.25647e-05
0 -0.0797754 0.0103125 2.2213e-05
2.71051e-20 -0.0803381 0.00404944 2.89115e-05
1.51777e-21 -0.0800465 0.00812492 3.41257e-05
2.71051e-20 -0.080339 0.00468044 3.60101e-05
0 -0.0795042 0.0125 2.38034e-05
0 -0.0792521 0.0140625 2.28194e-05
2.71051e-20 -0.0803397 0.00530896 4.20978e-05
-2.71051e-20 -0.0797754 0.0109375 2.22947e-05
-2.05544e-20 -0.0800466 0.00874998 3.40962e-05
0 -0.079 0.015625 2.23998e-05
-2.71051e-20 -0.0803402 0.00593584 4.49228e-05
0 -0.0795042 0.0130673 2.40154e-05
6.46235e-27 -0.0795042 0.013125 2.40369e-05
3.14335e-20 -0.0800466 0.00937499 3.38349e-05
0 -0.0805982 4.55363e-09 4.55964e-05
0 -0.0792521 0.0146875 2.26871e-05
-2.71051e-20 -0.0803404 0.00656179 4.45909e-05
2.71051e-20 -0.0797754 0.0115625 2.30054e-05
0 -0.0806135 0.000576473 2.8118e-05
0 -0.0806183 0.00118217 9.95862e-06
0 -0.0806237 0.00181858 1.17552e-05
0 -0.079 0.01625 2.23618e-05
2.71051e-20 -0.0803405 0.00718721 4.45407e-05
-1.61559e-27 -0.0806282 0.00243043 1.63931e-05
0 -0.0806285 0.00246498 1.6655e-05
1.83129e-20 -0.0800466 0.01 3.35096e-05
9.72501e-21 -0.0795042 0.01375 2.43721e-05
2.09896e-20 -0.0806311 0.00310603 2.23682e-05
-2.71051e-20 -0.0797754 0.0121875 2.38672e-05
-4.1359e-25 -0.079 0.0165368 2.24483e-05
-2.71051e-20 -0.0792521 0.0153125 2.24424e-05
-3.22479e-20 -0.0806325 0.00373992 2.89426e-05
0 -0.0803405 0.00781239 4.50418e-05
-6.46235e-27 -0.0800232 0.010625 3.30056e-05
3.90328e-20 -0.0800466 0.010625 3.34382e-05
-1.58698e-20 -0.0806333 0.0043697 3.66709e-05
-3.23117e-27 -0.0800466 0.0107289 3.35264e-05
0 -0.0797049 0.013125 2.92175e-05
4.1359e-25 -0.079 0.016875 2.25503e-05
2.71051e-20 -0.0803406 0.00843746 4.54831e-05
-1.79369e-21 -0.0806339 0.00499735 4.45989e-05
-2.75031e-20 -0.0795042 0.014375 2.46714e-05
2.71051e-20 -0.0797754 0.0128125 2.47588e-05
0 -0.080825 5.74177e-10 4.69034e-05
-2.25055e-21 -0.0806343 0.00562377 5.06734e-05
0 -0.0800466 0.01125 3.39684e-05
0 -0.0792521 0.0159375 2.23573e-05
2.71051e-20 -0.0803406 0.00906249 4.5425e-05
3.59812e-20 -0.0806345 0.00624947 5.33355e-05
2.71051e-20 -0.0797754 0.0134375 2.54478e-05
-1.04078e-20 -0.0795042 0.015 2.46466e-05
0 -0.0809079 0.000289884 4.58345e-05
4.1359e-25 -0.079 0.0175 2.29728e-05
-2.71051e-20 -0.0803406 0.0096875 4.50833e-05
6.46235e-27 -0.0800466 0.011875 3.51372e-05
2.71051e-20 -0.0809209 0.000883698 1.13886e-05
-7.28943e-21 -0.0806346 0.00687478 5.39512e-05
0 -0.0809342 0.000579086 2.9608e-05
0 -0.0809282 0.00150678 1.1192e-05
5.42101e-20 -0.0809342 0.00214884 1.58788e-05
2.71051e-20 -0.0792521 0.0165625 2.23664e-05
4.17938e-21 -0.0806346 0.00749992 5.46862e-05
-5.42101e-20 -0.080938 0.00279164 2.17652e-05
0 -0.079 0.0178786 2.33065e-05
-2.71051e-20 -0.0803406 0.0103125 4.47806e-05
-2.71051e-20 -0.0797754 0.0140625 2.64279e-05
-2.71051e-20 -0.0809399 0.0034273 2.81847e-05
0 -0.0800466 0.0125 3.66175e-05
3.41429e-21 -0.0795042 0.015625 2.46777e-05
0 -0.0809409 0.00405742 3.62084e-05
-4.41813e-21 -0.0806346 0.00812497 5.55236e-05
0 -0.079 0.018125 2.35236e-05
0 -0.0809416 0.00468493 4.56315e-05
0 -0.0803406 0.0109375 4.49938e-05
-2.71051e-20 -0.0792521 0.0171875 2.27342e-05
2.58494e-26 -0.0810975 0.00119034 1.18465e-05
6.46493e-21 -0.0806346 0.00874999 5.58742e-05
-6.46235e-27 -0.0800466 0.013125 3.80361e-05
2.71051e-20 -0.080942 0.00531125 5.47881e-05
-2.71051e-20 -0.0797754 0.0146875 2.68244e-05
2.33329e-20 -0.0795042 0.01625 2.51491e-05
-2.71051e-20 -0.0809422 0.00593694 6.10774e-05
-6.46235e-26 -0.0795042 0.0163268 2.52612e-05
0 -0.0803406 0.0115625 4.61154e-05
-1.6484e-20 -0.0806346 0.009375 5.58591e-05
0 -0.0811445 0.00247654 1.95157e-05
-1.61559e-27 -0.0800204 0.01375 3.88295e-05
4.1359e-25 -0.079 0.01875 2.42594e-05
0 -0.0811987 6.05348e-09 4.90569e-05
0 -0.0809424 0.00656226 6.29922e-05
0 -0.0800466 0.01375 3.95627e-05
1.13684e-20 -0.0812193 0.00058141 3.09321e-05
-2.71051e-20 -0.0792521 0.0178125 2.32115e-05
0 -0.0797754 0.0153125 2.67122e-05
2.49301e-20 -0.0812305 0.00119261 1.23703e-05
1.61559e-27 -0.0800466 0.0138832 3.99382e-05
-2.47833e-20 -0.0806346 0.01 5.58699e-05
0 -0.0812385 0.00177788 1.44749e-05
-2.71051e-20 -0.0803406 0.0121875 4.81151e-05
0 -0.0812393 0.00183257 1.46716e-05
-2.71051e-20 -0.0809424 0.00718741 6.39492e-05
0 -0.0795042 0.016875 2.60609e-05
0 -0.0812453 0.0024788 2.00744e-05
0 -0.0812455 0.00251508 2.04282e-05
3.23117e-27 -0.0812481 0.00311668 2.62934e-05
0 -0.0809424 0.00781246 6.54994e-05
6.46235e-27 -0.0800466 0.014375 4.13245e-05
3.46873e-22 -0.0806346 0.010625 5.6241e-05
1.93434e-21 -0.0812492 0.0037467 3.35148e-05
0 -0.079 0.019375 2.53094e-05
2.71051e-20 -0.0797754 0.0159375 2.7286e-05
2.71051e-20 -0.0803406 0.0128125 5.03116e-05
-8.98331e-22 -0.0812497 0.00437348 4.25163e-05
-3.63507e-27 -0.0805866 0.01125 5.53182e-05
0 -0.0792521 0.0184375 2.38358e-05
-2.71051e-20 -0.0809424 0.00843749 6.63687e-05
0 -0.0813716 0.00183379 1.51021e-05
3.27682e-20 -0.08125 0.00499929 5.29202e-05
-1.03398e-25 -0.0795041 0.0175 2.7353e-05
1.4188e-20 -0.0806346 0.01125 5.72162e-05
-1.00974e-28 -0.0813987 0.00248015 2.05845e-05
-1.0671e-20 -0.0800466 0.015 4.29376e-05
6.47292e-21 -0.0812501 0.00562469 6.24658e-05
5.42101e-20 -0.0809424 0.0090625 6.65243e-05
4.03897e-28 -0.0806346 0.0114856 5.787e-05
0 -0.0803406 0.0134375 5.22388e-05
-3.23117e-27 -0.0798284 0.01625 3.77118e-05
0 -0.0797754 0.0165625 2.86934e-05
2.02756e-20 -0.0812502 0.00624987 6.8388e-05
0 -0.079 0.02 2.6519e-05
1.55096e-25 -0.0794513 0.018125 2.84457e-05
-8.07794e-28 -0.0806346 0.011875 5.89505e-05
0 -0.0792521 0.0190625 2.46831e-05
0 -0.0809424 0.0096875 6.67141e-05
5.42101e-20 -0.0815221 0.000290974 5.23481e-05
-1.79118e-21 -0.0812502 0.00687495 7.10787e-05
2.71051e-20 -0.0815381 0.000888595 1.3562e-05
-2.58494e-26 -0.0795042 0.018125 2.90229e-05
-3.78018e-20 -0.0800466 0.015625 4.44399e-05
2.71051e-20 -0.0803406 0.0140625 5.47816e-05
-2.71051e-20 -0.0815484 0.0015151 1.33549e-05
5.42101e-20 -0.0815556 0.00215845 1.8275e-05
1.07515e-20 -0.0812502 0.00749998 7.31048e-05
-2.71051e-20 -0.0809424 0.0103125 6.72215e-05
0 -0.0806346 0.0125 6.13995e-05
-2.71051e-20 -0.0797754 0.0171875 3.05837e-05
2.71051e-20 -0.0815595 0.00280008 2.43344e-05
0 -0.0795042 0.0185135 3.03394e-05
2.71051e-20 -0.0815612 0.00343325 3.08435e-05
-6.46235e-27 -0.0800466 0.0160256 4.55477e-05
0 -0.079 0.020625 2.76207e-05
1.26305e-20 -0.0812502 0.00812499 7.4881e-05
5.42101e-20 -0.0792521 0.0196875 2.59357e-05
-2.71051e-20 -0.0815618 0.00406097 3.87932e-05
-2.71051e-20 -0.0803406 0.0146875 5.79602e-05
0 -0.0809424 0.0109375 6.83005e-05
-6.46235e-27 -0.0800466 0.01625 4.61684e-05
0 -0.0795042 0.01875 3.11407e-05
0 -0.0806346 0.013125 6.39863e-05
0 -0.0815621 0.00468683 4.9422e-05
-3.47448e-22 -0.0812502 0.00875 7.57953e-05
-2.71051e-20 -0.0815623 0.00531219 6.18496e-05
0 -0.0797754 0.0178125 3.30514e-05
-2.71051e-20 -0.0809424 0.0115625 6.97963e-05
0 -0.0815624 0.00593736 7.21829e-05
2.71051e-20 -0.0803406 0.0153125 6.10195e-05
-4.25134e-20 -0.0812502 0.009375 7.63437e-05
0 -0.0806346 0.01375 6.66117e-05
2.58494e-26 -0.0800466 0.016875 4.83812e-05
0 -0.079 0.02125 2.86204e-05
-2.71051e-20 -0.0792521 0.0203125 2.71023e-05
-4.1359e-25 -0.0818256 2.85353e-09 6.06747e-05
2.71051e-20 -0.0815624 0.00656245 7.73555e-05
5.1523e-22 -0.0795042 0.019375 3.36848e-05
-2.58453e-21 -0.0818444 0.000583063 3.79917e-05
2.71051e-20 -0.0809424 0.0121875 7.21216e-05
3.25814e-20 -0.0812502 0.01 7.71473e-05
-2.82443e-20 -0.0818572 0.00119679 1.45996e-05
0 -0.0806346 0.0141611 6.88009e-05
-2.71051e-20 -0.0797754 0.0184375 3.62031e-05
0 -0.0815624 0.00718748 8.00878e-05
6.46235e-27 -0.0818662 0.00183835 1.67112e-05
9.19561e-21 -0.0806346 0.014375 6.99397e-05
0 -0.0803406 0.0159375 6.3568e-05
2.87476e-20 -0.0818715 0.00248433 2.21563e-05
-7.79045e-21 -0.0818737 0.0031207 2.85214e-05
0 -0.0815624 0.00781249 8.29607e-05
0 -0.0800466 0.0175 5.13276e-05
2.76504e-20 -0.0812502 0.010625 7.83343e-05
0 -0.0809424 0.0128125 7.54063e-05
-2.63996e-20 -0.0818743 0.00374909 3.58967e-05
0 -0.0792521 0.0209375 2.81391e-05
0 -0.079 0.021875 2.96133e-05
-1.79896e-20 -0.0795042 0.02 3.6414e-05
-1.04875e-20 -0.0818745 0.00437472 4.52922e-05
2.71051e-20 -0.0815624 0.0084375 8.4779e-05
-4.03897e-28 -0.0811347 0.011875 7.73589e-05
6.46235e-27 -0.0798282 0.01875 4.81378e-05
-1.61559e-20 -0.0806346 0.015 7.39474e-05
2.71051e-20 -0.0797754 0.0190625 4.01039e-05
-1.94913e-20 -0.0812502 0.01125 7.97906e-05
1.06144e-20 -0.0818746 0.00499988 5.73601e-05
2.71051e-20 -0.0803406 0.0165625 6.59872e-05
0 -0.0809424 0.0134375 7.83605e-05
0 -0.0815624 0.0090625 8.55968e-05
-1.05933e-20 -0.0818746 0.00562495 7.01257e-05
-2.58494e-26 -0.0800466 0.018125 5.51043e-05
4.68695e-21 -0.0818746 0.00624998 7.94821e-05
2.11536e-20 -0.0812502 0.011875 8.1612e-05
4.03897e-28 -0.0820795 0.00248483 2.28717e-05
5.42101e-20 -0.0792521 0.0215625 2.91017e-05
3.04943e-20 -0.0806346 0.015625 7.80375e-05
-2.71051e-20 -0.0815624 0.0096875 8.66307e-05
-2.3959e-20 -0.0795042 0.020625 3.89933e-05
1.00974e-28 -0.0812502 0.0120364 8.22828e-05
4.1359e-25 -0.079 0.0225 3.06513e-05
2.71051e-20 -0.0821529 0.000291161 6.90796e-05
2.71051e-20 -0.0809424 0.0140625 8.14495e-05
-2.71051e-20 -0.0803406 0.0171875 6.91475e-05
-1.37183e-20 -0.0818746 0.00687499 8.46163e-05
0 -0.0797754 0.0196875 4.43368e-05
5.42101e-20 -0.0821667 0.00089009 1.62409e-05
0 -0.0806346 0.0158836 7.95169e-05
-2.71051e-20 -0.0821764 0.00151811 1.52299e-05
0 -0.0812502 0.0125 8.42101e-05
-2.71051e-20 -0.0821826 0.00216199 1.99809e-05
-2.06795e-25 -0.0822113 2.26144e-13 7.40474e-05
-2.71051e-20 -0.0815624 0.0103125 8.81182e-05
0 -0.0800466 0.01875 5.9598e-05
2.79591e-20 -0.0818746 0.0075 8.82867e-05
-2.71051e-20 -0.0821857 0.00280307 2.59846e-05
0 -0.0806346 0.01625 8.16123e-05
0 -0.0821868 0.00343525 3.28796e-05
2.71051e-20 -0.0809424 0.0146875 8.59644e-05
7.55388e-21 -0.0818746 0.008125 9.13898e-05
-2.71051e-20 -0.0821871 0.00406209 4.10472e-05
0 -0.0822699 0.00183944 1.80494e-05
-2.71051e-20 -0.0803406 0.0178125 7.34513e-05
2.71051e-20 -0.0815624 0.0109375 8.97961e-05
3.76138e-20 -0.0795042 0.02125 4.13704e-05
2.71051e-20 -0.0792521 0.0221875 3.01249e-05
0 -0.0812502 0.013125 8.7326e-05
0 -0.0799981 0.019375 6.1872e-05
0 -0.079 0.023125 3.17753e-05
0 -0.0821872 0.00468738 5.18954e-05
-2.71051e-20 -0.0797754 0.0203125 4.86596e-05
-2.46722e-20 -0.0818746 0.00875 9.33876e-05
0 -0.0800466 0.019375 6.46413e-05
-2.71051e-20 -0.0821872 0.00531245 6.62686e-05
-2.71051e-20 -0.0815624 0.0115625 9.13701e-05
-2.71051e-20 -0.0809424 0.0153125 9.12682e-05
1.29247e-26 -0.0806346 0.016875 8.49531e-05
-2.71051e-20 -0.0821872 0.00593748 8.02016e-05
0 -0.0812502 0.01375 9.03505e-05
2.38835e-20 -0.0818746 0.009375 9.48426e-05
1.00974e-28 -0.0823544 0.00312146 3.0573e-05
3.23117e-27 -0.0800466 0.0196607 6.70959e-05
0 -0.0824248 0.000583335 4.97101e-05
0 -0.0803406 0.0184375 7.86805e-05
0 -0.0824396 0.00119784 1.71014e-05
0 -0.079 0.0235965 3.27852e-05
2.71051e-20 -0.0821872 0.00656249 8.81918e-05
-1.11448e-20 -0.0795042 0.021875 4.37397e-05
4.1359e-25 -0.0824642 1.87153e-09 8.28142e-05
0 -0.0815624 0.0121875 9.32599e-05
2.01948e-28 -0.0812502 0.014131 9.24959e-05
0 -0.0792521 0.0228125 3.11777e-05
-2.71051e-20 -0.0797754 0.0209375 5.25071e-05
1.29247e-26 -0.0824772 0.00058336 5.07678e-05
3.29045e-20 -0.0818746 0.01 9.65138e-05
1.03398e-25 -0.079 0.02375 3.3114e-05
3.23117e-27 -0.0824876 0.00119793 1.73078e-05
-5.42101e-20 -0.0809424 0.0159375 9.67549e-05
0 -0.0821872 0.0071875 9.28353e-05
0 -0.0800466 0.02 7.00111e-05
0 -0.0806346 0.0175 8.89936e-05
-1.11715e-20 -0.0812502 0.014375 9.38695e-05
0 -0.0824946 0.00184004 1.87943e-05
-8.07794e-28 -0.0824982 0.00248583 2.43115e-05
-2.71051e-20 -0.0821873 0.0078125 9.72691e-05
0 -0.0824996 0.00312169 3.11924e-05
-1.96955e-20 -0.0818746 0.010625 9.84366e-05
2.71051e-20 -0.0815624 0.0128125 9.61507e-05
2.71051e-20 -0.0803406 0.0190625 8.44202e-05
0 -0.0824998 0.00355979 3.69001e-05
0 -0.0824999 0.00374962 3.93733e-05
1.47172e-20 -0.0824999 0.00437498 4.93316e-05
2.71051e-20 -0.0821873 0.0084375 0.000100557
-2.71051e-20 -0.0809424 0.0165625 0.000100632
-1.67729e-20 -0.0812502 0.015 9.86422e-05
-3.26415e-20 -0.0795042 0.0225 4.62744e-05
2.71051e-20 -0.0797754 0.0215625 5.62214e-05
5.45921e-21 -0.0818746 0.01125 0.000100296
0 -0.0792521 0.0234375 3.23729e-05
0 -0.0806346 0.018125 9.39204e-05
3.49445e-20 -0.0824999 0.00499999 6.20942e-05
2.28807e-20 -0.0800466 0.020625 7.53321e-05
-2.71051e-20 -0.0815624 0.0134375 9.94844e-05
2.58494e-26 -0.079 0.024375 3.48246e-05
-3.36042e-25 -0.079 0.0244069 3.49206e-05
0 -0.0821872 0.0090625 0.000102625
2.12023e-20 -0.0824999 0.005625 7.66365e-05
-2.71051e-20 -0.0803406 0.0196875 9.07661e-05
-9.88622e-21 -0.0818746 0.011875 0.00010206
-1.31451e-20 -0.0824999 0.00625 8.83155e-05
-1.49056e-20 -0.0812502 0.015625 0.000104484
-2.71051e-20 -0.0809424 0.0171875 0.000104555
0 -0.0821872 0.0096875 0.000104526
0 -0.0815624 0.0140625 0.000102206
-4.57392e-21 -0.0824999 0.006875 9.54731e-05
0 -0.0806346 0.01875 9.96061e-05
2.71051e-20 -0.0827889 0.00029129 9.65576e-05
2.52435e-29 -0.0818746 0.0122925 0.000103504
0 -0.0812502 0.0159052 0.000107193
2.58494e-26 -0.0791259 0.024375 4.00626e-05
1.03398e-25 -0.0793188 0.02375 4.51497e-05
-2.34902e-20 -0.0795042 0.023125 4.905e-05
1.61559e-27 -0.0803482 0.02 9.21613e-05
5.42101e-20 -0.0827983 0.00089054 2.01825e-05
2.71051e-20 -0.0797754 0.0221875 6.00511e-05
1.53083e-20 -0.0800466 0.02125 8.05883e-05
0 -0.0828054 0.00151904 1.75412e-05
0 -0.0818746 0.0125 0.000104222
0 -0.0792521 0.0240625 3.3855e-05
0 -0.0821872 0.0103125 0.000106789
-2.71051e-20 -0.0828097 0.00216304 2.24208e-05
-2.5916e-20 -0.0824999 0.0075 0.000100869
-5.42101e-20 -0.0828117 0.00280384 2.88142e-05
0 -0.0812502 0.01625 0.000110526
8.27181e-25 -0.079 0.025 3.67054e-05
2.71051e-20 -0.0803406 0.0203125 9.73953e-05
-2.71051e-20 -0.0815624 0.0146875 0.000105954
0 -0.0809424 0.0178125 0.000109339
2.71051e-20 -0.0828123 0.0034357 3.70504e-05
6.24928e-21 -0.0824999 0.008125 0.000105323
-5.04871e-29 -0.082822 0.00374965 4.24322e-05
-2.71051e-20 -0.0821872 0.0109375 0.000109052
0 -0.0828124 0.00406232 4.64983e-05
0 -0.0818746 0.013125 0.000107189
0 -0.0806346 0.019375 0.000106117
2.71051e-20 -0.0828124 0.00468749 5.78796e-05
-2.64998e-21 -0.0824999 0.00875 0.000108471
2.71051e-20 -0.0797754 0.0228125 6.43412e-05
-1.39319e-20 -0.0795042 0.02375 5.21491e-05
-2.4683e-20 -0.0800466 0.021875 8.62159e-05
0 -0.0828124 0.0053125 7.23308e-05
3.23117e-27 -0.0812502 0.016875 0.000116024
0 -0.0815624 0.0153125 0.000111476
0 -0.0821873 0.0115625 0.000110974
5.42101e-20 -0.0792521 0.0246875 3.57942e-05
-2.71051e-20 -0.0809424 0.0184375 0.000114734
1.00974e-28 -0.0818746 0.01375 0.000110331
0 -0.0803406 0.0209375 0.000103938
0 -0.0828125 0.0059375 8.77434e-05
1.59613e-20 -0.0824999 0.009375 0.000110925
0 -0.079 0.025625 3.86647e-05
0 -0.0818746 0.0140175 0.000111675
-2.71051e-20 -0.0828125 0.0065625 9.7124e-05
3.23117e-27 -0.0806346 0.02 0.000113192
2.71051e-20 -0.0821873 0.0121875 0.000112644
4.1359e-25 -0.0831036 2.44088e-09 0.000113382
6.12758e-22 -0.0824999 0.01 0.000113448
0 -0.0815624 0.0159375 0.000118537
0 -0.0831107 0.000583608 6.84966e-05
0 -0.0812502 0.0175 0.000121203
0 -0.0805237 0.020625 0.000111915
-2.71051e-20 -0.0828125 0.0071875 0.00010374
0 -0.0831175 0.00119843 2.09439e-05
1.00974e-28 -0.0818746 0.014375 0.00011347
1.29247e-26 -0.083122 0.00184061 2.14711e-05
2.71051e-20 -0.0797754 0.0234375 6.89689e-05
6.24669e-21 -0.0800466 0.0225 9.24917e-05
2.71051e-20 -0.0809424 0.0190625 0.000121118
-4.01296e-21 -0.0795042 0.024375 5.58062e-05
0 -0.0831241 0.00248621 2.75692e-05
0 -0.0821873 0.0128125 0.000114843
0 -0.0828124 0.0078125 0.000109632
1.51368e-21 -0.0824999 0.010625 0.00011614
-8.07794e-28 -0.0831248 0.00312186 3.56137e-05
0 -0.0803406 0.0215625 0.000110928
0 -0.0792521 0.0253125 3.76166e-05
0 -0.083125 0.00374968 4.53099e-05
2.71051e-20 -0.0815624 0.0165625 0.000126292
0 -0.0806346 0.020625 0.000120419
-1.52887e-20 -0.0818746 0.015 0.0001177
-3.15544e-29 -0.083125 0.00436103 5.60394e-05
1.57772e-30 -0.083125 0.004375 5.62845e-05
0 -0.0828125 0.0084375 0.000113834
-8.27181e-25 -0.079 0.02625 4.05756e-05
1.61559e-27 -0.0812502 0.018125 0.000126395
3.30905e-20 -0.0824999 0.01125 0.00011866
1.13117e-20 -0.083125 0.005 6.93381e-05
-2.71051e-20 -0.0821872 0.0134375 0.000118287
0 -0.0809424 0.0196875 0.000128706
0 -0.0828125 0.0090625 0.000116865
-1.92994e-20 -0.083125 0.005625 8.41512e-05
-2.01175e-20 -0.0800466 0.023125 9.94487e-05
2.71051e-20 -0.0797754 0.0240625 7.41277e-05
-1.10772e-20 -0.0795042 0.025 5.99015e-05
-5.42101e-20 -0.0803406 0.0221875 0.000118992
1.43039e-20 -0.0824999 0.011875 0.000120793
-2.2057e-20 -0.0818746 0.015625 0.000123575
-2.71051e-20 -0.0815624 0.0171875 0.000132743
-8.07794e-28 -0.0806023 0.02125 0.000125448
-1.92994e-20 -0.083125 0.00625 9.65808e-05
0 -0.0828124 0.0096875 0.000119683
-2.71051e-20 -0.0821872 0.0140625 0.000121355
-8.07794e-28 -0.0812502 0.01875 0.000132014
0 -0.0806346 0.02125 0.000128057
-2.71051e-20 -0.0792521 0.0259375 3.97127e-05
-1.52159e-20 -0.083125 0.006875 0.000105126
0 -0.0824786 0.0125 0.000122147
-5.04871e-29 -0.0818746 0.0160046 0.000127929
-2.71051e-20 -0.0834239 0.000291594 0.000130154
0 -0.0834291 0.000890967 2.57402e-05
0 -0.0824999 0.0125 0.000122779
8.27181e-25 -0.079 0.026875 4.23658e-05
2.71051e-20 -0.0834334 0.00151954 2.02425e-05
8.07794e-28 -0.0806346 0.0214965 0.000131475
-2.71051e-20 -0.0828125 0.0103125 0.000122791
2.71051e-20 -0.0809424 0.0203125 0.000136461
3.15544e-30 -0.0824999 0.012607 0.000123234
-2.96572e-21 -0.083125 0.0075 0.000112024
2.71051e-20 -0.083436 0.00216346 2.56785e-05
0 -0.0818746 0.01625 0.000130743
0 -0.0834371 0.00280405 3.33176e-05
0 -0.0815624 0.0178125 0.000138311
2.71051e-20 -0.0821872 0.0146875 0.000124375
2.45508e-20 -0.0800466 0.02375 0.000107171
5.42101e-20 -0.0797754 0.0246875 8.02502e-05
2.71051e-20 -0.0834374 0.00343577 4.32303e-05
5.42101e-20 -0.0803406 0.0228125 0.000128017
-2.94934e-20 -0.083125 0.008125 0.000117515
1.61559e-27 -0.0812502 0.019375 0.000138661
-5.42101e-20 -0.0828124 0.0109375 0.000125925
-1.35223e-20 -0.0795042 0.025625 6.44276e-05
0 -0.0834375 0.00406234 5.44449e-05
-6.31089e-30 -0.0824999 0.013125 0.000125435
0 -0.0806346 0.021875 0.000136725
-2.71051e-20 -0.0834375 0.0046875 6.63125e-05
-1.72431e-20 -0.083125 0.00875 0.000121432
5.42101e-20 -0.0792521 0.0265625 4.14384e-05
0 -0.0818746 0.016875 0.000138345
-5.42101e-20 -0.0821872 0.0153125 0.000129002
0 -0.0834375 0.0053125 8.08289e-05
0 -0.0809424 0.0209375 0.000144461
0 -0.0828125 0.0115625 0.000128688
0 -0.0815624 0.0184375 0.000143332
0 -0.0824999 0.01375 0.000128893
-2.71051e-20 -0.0834375 0.0059375 9.57012e-05
8.27181e-25 -0.079 0.0275 4.41154e-05
7.2573e-21 -0.083125 0.009375 0.000124619
0 -0.0824999 0.0138484 0.000129436
0 -0.0812502 0.02 0.000146371
-9.09221e-21 -0.0800466 0.024375 0.000116093
2.71051e-20 -0.0803406 0.0234375 0.000138021
0 -0.0797754 0.0253125 8.68319e-05
-2.71051e-20 -0.0834375 0.0065625 0.000105754
2.71051e-20 -0.0828125 0.0121875 0.000130862
-1.91445e-20 -0.0806346 0.0225 0.000146962
5.42101e-20 -0.0821872 0.0159375 0.000135293
0 -0.0818746 0.0175 0.000145402
-4.96392e-21 -0.083125 0.01 0.000127923
-6.49192e-21 -0.0795042 0.02625 6.92978e-05
4.1359e-25 -0.083739 2.96576e-09 0.000139894
0 -0.0824999 0.014375 0.000132344
0 -0.0837422 0.000583971 8.46893e-05
-2.71051e-20 -0.0834375 0.0071875 0.000113886
0 -0.0837459 0.00119887 2.53831e-05
-5.42101e-20 -0.0815624 0.0190625 0.000149003
2.71051e-20 -0.0809424 0.0215625 0.000153503
0 -0.0837484 0.00184095 2.49939e-05
0 -0.0792521 0.0271875 4.32931e-05
-6.46235e-27 -0.0837496 0.00248638 3.19409e-05
2.71051e-20 -0.0828124 0.0128125 0.000132765
1.13985e-20 -0.083125 0.010625 0.0001315
2.71051e-20 -0.0834375 0.0078125 0.000120837
0 -0.0837499 0.0031219 4.11393e-05
0 -0.0812502 0.020625 0.000155138
0 -0.08375 0.00374969 5.23302e-05
2.71051e-20 -0.0821872 0.0165625 0.000142861
-1.53687e-20 -0.0824999 0.015 0.000135993
1.00974e-28 -0.0818746 0.018125 0.000151569
-8.27181e-25 -0.079 0.028125 4.57539e-05
-3.48429e-21 -0.0800466 0.025 0.00012625
0 -0.0834375 0.0084375 0.000125754
-5.20648e-29 -0.08375 0.00436725 6.42669e-05
-2.32377e-20 -0.08375 0.004375 6.44167e-05
2.71051e-20 -0.0803406 0.0240625 0.000149253
7.34432e-21 -0.083125 0.01125 0.000134992
-3.16601e-20 -0.0806346 0.023125 0.000159409
8.13152e-20 -0.0797754 0.0259375 9.45341e-05
-2.71051e-20 -0.0828125 0.0134375 0.000135842
-2.32377e-20 -0.08375 0.005 7.78445e-05
-2.71051e-20 -0.0815624 0.0196875 0.000155947
-1.17431e-20 -0.0795042 0.026875 7.41933e-05
0 -0.0834375 0.0090625 0.000129272
-2.71051e-20 -0.0809424 0.0221875 0.000164113
-2.32377e-20 -0.08375 0.005625 9.2491e-05
2.71051e-20 -0.0821872 0.0171875 0.000151492
1.19748e-20 -0.0824999 0.015625 0.000140751
1.34839e-20 -0.083125 0.011875 0.00013798
4.20678e-20 -0.08375 0.00625 0.000105228
0 -0.0812502 0.02125 0.000165683
-2.71051e-20 -0.0792521 0.0278125 4.49377e-05
0 -0.0818746 0.01875 0.000157401
2.71051e-20 -0.0828124 0.0140625 0.000140084
0 -0.0834375 0.0096875 0.000132654
0 -0.082891 0.01375 0.000139872
0 -0.081134 0.021875 0.000171067
4.20678e-20 -0.08375 0.006875 0.000114926
0 -0.0803406 0.0246875 0.000162585
1.12329e-20 -0.0800466 0.025625 0.000136866
-3.15544e-30 -0.0830222 0.013125 0.000139996
0 -0.0815624 0.0203125 0.000164499
0 -0.0840556 0.000291911 0.000149601
2.44803e-20 -0.0806346 0.02375 0.00017403
4.20674e-20 -0.083125 0.0125 0.000140368
0 -0.0840581 0.000891431 3.16388e-05
0 -0.0824999 0.0161471 0.000145697
0 -0.079 0.02875 4.74181e-05
0 -0.0834375 0.0103125 0.000136561
-2.71051e-20 -0.0840604 0.00151995 2.38126e-05
-2.71051e-20 -0.0797754 0.0265625 0.000102604
0 -0.0824999 0.01625 0.000146671
-1.91543e-20 -0.08375 0.0075 0.00012279
2.71051e-20 -0.0840618 0.00216369 3.02441e-05
5.42101e-20 -0.0821872 0.0178125 0.000159072
0 -0.0809424 0.0228125 0.00017741
-2.71051e-20 -0.0828124 0.0146875 0.00014356
-2.71051e-20 -0.0840623 0.00280416 3.84749e-05
-1.93473e-20 -0.0795042 0.0275 7.8903e-05
2.71051e-20 -0.0840625 0.00343579 4.94886e-05
0 -0.0818746 0.019375 0.000163958
-2.32377e-20 -0.08375 0.008125 0.000128892
0 -0.0812502 0.021875 0.000179056
2.71051e-20 -0.0834375 0.0109375 0.000140719
0 -0.083125 0.013125 0.000142863
2.71051e-20 -0.0840625 0.00406235 6.21405e-05
-4.03897e-28 -0.0812502 0.0220194 0.000182919
0 -0.0840625 0.0046875 7.47667e-05
-2.71051e-20 -0.0792521 0.0284375 4.657e-05
-7.93489e-22 -0.08375 0.00875 0.000133288
0 -0.0815624 0.0209375 0.000175268
0 -0.0824999 0.016875 0.000153581
0 -0.0828124 0.0153125 0.000147031
0 -0.0821873 0.0184375 0.000165574
-2.71051e-20 -0.0840625 0.0053125 8.94699e-05
-2.71051e-20 -0.0803406 0.0253125 0.000177353
0 -0.0834375 0.0115625 0.000144636
-2.36362e-20 -0.0806346 0.024375 0.000189174
8.7524e-21 -0.0800466 0.02625 0.00014703
3.18738e-20 -0.083125 0.01375 0.000146441
5.42101e-20 -0.0809424 0.0234375 0.000194959
-2.71051e-20 -0.0840625 0.0059375 0.000103964
9.40053e-21 -0.08375 0.009375 0.00013693
5.42101e-20 -0.0797754 0.0271875 0.000110654
-4.03897e-28 -0.0818746 0.02 0.000172427
0 -0.079 0.029375 4.91494e-05
0 -0.0812502 0.0225 0.000195773
0 -0.0840625 0.0065625 0.000115491
0 -0.0834375 0.0121875 0.000147732
-2.71051e-20 -0.0828125 0.0159375 0.000151675
4.02684e-20 -0.0795042 0.028125 8.31712e-05
0 -0.0824999 0.0175 0.000161203
5.31712e-21 -0.08375 0.01 0.000140802
-4.84789e-21 -0.083125 0.014375 0.000150651
0 -0.0815624 0.0215625 0.000189659
0 -0.0821872 0.0190625 0.000171707
0 -0.0840625 0.0071875 0.000124575
0 -0.08437 3.37202e-09 0.000152915
2.06795e-25 -0.0843712 0.000584294 9.42917e-05
-1.03398e-25 -0.084373 0.00119921 3.04982e-05
0 -0.0843743 0.00184118 2.93004e-05
-1.29247e-26 -0.0843748 0.00248648 3.64251e-05
5.42101e-20 -0.0792521 0.0290625 4.82661e-05
-5.42101e-20 -0.0834375 0.0128125 0.000150112
3.75419e-21 -0.0806346 0.025 0.000203232
-8.96031e-21 -0.08375 0.010625 0.00014516
-2.71051e-20 -0.0803406 0.0259375 0.000190933
2.71051e-20 -0.0840625 0.0078125 0.000131861
-8.07794e-28 -0.0818746 0.020625 0.000184074
-1.61559e-27 -0.084375 0.00312193 4.58182e-05
-2.08207e-20 -0.0800466 0.026875 0.000156596
0 -0.0809424 0.0240625 0.000214775
5.42101e-20 -0.0828125 0.0165625 0.000156854
0 -0.084375 0.00374969 5.78563e-05
5.91646e-31 -0.0824999 0.0181182 0.000168808
-2.66241e-29 -0.0824991 0.018125 0.000168888
-1.09585e-20 -0.083125 0.015 0.000154371
7.88861e-31 -0.0824999 0.0181651 0.00016938
-3.53602e-20 -0.0812502 0.023125 0.000213931
0 -0.0797754 0.0278125 0.000118057
5.42101e-20 -0.0840625 0.0084375 0.000137115
-1.41995e-29 -0.084375 0.00436891 7.11292e-05
-1.57772e-30 -0.084375 0.004375 7.12597e-05
3.28992e-21 -0.08375 0.01125 0.000149672
0 -0.079 0.03 5.09704e-05
2.71051e-20 -0.0821872 0.0196875 0.000179189
2.71051e-20 -0.0834375 0.0134375 0.000152732
3.15544e-30 -0.0829448 0.01625 0.00015727
2.77904e-20 -0.084375 0.005 8.55422e-05
-2.71051e-20 -0.0815624 0.0221875 0.00020914
-2.11597e-20 -0.0795042 0.02875 8.71088e-05
2.71051e-20 -0.0840625 0.0090625 0.000141009
-1.91543e-20 -0.084375 0.005625 0.000100713
0 -0.0828124 0.0171875 0.000163116
5.37398e-21 -0.083125 0.015625 0.000157802
-4.03897e-28 -0.0818746 0.02125 0.000199815
-4.8769e-21 -0.08375 0.011875 0.000153752
0 -0.0824999 0.01875 0.000176502
-1.09875e-20 -0.084375 0.00625 0.000114533
-2.63684e-21 -0.0806346 0.025625 0.000215833
-2.71051e-20 -0.0834375 0.0140625 0.000157105
5.42101e-20 -0.0803406 0.0265625 0.000202344