# kMean  POINT_DATA 30764
# x  y  z  kMean
0.01 -1.57772e-30 8.31199e-08 2.0963e-06
-0.01 -7.88861e-31 8.31199e-08 6.23946e-05
-0.01 -4.1359e-25 0.000678316 7.86841e-05
0.01 1.29247e-26 0.00067832 2.25854e-06
0.0100335 -7.75482e-26 0.000675741 2.30104e-06
-0.01 -1.65436e-24 0.00137373 8.49727e-05
0.01 -2.06795e-25 0.00137372 2.59412e-06
-0.01 3.30872e-24 0.00208696 8.31857e-05
0.01 0 0.002087 2.85592e-06
0.0101863 -2.06795e-25 0.00133474 2.37278e-06
-0.0102702 0 0.000327905 6.23946e-05
0.0102702 -2.71051e-20 0.000327954 2.09629e-06
-0.0102616 -2.71051e-20 0.000986823 9.51978e-05
0.0102619 2.71051e-20 0.000986956 2.42301e-06
-0.0102382 -5.42101e-20 0.00161862 7.46014e-05
0.0102389 2.71051e-20 0.00161883 2.76767e-06
-0.0105473 0 0.000241058 0.000109155
-0.0105508 0 8.49672e-08 0.000117817
0.0105508 -2.06795e-25 8.59948e-08 3.81132e-06
-0.0105415 -1.37544e-20 0.00063654 9.49406e-05
0.0105418 3.30411e-20 0.00063661 2.946e-06
-0.0105237 1.65436e-24 0.00126378 6.51558e-05
0.0105246 -3.7066e-21 0.00126397 1.97098e-06
-0.0105066 1.32217e-20 0.00172222 6.91474e-05
0.0105082 1.07327e-20 0.00172263 2.26577e-06
-0.0104981 0 0.00202328 9.08027e-05
0.0105003 2.71051e-20 0.00202395 2.9345e-06
-0.0104973 -3.30872e-24 0.00235191 9.99116e-05
0.0105018 -1.65436e-24 0.00235298 2.99288e-06
-0.0108324 5.42101e-20 0.000312949 0.000174195
0.0108326 0 0.000313002 5.55593e-06
-0.0108211 0 0.000935918 5.09518e-05
0.0108219 0 0.000936095 1.77561e-06
-0.0107987 2.71051e-20 0.00152672 3.9639e-05
0.0108006 -2.71051e-20 0.00152718 9.8598e-07
0.0111231 0 1.4102e-08 7.06294e-06
-0.0111231 0 1.1833e-08 0.000200402
-0.0111217 2.06795e-25 0.000543659 0.000138174
-0.0109001 -2.71051e-20 0.00228558 0.000108947
-0.0111215 0 0.000612314 0.000130316
0.011122 2.32467e-20 0.00061238 4.62893e-06
0.0109057 -5.42101e-20 0.00228695 3.0508e-06
-0.0109929 0 0.00190209 6.18182e-05
0.0109964 -1.6355e-20 0.00190279 1.87094e-06
-0.0111 0 0.00123237 4.49992e-05
0.0111015 -6.97231e-21 0.00123258 1.55999e-06
-0.0109856 8.27181e-25 0.00261204 0.000104445
0.0109947 0 0.00261423 2.77961e-06
-0.0114284 2.71051e-20 0.000305075 0.000227332
0.0114286 0 0.000305108 8.61154e-06
-0.0112129 2.93467e-20 0.00232217 8.36145e-05
0.0112195 -3.7018e-20 0.00232367 2.29222e-06
-0.0114246 0 0.00092111 6.68341e-05
0.0114256 0 0.00092126 2.51889e-06
-0.0113817 2.71051e-20 0.0015635 2.29123e-05
0.0113839 2.71051e-20 0.00156383 9.8291e-07
-0.0111731 -8.27181e-25 0.0027119 0.000112138
-0.0114068 0 0.00210155 4.21434e-05
0.011411 2.71051e-20 0.00210244 1.33463e-06
-0.0113382 2.71051e-20 0.00256301 0.000100006
0.0113467 5.42101e-20 0.00256544 2.51219e-06
0.0117295 8.27181e-25 6.31228e-09 1.00572e-05
-0.0117295 0 4.80147e-09 0.000244755
-0.0117405 0 0.000519436 0.000171611
-0.0117423 0 0.00060318 0.000159818
0.0117428 -2.8802e-20 0.000603251 6.26217e-06
-0.0115321 0 0.00238301 8.3965e-05
-0.0117315 0 0.00123297 4.80041e-05
0.0117329 -2.51446e-20 0.00123324 1.73008e-06
-0.0114582 0 0.00286379 0.000123839
0.011472 -6.61744e-24 0.00286721 3.00486e-06
-0.0117202 0 0.00185692 3.26581e-05
0.0117223 -1.95545e-21 0.00185737 1.2246e-06
-0.0116915 1.03398e-25 0.00211241 5.65487e-05
-0.0116585 -1.22998e-20 0.00240709 8.41038e-05
0.0116635 -1.73079e-20 0.00240865 2.20707e-06
-0.0120571 -2.71051e-20 0.000300839 0.000262634
0.0120573 0 0.000300897 1.15407e-05
-0.0120651 -2.71051e-20 0.000916399 7.87003e-05
0.0120657 0 0.000916727 2.2112e-06
-0.012009 0 0.00187022 2.95634e-05
-0.0120608 2.71051e-20 0.00155099 2.22306e-05
0.0120609 -2.71051e-20 0.00155169 1.16018e-06
-0.0118568 -2.71051e-20 0.00273895 0.000147277
0.0118619 2.71051e-20 0.00274195 3.48929e-06
0.012035 -2.71051e-20 0.00219403 1.41406e-06
-0.0120372 0 0.00219395 4.26509e-05
-0.0119121 0 0.00310559 0.00013405
0.0119304 0 0.00311016 3.5363e-06
0.0123683 4.1359e-25 2.71643e-09 1.22623e-05
-0.0123683 4.1359e-25 2.66988e-09 0.000280291
-0.0123892 1.29247e-25 0.000564544 0.00018623
-0.0123904 2.68541e-20 0.00059722 0.000180786
0.0123907 -3.57756e-21 0.000597448 7.29522e-06
-0.0123962 0 0.00122692 4.98568e-05
0.0123962 -2.56881e-20 0.00122803 1.74834e-06
-0.0123949 0 0.00129018 4.75298e-05
0.0123792 -8.31151e-21 0.00188965 1.36337e-06
-0.0123827 -2.48876e-20 0.00188742 2.55592e-05
-0.0125417 -5.16988e-26 0.00059593 0.000184948
0.0123193 -2.34258e-20 0.00260601 2.38877e-06
-0.0123305 3.27564e-22 0.00260668 7.52814e-05
-0.012569 0 0.00122537 4.95284e-05
0.0122774 0 0.00301148 3.58252e-06
-0.0122788 2.71051e-20 0.00300901 0.000121034
-0.0127075 2.71051e-20 0.00029719 0.000298215
0.0127075 0 0.000297361 1.29947e-05
0.0127224 0 0.000910669 2.20223e-06
-0.0127228 0 0.000909514 7.88937e-05
-0.0123477 0 0.00333768 0.000101743
0.0123698 0 0.00334298 3.47557e-06
0.0127185 2.71051e-20 0.0015595 1.40583e-06
-0.0127224 -2.71051e-20 0.00155586 1.87301e-05
0.0126865 0 0.00223766 1.47364e-06
-0.0127017 0 0.00223253 1.83922e-05
0.0125633 -1.3182e-20 0.00303647 2.92002e-06
-0.0125873 3.51717e-21 0.00304271 8.0077e-05
-0.0130258 4.1359e-25 2.56512e-09 0.000317647
0.0130258 0 1.94236e-09 1.29823e-05
0.0127297 2.71051e-20 0.00279908 1.7863e-06
0.0130472 8.45006e-21 0.000592235 7.68201e-06
-0.0130474 -1.70556e-20 0.000591621 0.000198855
-0.0127816 0 0.0028142 3.70187e-05
0.0126842 0 0.00327272 3.37016e-06
0.0130549 -6.2357e-21 0.00122427 1.94322e-06
-0.0130573 -2.05999e-21 0.00122099 4.86001e-05
-0.0127078 2.71051e-20 0.00328029 8.27108e-05
0.0130409 -1.47246e-20 0.00189497 1.66335e-06
-0.0130523 -2.09264e-20 0.00188526 1.779e-05
-0.0127679 -3.30872e-24 0.0035615 7.80255e-05
0.0130294 1.08774e-20 0.00254415 1.86734e-06
0.0127922 0 0.0035676 3.97536e-06
-0.0130668 9.5895e-21 0.00252843 2.34116e-05
0.0129755 2.4468e-20 0.00310441 3.02086e-06
0.0133645 -2.71051e-20 0.000294678 1.29698e-05
-0.0133647 0 0.0002943 0.000337119
0.013377 2.71051e-20 0.000905403 2.36083e-06
-0.0133788 -2.71051e-20 0.000902908 7.63116e-05
-0.0130842 5.05407e-21 0.00316077 5.12592e-05
0.0133744 -5.42101e-20 0.00155542 1.7869e-06
-0.0133828 2.71051e-20 0.00154643 1.94059e-05
-0.013073 5.42101e-20 0.00349728 7.33872e-05
0.0133614 0 0.00222042 1.97743e-06
-0.0133875 2.71051e-20 0.0021975 1.47095e-05
0.0131593 0 0.00342851 4.57369e-06
0.0133331 2.71051e-20 0.0028787 2.23678e-06
-0.0136859 -4.1359e-25 1.99115e-09 0.000353866
0.0136859 0 1.20838e-09 1.33502e-05
-0.0133972 -2.71051e-20 0.00283002 2.225e-05
-0.0131766 3.30872e-24 0.00377904 7.11896e-05
0.0137005 -5.48721e-21 0.000588479 7.97432e-06
-0.0137012 1.14934e-20 0.000587422 0.000217527
0.0132008 -6.61744e-24 0.00378645 4.74937e-06
0.0137066 1.74041e-20 0.00121712 2.27682e-06
-0.0137113 1.59916e-20 0.00121149 5.07621e-05
-0.0133317 1.63285e-20 0.00353346 5.86661e-05
0.0136964 -3.48053e-20 0.00188403 2.16362e-06
-0.0137136 -3.89168e-21 0.00186546 1.99612e-05
-0.0134741 -5.42101e-20 0.00333584 3.40516e-05
0.0136686 1.01933e-20 0.00256373 2.40783e-06
-0.0137152 1.19267e-20 0.00251516 2.2603e-05
-0.0134565 -2.71051e-20 0.0037461 6.90066e-05
0.0136041 1.29173e-20 0.00329192 3.60162e-06
0.0140177 2.71051e-20 0.000293139 1.37283e-05
-0.0140182 2.71051e-20 0.000292601 0.000370517
0.0135422 -2.71051e-20 0.0036961 4.92366e-06
0.0140256 -5.42101e-20 0.000900278 2.63785e-06
-0.0140284 -2.71051e-20 0.000896824 8.11947e-05
-0.0137342 1.02215e-20 0.00311436 3.65944e-05
0.014023 0 0.00154615 2.30496e-06
-0.0140338 0 0.00153371 2.50165e-05
-0.0135654 0 0.00401386 0.000102666
0.0135836 0 0.00402855 4.90502e-06
0.0140057 0 0.00221874 2.5805e-06
-0.0137123 2.46334e-21 0.00361961 7.43293e-05
-0.0140348 -5.42101e-20 0.00218502 2.06719e-05
0.0139704 0 0.00290901 2.84077e-06
-0.0140398 0 0.00281908 3.25992e-05
0.0138292 3.21873e-20 0.00373726 4.34654e-06
-0.0143389 0 2.44464e-09 0.000380167
0.0143389 -2.06795e-25 1.44847e-09 1.49921e-05
0.0143466 -2.56822e-20 0.000586141 9.06704e-06
-0.0143476 -8.67712e-22 0.00058495 0.000234364
0.0143501 2.12546e-20 0.00121019 2.91759e-06
-0.0143553 -8.05881e-22 0.00120417 5.68964e-05
-0.0138945 2.71051e-20 0.00393317 0.000136193
-0.0140375 -2.71051e-20 0.00343143 5.79313e-05
0.0140303 0 0.00350658 3.18389e-06
0.0143403 -5.89904e-21 0.00187312 2.98438e-06
-0.0143565 0 0.00185406 2.44101e-05
0.0139282 -2.71051e-20 0.00399009 4.88648e-06
0.0143175 -4.96474e-21 0.00255235 3.3857e-06
-0.0139239 -6.61744e-24 0.00428422 0.000145067
-0.0143528 9.42903e-21 0.00250721 2.70331e-05
0.0139403 0 0.00429658 5.16828e-06
0.0146631 -5.42101e-20 0.000292462 1.62458e-05
-0.0146635 -2.71051e-20 0.000291927 0.000389739
0.0143152 -4.84066e-21 0.00320649 3.82012e-06
-0.0143427 1.98358e-20 0.00314905 4.3084e-05
0.0146669 0 0.000896444 3.4305e-06
-0.0146697 -2.71051e-20 0.00089329 9.12418e-05
0.014725 -1.03398e-25 3.73197e-16 1.68032e-05
0.0146638 -2.71051e-20 0.00153733 3.27915e-06
-0.014673 0 0.00152674 2.90724e-05
-0.0142998 -2.49858e-20 0.00383371 9.944e-05
0.0146505 2.71051e-20 0.00220325 3.75966e-06
0.0143063 -8.42401e-21 0.0038743 4.82227e-06
0.0148155 1.29247e-26 0.000585312 1.05898e-05
-0.0146709 -5.42101e-20 0.00217815 2.2853e-05
-0.0142437 2.71051e-20 0.00422231 0.000153922
-0.0147463 0 0.00185052 2.57985e-05
0.014255 2.71051e-20 0.00424396 5.44928e-06
0.0148484 -1.29247e-26 0.00120616 3.87253e-06
0.0146399 2.71051e-20 0.00286477 4.333e-06
-0.0147123 5.16988e-26 0.00250555 2.64513e-05
-0.0146627 -5.42101e-20 0.00282903 3.1843e-05
-0.0149819 0 3.19382e-09 0.000389451
0.0149819 2.06795e-25 9.62822e-10 1.8008e-05
-0.0142803 0 0.00455271 0.000161168
0.0149853 -1.27435e-20 0.000585012 1.11415e-05
-0.0149861 1.96592e-20 0.000584127 0.000245557
0.0142938 0 0.00456274 5.44732e-06
0.0149869 0 0.00120504 4.13783e-06
-0.0149906 1.37441e-21 0.00120094 6.54318e-05
0.014925 1.29247e-26 0.00186093 4.29776e-06
-0.0146412 -2.71051e-20 0.00348482 4.91542e-05
0.0146341 2.71051e-20 0.00351739 4.95897e-06
-0.0149904 2.58494e-26 0.00167368 3.7124e-05
0.0149806 1.29247e-26 0.00185977 4.42262e-06
0.0149792 3.87741e-26 0.00193517 4.4757e-06
-0.0149903 -2.58494e-26 0.00184831 2.66673e-05
-0.0145147 1.37312e-21 0.00427467 0.000137315
0.0145233 -1.78406e-20 0.00429208 5.47554e-06
0.0149685 1.03398e-25 0.00252404 4.89025e-06
-0.0149829 0 0.0025043 2.60133e-05
-0.0149776 0 0.00274965 3.01353e-05
-0.0147025 -2.71051e-20 0.0040589 8.83729e-05
0.0147084 0 0.00408023 5.5333e-06
0.0149582 -7.37183e-21 0.00317892 5.26122e-06
-0.0146099 2.71051e-20 0.0045237 0.000168405
-0.0149688 -1.03398e-25 0.00315684 3.69763e-05
0.0153005 0 0.000292235 1.97591e-05
-0.0153009 2.71051e-20 0.000291878 0.000389164
0.0146196 -2.71051e-20 0.00453529 5.44537e-06
0.0153021 0 0.000894041 4.87786e-06
-0.0153039 -2.71051e-20 0.000892113 0.000107651
0.0153002 -2.71051e-20 0.00152928 4.94551e-06
-0.0153052 0 0.00152357 3.26008e-05
-0.0146355 -6.61744e-24 0.0048202 0.000185448
0.0146456 6.61744e-24 0.00482779 5.68845e-06
-0.0149723 2.49378e-20 0.00378401 6.12938e-05
0.0149713 -3.61147e-21 0.00380144 5.60884e-06
0.0152929 2.71051e-20 0.00218496 5.68651e-06
-0.0153015 2.71051e-20 0.00217419 2.21142e-05
0.0152835 0 0.00284024 5.77764e-06
-0.0152919 -2.71051e-20 0.00282667 2.72319e-05
-0.0149633 1.65767e-21 0.00442183 0.00013109
0.014969 -2.689e-20 0.00443194 5.91024e-06
-0.0156169 0 3.92127e-09 0.000377318
0.0156169 -2.06795e-25 1.59541e-09 1.92665e-05
0.0156181 0 0.000584603 1.26103e-05
-0.0156185 -2.68137e-20 0.000584185 0.000249833
0.0156191 -2.58494e-26 0.0012017 6.01615e-06
-0.0156207 -8.07576e-21 0.00119995 7.8701e-05
0.0154665 0 0.00250914 6.06542e-06
-0.0149261 2.71051e-20 0.00477675 0.000202477
0.0152816 0 0.00347878 5.97605e-06
-0.0152852 -2.71051e-20 0.00346631 3.97279e-05
0.0149333 5.42101e-20 0.00478413 5.93137e-06
-0.0156201 0 0.00172314 3.87387e-05
0.0156163 0 0.00184941 6.33754e-06
-0.0156199 0 0.00184524 2.94125e-05
-0.015472 0 0.00314795 3.36094e-05
0.0156092 -2.58494e-26 0.00250487 6.40217e-06
-0.0156138 0 0.00249847 2.45832e-05
-0.0152764 2.71051e-20 0.00409542 6.52002e-05
0.0152785 5.42101e-20 0.00410448 5.97257e-06
0.015608 2.58494e-26 0.00259813 6.39076e-06
-0.0149898 0 0.00508713 0.000228638
0.0149968 0 0.00509235 5.90348e-06
0.0156006 -9.3368e-22 0.00315251 6.32292e-06
-0.0151689 2.0931e-20 0.00482334 0.000191222
-0.0156039 0 0.00314562 3.27266e-05
0.0151743 3.30674e-20 0.00482866 6.16175e-06
-0.0156032 2.58494e-26 0.00318287 3.37098e-05
0.0159322 2.71051e-20 0.000292222 1.87759e-05
-0.0159323 5.42101e-20 0.000292065 0.000365521
0.0159282 1.29247e-26 0.000584568 1.29624e-05
0.0159329 0 0.000892712 6.80435e-06
-0.0159336 2.71051e-20 0.000891952 0.000133105
0.0159836 -1.03398e-25 2.31451e-21 1.87418e-05
-0.0153229 0 0.00461704 0.000115836
0.0159322 5.42101e-20 0.00152399 7.42679e-06
-0.015934 5.42101e-20 0.00152204 4.00854e-05
0.0153273 2.71051e-20 0.00462278 6.68429e-06
-0.015592 2.63953e-20 0.00378396 4.95729e-05
0.0155918 -2.09955e-20 0.0037897 6.32689e-06
0.0159284 -2.71051e-20 0.00217342 7.28181e-06
-0.0159311 0 0.00217013 2.27768e-05
-0.0152682 0 0.00505663 0.000254774
0.0152733 -2.71051e-20 0.00506088 5.87558e-06
-0.0160396 0 0.00184385 3.52916e-05
0.0159217 2.71051e-20 0.00282271 6.85721e-06
-0.0159241 -2.71051e-20 0.00281877 2.62196e-05
-0.0155885 -1.51771e-20 0.00438984 8.90341e-05
0.0155908 1.1468e-20 0.00439405 6.49049e-06
-0.0162467 0 4.50343e-09 0.00034298
0.0162467 0 1.14466e-09 1.83654e-05
0.0162034 -4.84676e-27 0.00120022 8.11667e-06
-0.0153431 6.61744e-24 0.00535315 0.000295095
0.0153477 6.61744e-24 0.00535654 6.55853e-06
0.0162471 -2.58494e-26 0.000584533 1.33244e-05
-0.0162472 -1.19921e-20 0.00058442 0.000244622
0.0159122 0 0.00346529 6.68515e-06
-0.0159131 0 0.00346161 3.76491e-05
0.0162478 -7.61631e-21 0.00120011 8.27629e-06
-0.0162481 2.60955e-21 0.00119968 9.71703e-05
-0.0155338 -1.73873e-20 0.00491869 0.00020779
0.0162477 -6.46235e-27 0.00123764 8.26524e-06
0.0155374 -1.64179e-20 0.00492201 6.58124e-06
0.0162469 0 0.00184409 8.08678e-06
-0.0162477 -2.70651e-20 0.00184316 3.82076e-05
-0.0162472 6.46235e-27 0.00193862 3.69443e-05
-0.015901 0 0.00409355 5.54814e-05
0.0159019 -2.71051e-20 0.00409655 6.67855e-06
0.0162431 0 0.00249417 7.50904e-06
-0.016244 -5.16988e-26 0.00249283 2.96098e-05
0.0162387 0 0.00283727 7.27413e-06
0.0162348 -2.01597e-21 0.0031392 7.06741e-06
-0.0162354 0 0.00313774 3.74693e-05
-0.0156894 5.42101e-20 0.00525034 0.000335367
0.0156925 0 0.00525277 7.24105e-06
-0.0162334 0 0.00321894 3.90051e-05
-0.0158705 2.71051e-20 0.0047214 0.000116252
0.0158727 -2.71051e-20 0.00472386 6.6045e-06
0.0165604 -2.71051e-20 0.000292258 1.79558e-05
-0.0165604 -2.71051e-20 0.000292218 0.000320487
0.0165607 0 0.000892189 9.59639e-06
-0.0165609 -2.71051e-20 0.000892028 0.000156328
0.0165606 2.71051e-20 0.00152156 9.27279e-06
-0.016561 2.71051e-20 0.00152113 5.76792e-05
-0.0162196 3.04857e-21 0.00378044 4.96254e-05
0.0162198 2.77449e-20 0.00378182 6.90825e-06
-0.0156952 -1.32349e-23 0.00561829 0.000324419
0.0156978 0 0.00562028 7.34556e-06
0.0165588 2.71051e-20 0.00216766 8.35681e-06
-0.0165593 0 0.00216703 3.21511e-05
-0.0161896 -2.80348e-20 0.00442818 7.57517e-05
0.0161906 -4.58093e-21 0.00442953 6.72816e-06
0.0165536 2.71051e-20 0.00281397 7.53642e-06
-0.016554 -2.71051e-20 0.00281321 3.72279e-05
-0.0168738 -8.27181e-25 4.79187e-09 0.000301773
0.0168738 0 1.76193e-09 1.9511e-05
-0.0168739 -2.6385e-20 0.00058458 0.000228989
0.0168739 -3.30665e-21 0.000584593 1.54244e-05
-0.0165426 -2.71051e-20 0.00345663 4.87307e-05
0.0165425 -5.42101e-20 0.00345738 7.18988e-06
-0.0161125 -3.23891e-20 0.00513741 0.000192669
0.0161142 -1.91343e-20 0.00513878 6.92608e-06
0.0168742 2.32584e-20 0.00119965 1.05723e-05
-0.0168743 -1.13973e-20 0.0011996 0.000110523
-0.0160304 0 0.00554246 0.000313486
0.0168741 -3.23117e-27 0.00173829 9.44321e-06
0.0160322 2.71051e-20 0.00554379 7.44999e-06
-0.0168741 2.59606e-20 0.00184202 5.41895e-05
0.0168741 -3.23117e-27 0.00184212 9.22555e-06
-0.0165205 0 0.00410417 5.66566e-05
0.0165209 2.71051e-20 0.00410496 7.08425e-06
-0.0168728 0 0.00226207 4.90465e-05
0.016872 0 0.00248968 8.1765e-06
-0.0168721 0 0.00248953 4.62615e-05
-0.0160456 0 0.00588237 0.000336155
0.0160471 1.32349e-23 0.0058834 7.44901e-06
0.0168085 3.23117e-27 0.00313289 7.57884e-06
-0.0168654 0 0.00313207 5.54059e-05
0.0168654 0 0.00313226 7.62954e-06
-0.0164772 0 0.00477307 7.34666e-05
0.0168651 0 0.00314347 7.62682e-06
0.0164781 -2.71051e-20 0.00477392 6.55647e-06
-0.0168631 0 0.003224 5.69091e-05
0.0171867 0 0.000292305 2.10645e-05
-0.0171867 -2.71051e-20 0.000292302 0.000283078
0.0171869 -5.42101e-20 0.000892117 1.29482e-05
-0.0171869 5.42101e-20 0.000892093 0.000153765
0.0171304 -3.23117e-27 0.0018419 9.37385e-06
-0.0163088 3.81827e-21 0.00559077 0.000259739
0.01631 -2.74889e-20 0.00559165 7.20402e-06
0.0171869 0 0.00152074 1.04482e-05
-0.0171869 0 0.00152071 7.29955e-05
-0.0168494 1.65635e-20 0.00377631 6.59404e-05
0.0168495 2.06795e-25 0.00377656 7.4732e-06
0.017186 0 0.00216542 8.81778e-06
-0.0171861 0 0.00216535 5.37989e-05
-0.016518 0 0.00536714 9.86655e-05
0.016519 0 0.00536792 6.689e-06
-0.0168212 -2.7426e-20 0.00443102 7.79655e-05
0.0168216 -7.55629e-21 0.00443137 7.23721e-06
-0.0163928 0 0.00584542 0.000358794
0.0163937 -2.71051e-20 0.00584612 7.44802e-06
0.0171824 -5.42101e-20 0.0028096 7.99303e-06
-0.0171824 2.71051e-20 0.00280953 6.17481e-05
-0.0174996 8.27181e-25 4.65707e-09 0.000276018
0.0174996 0 2.44541e-09 2.59944e-05
-0.0163956 1.32349e-23 0.00614428 0.000350644
-0.0174996 -2.87625e-20 0.000584661 0.000211668
0.0174996 1.82335e-20 0.00058466 2.01432e-05
0.0163962 0 0.00614484 7.71558e-06
-0.0171728 2.71051e-20 0.00345119 7.37877e-05
0.0171728 2.71051e-20 0.00345131 7.79362e-06
-0.0174998 8.83636e-22 0.0011996 0.000110985
0.0174998 -3.5115e-20 0.0011996 1.22791e-05
-0.0168072 5.71251e-21 0.00507468 9.30089e-05
0.0168078 6.49833e-21 0.00507511 6.81853e-06
-0.0174997 1.28346e-20 0.00184159 7.04099e-05
0.0174997 0 0.00184159 9.58754e-06
-0.0174392 -1.29247e-26 0.00248806 6.84903e-05
0.0174993 0 0.00212676 9.15637e-06
-0.0171543 -2.71051e-20 0.00409713 8.44614e-05
0.0171545 2.71051e-20 0.00409729 7.81999e-06
0.0174987 0 0.00248791 8.61035e-06
-0.0174987 3.00084e-20 0.00248791 7.08208e-05
-0.0174983 -8.07794e-27 0.0025547 7.21793e-05
-0.0167741 -1.40819e-20 0.00574438 0.000210923
0.0167746 -2.89381e-20 0.00574481 7.03439e-06
-0.0174944 0 0.00312778 8.38352e-05
0.0174944 0 0.00312779 8.43965e-06
-0.0171359 0 0.00474309 9.72452e-05
0.0171362 2.71051e-20 0.00474333 7.47109e-06
-0.0167048 2.71051e-20 0.00611288 0.000342503
0.0167053 0 0.00611327 7.98295e-06
0.0174921 0 0.00326562 8.46569e-06
-0.017491 0 0.00332932 8.83125e-05
0.0178123 0 0.000292339 3.09223e-05
-0.0178123 2.71051e-20 0.000292339 0.000268961
-0.0178123 2.71051e-20 0.000892127 0.000138816
0.0178123 0 0.000892128 1.54495e-05
-0.0178123 2.71051e-20 0.00152058 7.73374e-05
0.0178123 2.71051e-20 0.00152058 1.02137e-05
-0.0174836 0 0.00376687 9.80328e-05
0.0174836 -2.85326e-20 0.00376691 8.56041e-06
-0.0167191 0 0.00643605 0.000344964
0.0167195 -1.32349e-23 0.0064363 8.11335e-06
-0.0178119 -2.71051e-20 0.00216457 7.74527e-05
0.0178119 0 0.00216457 8.86608e-06
-0.017115 2.71051e-20 0.00539431 0.000102417
0.0171154 -2.71051e-20 0.0053946 6.58524e-06
-0.0174667 2.24863e-20 0.00441055 0.000108824
0.0174668 -1.13948e-20 0.00441062 8.43865e-06
-0.0178098 0 0.00280703 9.01647e-05
0.0178098 2.71051e-20 0.00280703 8.76227e-06
-0.0169664 -1.63517e-20 0.00617963 0.000269944
0.0169667 -3.2174e-20 0.00617988 7.51483e-06
-0.0181249 0 4.21997e-09 0.000268067
0.0181249 4.1359e-25 2.86614e-09 3.68983e-05
-0.0178039 0 0.00344471 0.000109421
0.0178039 0 0.00344474 9.19863e-06
-0.0181249 -3.85977e-20 0.000584697 0.000198164
0.0181249 -1.09298e-20 0.000584697 2.61992e-05
-0.0181249 2.39707e-21 0.00119962 0.000104383
0.0181249 8.70282e-21 0.00119962 1.25906e-05
-0.0174472 6.40238e-22 0.00505795 0.000113941
0.0174474 -2.01088e-21 0.00505807 7.80895e-06
-0.017167 2.71051e-20 0.00597246 0.000115374
0.0171673 2.71051e-20 0.0059727 6.28136e-06
-0.0170427 2.71051e-20 0.00643802 0.000347424
-0.0181249 1.05281e-20 0.00184147 8.51587e-05
0.0181249 -8.46848e-21 0.00184147 9.56316e-06
0.0170429 2.71051e-20 0.0064382 8.24368e-06
-0.017793 0 0.00408287 0.000124156
0.017793 -2.71051e-20 0.00408289 9.41387e-06
0.0181245 0 0.00242071 9.50438e-06
-0.0181245 -8.62362e-22 0.0024871 0.000101149
0.0181245 0 0.0024871 9.49765e-06
-0.0179092 -1.29247e-26 0.00376081 0.000124327
-0.0170214 0 0.00674877 0.000360884
0.0170216 0 0.00674896 8.33527e-06
-0.0181236 0 0.00276481 0.000110872
-0.017444 1.04175e-20 0.00568992 0.000116332
0.0174442 1.67554e-20 0.00569009 6.88629e-06
0.0179748 1.29247e-26 0.00375989 1.00758e-05
-0.0181225 0 0.00312454 0.000123466
0.0181225 0 0.00312455 1.00267e-05
-0.0177779 0 0.00472459 0.000129422
0.017778 5.42101e-20 0.00472464 9.04049e-06
-0.0184375 5.42101e-20 0.000292351 0.000267173
0.0184375 0 0.000292351 4.28734e-05
-0.0184375 0 0.000892166 0.000115471
0.0184375 0 0.000892167 1.5209e-05
-0.0184374 -2.71051e-20 0.00152054 8.52476e-05
0.0184374 5.42101e-20 0.00152054 9.41088e-06
-0.0181171 0 0.00375785 0.00013717
0.0181172 -1.29247e-26 0.00375786 1.05151e-05
0.0183571 8.07794e-28 0.00248696 1.01712e-05
0.0181149 -1.29247e-26 0.00390339 1.05042e-05
-0.0174092 1.64907e-20 0.00635339 0.000224797
0.0174094 -1.62855e-20 0.0063535 7.21548e-06
-0.0181139 -1.29247e-26 0.00395904 0.000138123
-0.017766 0 0.0053638 0.000126765
0.0177661 0 0.00536388 8.1334e-06
-0.0184373 -2.71051e-20 0.0021642 0.000100602
0.0184373 0 0.0021642 9.7604e-06
-0.0173271 -5.42101e-20 0.00672776 0.000374342
0.0173272 -5.42101e-20 0.00672785 8.42684e-06
-0.0181071 -2.58494e-26 0.00439391 0.000140184
0.0181071 0 0.00439392 1.04673e-05
0.0184364 -2.71051e-20 0.0028054 1.05966e-05
-0.0184364 0 0.0028054 0.000136198
-0.0173238 0 0.00706122 0.000357202
0.0173239 1.32349e-23 0.00706123 8.29569e-06
-0.0177469 0 0.00601017 0.000121078
0.017747 -2.71051e-20 0.00601025 6.62028e-06
-0.01875 0 3.911e-09 0.000260165
0.01875 0 3.03741e-09 4.31146e-05
-0.0184337 -5.42101e-20 0.00343972 0.00015785
0.0184337 -2.71051e-20 0.00343972 1.15376e-05
-0.01875 -1.26451e-20 0.000584711 0.000185734
0.01875 2.2678e-20 0.000584711 2.82875e-05
-0.0180931 -5.0243e-21 0.00503408 0.000136938
0.0180932 -2.72424e-20 0.00503411 9.76903e-06
-0.01875 2.04613e-21 0.00119964 0.000103531
0.01875 2.40119e-20 0.00119964 1.14355e-05
-0.01875 2.73405e-20 0.00184144 0.000112982
0.01875 -7.18265e-21 0.00184144 1.01524e-05
-0.0175849 -3.02814e-20 0.0067982 0.000283325
0.017585 1.41746e-20 0.00679825 7.62173e-06
-0.0184279 0 0.00407228 0.000157103
0.0184279 0 0.0040723 1.18914e-05
-0.0187498 -1.29247e-26 0.00248672 0.000145465
0.0187498 1.90868e-20 0.00248672 1.13083e-05
0.0187496 -3.23117e-27 0.00268031 1.16685e-05
-0.0180758 3.02004e-20 0.00567801 0.000130743
0.0180758 -1.76893e-20 0.00567802 8.51434e-06
-0.0184331 0 0.00438832 0.000149132
-0.0177903 0 0.00659091 0.000130031
0.0177904 2.71051e-20 0.00659097 6.22344e-06
-0.0187494 0 0.00293789 0.000160096
0.0184871 2.58494e-26 0.00438741 1.21817e-05
0.0187492 6.46235e-27 0.00312276 1.24917e-05
-0.0187492 0 0.00312276 0.000166091
-0.0184184 8.13152e-20 0.0047076 0.000149972
0.0184184 5.42101e-20 0.0047076 1.14979e-05
-0.0176528 5.42101e-20 0.00706059 0.000340061
0.0176528 2.71051e-20 0.00706062 8.16449e-06
-0.0190625 -5.42101e-20 0.000292356 0.000253158
0.0190625 -2.71051e-20 0.000292356 4.33557e-05
-0.0190625 -5.42101e-20 0.000892176 0.000104752
0.0190625 -2.71051e-20 0.000892176 1.12374e-05
-0.0176265 0 0.00737367 0.000352826
0.0176265 0 0.00737369 8.01174e-06
-0.0187471 0 0.00375263 0.000166938
0.0187471 0 0.00375264 1.32787e-05
0.0190625 2.71051e-20 0.00152054 9.83309e-06
-0.0190625 0 0.00152054 0.000108461
-0.0180691 -7.0939e-21 0.00630978 0.000128413
0.0180692 1.15441e-20 0.00630982 7.1435e-06
-0.0184047 0 0.0053471 0.00014162
0.0184047 5.42101e-20 0.00534713 1.03983e-05
0.0190624 2.71051e-20 0.00216406 1.1607e-05
-0.0190624 2.71051e-20 0.00216406 0.000157668
-0.0187422 2.58494e-26 0.00438303 0.000157614
0.0187422 0 0.00438304 1.33329e-05
0.0190622 2.71051e-20 0.00280458 1.32613e-05
-0.0190622 0 0.00280458 0.000187206
0.019294 -5.16988e-26 6.84918e-45 3.9103e-05
-0.0180246 8.41077e-21 0.00697622 0.000231765
0.0180246 1.06806e-20 0.00697632 7.06963e-06
0.0187368 -1.29247e-26 0.00474645 1.29202e-05
-0.0183915 2.71051e-20 0.00598567 0.000133538
0.0183916 -2.71051e-20 0.00598568 8.90268e-06
-0.0187352 1.29247e-26 0.00485588 0.000149722
0.0190612 -2.71051e-20 0.00343712 1.45614e-05
-0.0190612 -2.71051e-20 0.00343712 0.000183044
-0.019375 0 4.06668e-09 0.000238342
0.019375 -1.03398e-25 4.52376e-10 3.85056e-05
0.019375 -5.16988e-26 0.000278199 3.18087e-05
-0.019375 -1.08671e-20 0.000584717 0.000174441
0.019375 1.76076e-21 0.000584716 2.44302e-05
-0.0179362 0 0.00735206 0.000365595
0.0179362 -2.71051e-20 0.00735208 7.85894e-06
0.0187328 0 0.00501785 1.2612e-05
-0.0187328 0 0.00501785 0.000147018
-0.019375 4.87716e-21 0.00119964 0.00012162
0.019375 -2.11879e-20 0.00119964 1.02975e-05
-0.019375 3.2838e-21 0.00184143 0.000159865
0.019375 7.59467e-21 0.00184143 1.16079e-05
-0.0190587 2.71051e-20 0.00406623 0.000169677
0.0190587 -2.71051e-20 0.00406624 1.51085e-05
0.0179293 -1.32349e-23 0.00768642 7.62537e-06
-0.0179292 0 0.00768646 0.000353716
-0.0188727 1.9387e-26 0.00501563 0.000145791
-0.0183671 -2.71051e-20 0.00663351 0.000129023
0.0183672 2.71051e-20 0.00663353 6.93671e-06
-0.019375 2.75561e-21 0.0024866 0.000191691
0.019375 -2.49041e-20 0.0024866 1.37598e-05
-0.0187185 -1.85681e-20 0.00565746 0.000138402
0.0187186 8.00339e-21 0.00565747 1.12845e-05
-0.0193457 -2.01948e-27 0.00312215 0.000189909
0.0193748 0 0.00300214 1.51705e-05
-0.0190533 -5.42101e-20 0.00469698 0.000153623
0.0190533 5.42101e-20 0.00469699 1.48043e-05
0.0193748 0 0.00312212 1.54988e-05
-0.0193748 1.79074e-21 0.00312212 0.000191072
0.018974 2.58494e-26 0.00501401 1.40366e-05
-0.0193748 -2.62533e-27 0.00313579 0.00019071
0.0181955 1.40488e-20 0.00742325 7.08311e-06
-0.0181955 -1.78142e-20 0.00742325 0.000291827
-0.0196875 0 0.000292358 0.000223527
0.0196875 -2.71051e-20 0.000292358 3.36555e-05
-0.0196875 2.71051e-20 0.00089218 0.000114282
0.0196875 0 0.00089218 9.02185e-06
0.0186985 2.20626e-20 0.0063019 9.49113e-06
-0.0186985 -4.33112e-21 0.0063019 0.000132607
-0.0193742 0 0.00375048 0.000174405
0.0193742 -6.46235e-27 0.00375048 1.65947e-05
0.0196875 -2.71051e-20 0.00152054 1.11024e-05
-0.0196875 -2.71051e-20 0.00152054 0.000159333
-0.0184047 0 0.00721591 0.000163068
0.0184047 -2.71051e-20 0.00721592 5.95457e-06
-0.0190436 -2.71051e-20 0.00533179 0.000142792
0.0190437 -2.71051e-20 0.00533179 1.3711e-05
0.0196875 0 0.00216401 1.3893e-05
-0.0196875 0 0.00216401 0.000214092
-0.0182613 -2.71051e-20 0.00768613 0.000341836
0.0182613 -2.71051e-20 0.00768613 7.39172e-06
-0.0193723 2.58494e-26 0.00437779 0.000155425
0.0193723 2.58494e-26 0.00437779 1.69096e-05
-0.0196874 -5.42101e-20 0.00280433 0.000207732
0.0196874 0 0.00280433 1.62671e-05
-0.0182323 1.32349e-23 0.00799942 0.000345155
0.0182323 0 0.00799942 7.27146e-06
-0.0186874 -1.56635e-20 0.00693493 0.000140756
0.0186875 -8.69863e-21 0.00693493 7.45608e-06
-0.0190287 0 0.00597154 0.000135622
0.0190287 2.71051e-20 0.00597155 1.21164e-05
-0.0196872 -2.71051e-20 0.00343614 0.000186344
0.0196872 0 0.00343614 1.78974e-05
-0.02 0 4.58353e-09 0.000206547
0.02 2.06795e-25 9.31731e-10 3.29715e-05
-0.0193674 5.16988e-26 0.00500776 0.000141449
0.0193674 5.16988e-26 0.00500776 1.63598e-05
0.02 2.58494e-26 0.000467287 2.34976e-05
-0.02 -2.93322e-20 0.000584718 0.000169655
0.02 1.94111e-20 0.000584716 2.11168e-05
0.0197647 0 0.00312203 1.74273e-05
-0.02 1.65118e-20 0.00119965 0.000164336
0.02 0 0.00119965 1.04854e-05
0.0193627 -2.58494e-26 0.0053074 1.57516e-05
-0.02 -2.31078e-20 0.00184143 0.0002114
0.02 2.54179e-20 0.00184143 1.35152e-05
-0.0193617 0 0.00537141 0.000137067
-0.0196863 -2.71051e-20 0.00406358 0.000158565
0.0196863 0 0.00406358 1.88023e-05
0.0186372 1.21629e-20 0.00760237 6.68041e-06
-0.0186372 7.25272e-21 0.00760238 0.000242047
-0.0190127 5.42101e-20 0.0066109 0.000132214
0.0190127 0 0.00661089 1.00052e-05
-0.02 -3.17406e-20 0.00248657 0.000217194
0.02 -9.18417e-21 0.00248657 1.64072e-05
0.0193574 -3.55832e-21 0.00564266 1.50711e-05
-0.0193574 0 0.00564266 0.000133798
-0.0185451 -2.71051e-20 0.00797829 0.000348475
0.0185451 0 0.00797829 7.15114e-06
-0.0196838 0 0.00469127 0.000139825
0.0196838 -2.71051e-20 0.00469127 1.88999e-05
-0.02 -8.44252e-21 0.00312197 0.000191839
0.02 0 0.00312197 1.85913e-05
0.02 1.21169e-27 0.00325494 1.88972e-05
-0.0199999 0 0.00339841 0.000178567
0.0185356 0 0.00831268 6.97481e-06
-0.0185355 0 0.00831272 0.000340002
-0.0203125 2.71051e-20 0.000292358 0.000189567
0.0203125 -2.71051e-20 0.000292358 3.22876e-05
-0.0189844 0 0.00725983 0.00013702
0.0189845 -2.71051e-20 0.00725984 7.09795e-06
0.0203125 2.71051e-20 0.000892183 9.12271e-06
-0.0203125 2.71051e-20 0.000892183 0.000150064
0.0193417 2.21875e-20 0.00628271 1.31884e-05
-0.0193417 -2.52017e-20 0.00628271 0.000130498
0.0199998 1.61559e-27 0.00374985 2.00361e-05
-0.0199998 0 0.00374985 0.000161696
-0.0203125 2.71051e-20 0.00152054 0.000234595
0.0203125 2.71051e-20 0.00152054 1.27353e-05
0.0196781 -2.71051e-20 0.00532193 1.79821e-05
-0.0196781 0 0.00532193 0.000129576
-0.0203125 0 0.002164 0.000237631
0.0203125 -2.71051e-20 0.002164 1.63359e-05
0.0188063 2.14273e-20 0.00805025 6.56254e-06
-0.0188063 3.69717e-20 0.00805025 0.00029221
-0.0199992 1.29247e-26 0.00437577 0.000140348
0.0199992 0 0.00437577 2.07478e-05
-0.0196858 0 0.0056376 0.000128845
0.0203125 0 0.00280427 1.91191e-05
-0.0203125 -2.71051e-20 0.00280427 0.00020941
0.0193191 -2.55268e-21 0.00692789 1.06126e-05
-0.0193191 2.18326e-20 0.00692791 0.00013083
0.0197507 -1.29247e-26 0.00563659 1.79124e-05
0.0196677 0 0.00595699 1.64252e-05
-0.0196677 -2.71051e-20 0.00595699 0.000127188
-0.019019 0 0.00784353 0.00019265
0.019019 2.71051e-20 0.00784353 5.70374e-06
-0.0203124 -2.71051e-20 0.00343589 0.000164
0.0203124 2.71051e-20 0.00343589 2.10736e-05
-0.0199972 0 0.00500279 0.000128541
0.0199972 0 0.00500279 2.06083e-05
-0.018871 5.42101e-20 0.00831348 0.000331527
0.018871 5.42101e-20 0.00831348 6.79839e-06