# omega  POINT_DATA 7061
# x  y  z  omega
3.89618e-26 -0.079 8.5914e-08 1137.6
0 -0.079 0.000550926 1191.27
0 -0.079 0.0011232 1253.01
0 -0.079 0.00172954 1265.84
-2.06795e-25 -0.079 0.0023683 1274.96
0 -0.079 0.00302578 1279.21
1.03398e-25 -0.079 0.00316768 1278.96
-4.1359e-25 -0.079 0.00368597 1278.03
4.1359e-25 -0.079 0.00433887 1273.25
0 -0.079 0.00498192 1267.99
0 -0.079 0.0056169 1263.87
8.27181e-25 -0.079 0.00624674 1261.24
2.71051e-20 -0.079254 0.000278027 1137.59
-2.71051e-20 -0.0792534 0.000845552 1245.87
-5.42101e-20 -0.0792519 0.00144222 1260.36
-2.71051e-20 -0.0792508 0.00206883 1271.48
2.71051e-20 -0.0792502 0.00271551 1278.49
0 -0.079 0.00687383 1259.97
-2.71051e-20 -0.07925 0.00336932 1279.93
-5.42101e-20 -0.0792504 0.00402046 1276.13
-8.27181e-25 -0.079 0.00749963 1259.45
-5.16988e-26 -0.0793284 0.00304732 929.1
5.42101e-20 -0.0792509 0.00466442 1270.39
0 -0.079 0.00812489 1259.29
2.71051e-20 -0.0792514 0.00530113 1265.6
0 -0.0792518 0.00593244 1262.15
0 -0.079 0.00874998 1259.27
0 -0.0794672 0.00240658 780.128
0 -0.0795066 8.13086e-08 1069.12
2.06795e-25 -0.0795065 0.000303907 986.886
-1.57212e-20 -0.0795065 0.000561025 917.295
2.06795e-25 -0.0795027 0.00114835 752.882
0 -0.0795014 0.00176809 743.29
0 -0.0792519 0.00656044 1260.34
0 -0.0795013 0.00233667 743.899
0 -0.0795013 0.00240938 743.977
-4.1359e-25 -0.079 0.009375 1259.28
-2.20454e-20 -0.0795014 0.00305867 744.588
-5.42101e-20 -0.079252 0.00718675 1259.61
1.01336e-20 -0.0795017 0.00370691 746.304
-2.06795e-25 -0.0796091 6.307e-08 1052.86
1.31859e-20 -0.0795024 0.00434988 748.628
0 -0.079 0.01 1259.25
0 -0.079252 0.00781225 1259.29
3.05354e-21 -0.079503 0.00498679 749.072
-2.06795e-25 -0.079 0.0103106 1259.18
5.42101e-20 -0.079252 0.00843743 1259.28
1.7025e-20 -0.0795035 0.00561869 746.406
0 -0.079 0.010625 1259.11
1.60804e-20 -0.0795039 0.00624726 742.129
2.71051e-20 -0.0792521 0.00906248 1259.27
0 -0.0797726 0.000282959 999.483
-2.71051e-20 -0.0797727 0.000861182 265.813
5.42101e-20 -0.0797711 0.00146986 211.5
0 -0.079 0.01125 1258.91
-2.71051e-20 -0.079771 0.00210389 204.492
1.32663e-20 -0.079504 0.00687391 740.26
-2.71051e-20 -0.0797714 0.00274903 202.52
-2.71051e-20 -0.0792521 0.0096875 1259.28
0 -0.0797718 0.00339467 203.096
1.50059e-20 -0.0795041 0.00749961 742.241
0 -0.0797726 0.00403626 212.674
0 -0.079 0.011875 1258.85
-2.71051e-20 -0.0797735 0.00467288 220.629
-1.68838e-20 -0.0795041 0.00812487 746.449
-2.71051e-20 -0.0792521 0.0103125 1259.23
0 -0.0797742 0.00530505 223.009
0 -0.079 0.0125 1258.88
-1.92946e-20 -0.0795041 0.00874996 751.054
-2.71051e-20 -0.0797748 0.00593404 216.668
0 -0.0792521 0.0109375 1259
0 -0.0800346 -3.72863e-10 985.354
0 -0.079 0.0128484 1258.9
4.1359e-25 -0.0800404 0.000568646 609.081
0 -0.0797751 0.00656102 210.317
0 -0.0800382 0.00116603 188.649
-4.94199e-21 -0.0795041 0.00937499 756.957
0 -0.0800391 0.00179599 144.801
1.9387e-26 -0.0800406 0.00227145 138.48
0 -0.0800412 0.00244118 136.224
0 -0.079 0.013125 1258.92
-2.71051e-20 -0.0792521 0.0115625 1258.83
2.71051e-20 -0.0797752 0.00718692 211.137
-2.48611e-20 -0.0800427 0.00308639 133.782
3.45859e-20 -0.0800437 0.00372651 136.267
-1.06736e-20 -0.0795041 0.01 761.571
-5.42101e-20 -0.0797753 0.00781229 219.239
-1.13965e-21 -0.0800446 0.00436171 142.488
1.29247e-26 -0.0795041 0.0104105 762.503
0 -0.0792521 0.0121875 1258.87
-4.1359e-25 -0.079 0.01375 1258.96
2.49791e-20 -0.0800454 0.00499307 148.532
0 -0.0795041 0.010625 762.99
2.71051e-20 -0.0797753 0.00843744 228.331
-1.97324e-20 -0.0800459 0.00562167 150.52
0 -0.0792521 0.0128125 1258.9
-2.71051e-20 -0.0797753 0.00906248 237.824
-4.31985e-21 -0.0800463 0.00624853 148.368
0 -0.0795042 0.01125 763.037
4.1359e-25 -0.079 0.014375 1259.01
2.71051e-20 -0.0803223 0.000287068 970.821
0 -0.0803283 0.00087395 183.346
-1.62618e-20 -0.0800464 0.0068744 147.962
2.71051e-20 -0.0803303 0.00149111 89.008
0 -0.0797753 0.00968749 252.141
-2.71051e-20 -0.0803332 0.00213043 70.3818
0 -0.0792521 0.0134375 1258.94
2.71051e-20 -0.0803356 0.00277473 64.3577
5.16988e-26 -0.0795042 0.011875 761.689
8.05736e-21 -0.0800465 0.00749977 152.864
-2.71051e-20 -0.080337 0.00341474 62.4205
-4.1359e-25 -0.079 0.015 1259.05
0 -0.0797754 0.0103125 256.504
2.71051e-20 -0.0803381 0.00404944 64.0561
1.51777e-21 -0.0800465 0.00812492 160.698
2.71051e-20 -0.080339 0.00468044 69.6172
0 -0.0795042 0.0125 758.768
0 -0.0792521 0.0140625 1258.99
2.71051e-20 -0.0803397 0.00530896 77.7988
-2.71051e-20 -0.0797754 0.0109375 258.137
-2.05544e-20 -0.0800466 0.00874998 168.256
0 -0.079 0.015625 1259.08
-2.71051e-20 -0.0803402 0.00593584 81.5453
0 -0.0795042 0.0130673 754.936
6.46235e-27 -0.0795042 0.013125 754.547
3.14335e-20 -0.0800466 0.00937499 175.924
0 -0.0805982 4.55363e-09 961.583
0 -0.0792521 0.0146875 1259.03
-2.71051e-20 -0.0803404 0.00656179 81.9716
2.71051e-20 -0.0797754 0.0115625 257.236
0 -0.0806135 0.000576473 572.998
0 -0.0806183 0.00118217 129.451
0 -0.0806237 0.00181858 70.2571
0 -0.079 0.01625 1259.11
2.71051e-20 -0.0803405 0.00718721 85.4834
-1.61559e-27 -0.0806282 0.00243043 56.0509
0 -0.0806285 0.00246498 55.2487
1.83129e-20 -0.0800466 0.01 180.867
9.72501e-21 -0.0795042 0.01375 749.363
2.09896e-20 -0.0806311 0.00310603 49.504
-2.71051e-20 -0.0797754 0.0121875 252.812
-4.1359e-25 -0.079 0.0165368 1259.18
-2.71051e-20 -0.0792521 0.0153125 1259.07
-3.22479e-20 -0.0806325 0.00373992 47.9976
0 -0.0803405 0.00781239 92.6614
-6.46235e-27 -0.0800232 0.010625 206.287
3.90328e-20 -0.0800466 0.010625 181.207
-1.58698e-20 -0.0806333 0.0043697 50.0832
-3.23117e-27 -0.0800466 0.0107289 180.874
0 -0.0797049 0.013125 534.876
4.1359e-25 -0.079 0.016875 1259.25
2.71051e-20 -0.0803406 0.00843746 99.5696
-1.79369e-21 -0.0806339 0.00499735 55.8077
-2.75031e-20 -0.0795042 0.014375 743.656
2.71051e-20 -0.0797754 0.0128125 245.367
0 -0.080825 5.74177e-10 956.657
-2.25055e-21 -0.0806343 0.00562377 62.5321
0 -0.0800466 0.01125 179.2
0 -0.0792521 0.0159375 1259.1
2.71051e-20 -0.0803406 0.00906249 104.24
3.59812e-20 -0.0806345 0.00624947 66.895
2.71051e-20 -0.0797754 0.0134375 235.69
-1.04078e-20 -0.0795042 0.015 738.522
0 -0.0809079 0.000289884 952.069
4.1359e-25 -0.079 0.0175 1259.42
-2.71051e-20 -0.0803406 0.0096875 106.227
6.46235e-27 -0.0800466 0.011875 174.959
2.71051e-20 -0.0809209 0.000883698 170.426
-7.28943e-21 -0.0806346 0.00687478 70.337
0 -0.0809342 0.000579086 567.188
0 -0.0809282 0.00150678 73.0469
5.42101e-20 -0.0809342 0.00214884 48.1245
2.71051e-20 -0.0792521 0.0165625 1259.12
4.17938e-21 -0.0806346 0.00749992 75.0511
-5.42101e-20 -0.080938 0.00279164 37.8238
0 -0.079 0.0178786 1259.36
-2.71051e-20 -0.0803406 0.0103125 105.125
-2.71051e-20 -0.0797754 0.0140625 224.347
-2.71051e-20 -0.0809399 0.0034273 33.1051
0 -0.0800466 0.0125 168.638
3.41429e-21 -0.0795042 0.015625 735.657
0 -0.0809409 0.00405742 32.0508
-4.41813e-21 -0.0806346 0.00812497 79.8483
0 -0.079 0.018125 1259.32
0 -0.0809416 0.00468493 34.178
0 -0.0803406 0.0109375 101.463
-2.71051e-20 -0.0792521 0.0171875 1259.39
2.58494e-26 -0.0810975 0.00119034 123.384
6.46493e-21 -0.0806346 0.00874999 82.9906
-6.46235e-27 -0.0800466 0.013125 160.942
2.71051e-20 -0.080942 0.00531125 41.1552
-2.71051e-20 -0.0797754 0.0146875 212.552
2.33329e-20 -0.0795042 0.01625 734.335
-2.71051e-20 -0.0809422 0.00593694 49.1611
-6.46235e-26 -0.0795042 0.0163268 734.199
0 -0.0803406 0.0115625 96.2497
-1.6484e-20 -0.0806346 0.009375 83.9492
0 -0.0811445 0.00247654 43.8273
-1.61559e-27 -0.0800204 0.01375 181.301
4.1359e-25 -0.079 0.01875 1259.16
0 -0.0811987 6.05348e-09 948.541
0 -0.0809424 0.00656226 54.4856
0 -0.0800466 0.01375 152.494
1.13684e-20 -0.0812193 0.00058141 562.025
-2.71051e-20 -0.0792521 0.0178125 1259.45
0 -0.0797754 0.0153125 203.526
2.49301e-20 -0.0812305 0.00119261 121.701
1.61559e-27 -0.0800466 0.0138832 150.693
-2.47833e-20 -0.0806346 0.01 82.6743
0 -0.0812385 0.00177788 65.5987
-2.71051e-20 -0.0803406 0.0121875 89.745
0 -0.0812393 0.00183257 60.356
-2.71051e-20 -0.0809424 0.00718741 59.0236
0 -0.0795042 0.016875 733.23
0 -0.0812453 0.0024788 41.5965
0 -0.0812455 0.00251508 41.1328
3.23117e-27 -0.0812481 0.00311668 33.4441
0 -0.0809424 0.00781246 62.6291
6.46235e-27 -0.0800466 0.014375 144.044
3.46873e-22 -0.0806346 0.010625 79.4831
1.93434e-21 -0.0812492 0.0037467 30.1855
0 -0.079 0.019375 1259.14
2.71051e-20 -0.0797754 0.0159375 200.915
2.71051e-20 -0.0803406 0.0128125 82.8149
-8.98331e-22 -0.0812497 0.00437348 30.1292
-3.63507e-27 -0.0805866 0.01125 83.5689
0 -0.0792521 0.0184375 1259.2
-2.71051e-20 -0.0809424 0.00843749 64.0588
0 -0.0813716 0.00183379 60.9531
3.27682e-20 -0.08125 0.00499929 33.9328
-1.03398e-25 -0.0795041 0.0175 732.516
1.4188e-20 -0.0806346 0.01125 75.0671
-1.00974e-28 -0.0813987 0.00248015 41.6459
-1.0671e-20 -0.0800466 0.015 137.063
6.47292e-21 -0.0812501 0.00562469 41.2057
5.42101e-20 -0.0809424 0.0090625 63.5413
4.03897e-28 -0.0806346 0.0114856 73.1567
0 -0.0803406 0.0134375 76.1251
-3.23117e-27 -0.0798284 0.01625 373.819
0 -0.0797754 0.0165625 198.137
2.02756e-20 -0.0812502 0.00624987 47.8082
0 -0.079 0.02 1259.18
1.55096e-25 -0.0794513 0.018125 787.231
-8.07794e-28 -0.0806346 0.011875 69.9993
0 -0.0792521 0.0190625 1259.11
0 -0.0809424 0.0096875 61.1655
5.42101e-20 -0.0815221 0.000290974 944.937
-1.79118e-21 -0.0812502 0.00687495 51.7302
2.71051e-20 -0.0815381 0.000888595 168.13
-2.58494e-26 -0.0795042 0.018125 731.861
-3.78018e-20 -0.0800466 0.015625 133.149
2.71051e-20 -0.0803406 0.0140625 70.1419
-2.71051e-20 -0.0815484 0.0015151 73.8573
5.42101e-20 -0.0815556 0.00215845 46.3732
1.07515e-20 -0.0812502 0.00749998 54.0524
-2.71051e-20 -0.0809424 0.0103125 57.5063
0 -0.0806346 0.0125 64.6612
-2.71051e-20 -0.0797754 0.0171875 196.177
2.71051e-20 -0.0815595 0.00280008 34.1419
0 -0.0795042 0.0185135 731.619
2.71051e-20 -0.0815612 0.00343325 28.7344
-6.46235e-27 -0.0800466 0.0160256 131.859
0 -0.079 0.020625 1259.16
1.26305e-20 -0.0812502 0.00812499 54.8112
5.42101e-20 -0.0792521 0.0196875 1259.16
-2.71051e-20 -0.0815618 0.00406097 26.8437
-2.71051e-20 -0.0803406 0.0146875 65.6095
0 -0.0809424 0.0109375 53.1413
-6.46235e-27 -0.0800466 0.01625 131.137
0 -0.0795042 0.01875 731.472
0 -0.0806346 0.013125 59.5734
0 -0.0815621 0.00468683 27.4197
-3.47448e-22 -0.0812502 0.00875 53.9749
-2.71051e-20 -0.0815623 0.00531219 32.9415
0 -0.0797754 0.0178125 194.769
-2.71051e-20 -0.0809424 0.0115625 48.7181
0 -0.0815624 0.00593736 41.5264
2.71051e-20 -0.0803406 0.0153125 63.2006
-4.25134e-20 -0.0812502 0.009375 51.9068
0 -0.0806346 0.01375 55.1573
2.58494e-26 -0.0800466 0.016875 129.49
0 -0.079 0.02125 1259.07
-2.71051e-20 -0.0792521 0.0203125 1259.2
-4.1359e-25 -0.0818256 2.85353e-09 944.335
2.71051e-20 -0.0815624 0.00656245 46.0223
5.1523e-22 -0.0795042 0.019375 731.338
-2.58453e-21 -0.0818444 0.000583063 562.979
2.71051e-20 -0.0809424 0.0121875 44.6114
3.25814e-20 -0.0812502 0.01 48.8652
-2.82443e-20 -0.0818572 0.00119679 127.527
0 -0.0806346 0.0141611 52.8872
-2.71051e-20 -0.0797754 0.0184375 193.886
0 -0.0815624 0.00718748 47.3424
6.46235e-27 -0.0818662 0.00183835 63.185
9.19561e-21 -0.0806346 0.014375 51.7063
0 -0.0803406 0.0159375 61.6816
2.87476e-20 -0.0818715 0.00248433 41.7984
-7.79045e-21 -0.0818737 0.0031207 32.5759
0 -0.0815624 0.00781249 47.151
0 -0.0800466 0.0175 128.292
2.76504e-20 -0.0812502 0.010625 45.3059
0 -0.0809424 0.0128125 40.8411
-2.63996e-20 -0.0818743 0.00374909 28.8326
0 -0.0792521 0.0209375 1259.12
0 -0.079 0.021875 1259.02
-1.79896e-20 -0.0795042 0.02 731.406
-1.04875e-20 -0.0818745 0.00437472 27.7054
2.71051e-20 -0.0815624 0.0084375 45.3258
-4.03897e-28 -0.0811347 0.011875 44.2481
6.46235e-27 -0.0798282 0.01875 370.484
-1.61559e-20 -0.0806346 0.015 49.497
2.71051e-20 -0.0797754 0.0190625 193.512
-1.94913e-20 -0.0812502 0.01125 41.6724
1.06144e-20 -0.0818746 0.00499988 30.2134
2.71051e-20 -0.0803406 0.0165625 60.5742
0 -0.0809424 0.0134375 37.9306
0 -0.0815624 0.0090625 42.8816
-1.05933e-20 -0.0818746 0.00562495 36.2961
-2.58494e-26 -0.0800466 0.018125 127.51
4.68695e-21 -0.0818746 0.00624998 41.3224
2.11536e-20 -0.0812502 0.011875 38.2986
4.03897e-28 -0.0820795 0.00248483 43.2158
5.42101e-20 -0.0792521 0.0215625 1259.03
3.04943e-20 -0.0806346 0.015625 48.2923
-2.71051e-20 -0.0815624 0.0096875 39.941
-2.3959e-20 -0.0795042 0.020625 731.666
1.00974e-28 -0.0812502 0.0120364 37.5329
4.1359e-25 -0.079 0.0225 1258.99
2.71051e-20 -0.0821529 0.000291161 943.728
2.71051e-20 -0.0809424 0.0140625 35.9055
-2.71051e-20 -0.0803406 0.0171875 59.8685
-1.37183e-20 -0.0818746 0.00687499 42.8365
0 -0.0797754 0.0196875 193.379
5.42101e-20 -0.0821667 0.00089009 184.73
0 -0.0806346 0.0158836 47.9585
-2.71051e-20 -0.0821764 0.00151811 82.0839
0 -0.0812502 0.0125 35.333
-2.71051e-20 -0.0821826 0.00216199 50.4105
-2.06795e-25 -0.0822113 2.26144e-13 943.716
-2.71051e-20 -0.0815624 0.0103125 36.7498
0 -0.0800466 0.01875 127.091
2.79591e-20 -0.0818746 0.0075 42.1943
-2.71051e-20 -0.0821857 0.00280307 36.3592
0 -0.0806346 0.01625 47.4857
0 -0.0821868 0.00343525 31.0988
2.71051e-20 -0.0809424 0.0146875 34.6953
7.55388e-21 -0.0818746 0.008125 40.4907
-2.71051e-20 -0.0821871 0.00406209 28.6576
0 -0.0822699 0.00183944 67.3779
-2.71051e-20 -0.0803406 0.0178125 59.1749
2.71051e-20 -0.0815624 0.0109375 33.7322
3.76138e-20 -0.0795042 0.02125 732.058
2.71051e-20 -0.0792521 0.0221875 1259
0 -0.0812502 0.013125 32.9007
0 -0.0799981 0.019375 180.974
0 -0.079 0.023125 1258.97
0 -0.0821872 0.00468738 27.8996
-2.71051e-20 -0.0797754 0.0203125 193.712
-2.46722e-20 -0.0818746 0.00875 38.2419
0 -0.0800466 0.019375 126.902
-2.71051e-20 -0.0821872 0.00531245 32.5903
-2.71051e-20 -0.0815624 0.0115625 31.0109
-2.71051e-20 -0.0809424 0.0153125 34.0463
1.29247e-26 -0.0806346 0.016875 46.9823
-2.71051e-20 -0.0821872 0.00593748 38.1235
0 -0.0812502 0.01375 31.2466
2.38835e-20 -0.0818746 0.009375 35.6974
1.00974e-28 -0.0823544 0.00312146 35.3754
3.23117e-27 -0.0800466 0.0196607 126.936
0 -0.0824248 0.000583335 569.065
0 -0.0803406 0.0184375 59.0506
0 -0.0824396 0.00119784 138.072
0 -0.079 0.0235965 1258.96
2.71051e-20 -0.0821872 0.00656249 39.6148
-1.11448e-20 -0.0795042 0.021875 732.567
4.1359e-25 -0.0824642 1.87153e-09 943.31
0 -0.0815624 0.0121875 28.7753
2.01948e-28 -0.0812502 0.014131 30.6497
0 -0.0792521 0.0228125 1258.98
-2.71051e-20 -0.0797754 0.0209375 194.476
1.29247e-26 -0.0824772 0.00058336 569.614
3.29045e-20 -0.0818746 0.01 32.9597
1.03398e-25 -0.079 0.02375 1258.95
3.23117e-27 -0.0824876 0.00119793 138.942
-5.42101e-20 -0.0809424 0.0159375 33.8264
0 -0.0821872 0.0071875 38.3626
0 -0.0800466 0.02 126.976
0 -0.0806346 0.0175 46.6457
-1.11715e-20 -0.0812502 0.014375 30.2675
0 -0.0824946 0.00184004 69.7114
-8.07794e-28 -0.0824982 0.00248583 46.0682
-2.71051e-20 -0.0821873 0.0078125 35.9164
0 -0.0824996 0.00312169 36.2206
-1.96955e-20 -0.0818746 0.010625 30.257
2.71051e-20 -0.0815624 0.0128125 27.035
2.71051e-20 -0.0803406 0.0190625 58.7629
0 -0.0824998 0.00355979 33.1239
0 -0.0824999 0.00374962 31.782
1.47172e-20 -0.0824999 0.00437498 29.2541
2.71051e-20 -0.0821873 0.0084375 33.5639
-2.71051e-20 -0.0809424 0.0165625 33.4612
-1.67729e-20 -0.0812502 0.015 29.7138
-3.26415e-20 -0.0795042 0.0225 733.099
2.71051e-20 -0.0797754 0.0215625 195.457
5.45921e-21 -0.0818746 0.01125 27.8408
0 -0.0792521 0.0234375 1258.96
0 -0.0806346 0.018125 46.3856
3.49445e-20 -0.0824999 0.00499999 30.3986
2.28807e-20 -0.0800466 0.020625 127.443
-2.71051e-20 -0.0815624 0.0134375 25.7355
2.58494e-26 -0.079 0.024375 1258.93
-3.36042e-25 -0.079 0.0244069 1258.93
0 -0.0821872 0.0090625 31.1905
2.12023e-20 -0.0824999 0.005625 34.1963
-2.71051e-20 -0.0803406 0.0196875 58.8036
-9.88622e-21 -0.0818746 0.011875 25.8686
-1.31451e-20 -0.0824999 0.00625 36.3233
-1.49056e-20 -0.0812502 0.015625 29.5509
-2.71051e-20 -0.0809424 0.0171875 33.6381
0 -0.0821872 0.0096875 28.7709
0 -0.0815624 0.0140625 25.3618
-4.57392e-21 -0.0824999 0.006875 35.5203
0 -0.0806346 0.01875 46.2676
2.71051e-20 -0.0827889 0.00029129 942.891
2.52435e-29 -0.0818746 0.0122925 24.9486
0 -0.0812502 0.0159052 29.5477
2.58494e-26 -0.0791259 0.024375 1127.73
1.03398e-25 -0.0793188 0.02375 926.774
-2.34902e-20 -0.0795042 0.023125 733.462
1.61559e-27 -0.0803482 0.02 85.6456
5.42101e-20 -0.0827983 0.00089054 197.44
2.71051e-20 -0.0797754 0.0221875 196.642
1.53083e-20 -0.0800466 0.02125 128.075
0 -0.0828054 0.00151904 90.1655
0 -0.0818746 0.0125 24.4914
0 -0.0792521 0.0240625 1258.94
0 -0.0821872 0.0103125 26.3721
-2.71051e-20 -0.0828097 0.00216304 56.16
-2.5916e-20 -0.0824999 0.0075 33.2414
-5.42101e-20 -0.0828117 0.00280384 41.429
0 -0.0812502 0.01625 29.5439
8.27181e-25 -0.079 0.025 1258.94
2.71051e-20 -0.0803406 0.0203125 58.8595
-2.71051e-20 -0.0815624 0.0146875 25.0603
0 -0.0809424 0.0178125 33.5247
2.71051e-20 -0.0828123 0.0034357 36.0163
6.24928e-21 -0.0824999 0.008125 30.9068
-5.04871e-29 -0.082822 0.00374965 33.6523
-2.71051e-20 -0.0821872 0.0109375 24.1693
0 -0.0828124 0.00406232 31.3587
0 -0.0818746 0.013125 23.6666
0 -0.0806346 0.019375 46.281
2.71051e-20 -0.0828124 0.00468749 29.1003
-2.64998e-21 -0.0824999 0.00875 28.7382
2.71051e-20 -0.0797754 0.0228125 197.65
-1.39319e-20 -0.0795042 0.02375 733.592
-2.4683e-20 -0.0800466 0.021875 128.726
0 -0.0828124 0.0053125 32.0038
3.23117e-27 -0.0812502 0.016875 29.6299
0 -0.0815624 0.0153125 25.0094
0 -0.0821873 0.0115625 22.4462
5.42101e-20 -0.0792521 0.0246875 1258.92
-2.71051e-20 -0.0809424 0.0184375 33.4199
1.00974e-28 -0.0818746 0.01375 23.3692
0 -0.0803406 0.0209375 59.5718
0 -0.0828125 0.0059375 34.0674
1.59613e-20 -0.0824999 0.009375 26.5727
0 -0.079 0.025625 1258.95
0 -0.0818746 0.0140175 23.3937
-2.71051e-20 -0.0828125 0.0065625 33.4878
3.23117e-27 -0.0806346 0.02 46.4032
2.71051e-20 -0.0821873 0.0121875 21.238
4.1359e-25 -0.0831036 2.44088e-09 941.913
6.12758e-22 -0.0824999 0.01 24.4411
0 -0.0815624 0.0159375 25.2801
0 -0.0831107 0.000583608 573.536
0 -0.0812502 0.0175 29.8286
0 -0.0805237 0.020625 61.9263
-2.71051e-20 -0.0828125 0.0071875 30.6167
0 -0.0831175 0.00119843 147.113
1.00974e-28 -0.0818746 0.014375 23.4265
1.29247e-26 -0.083122 0.00184061 76.3274
2.71051e-20 -0.0797754 0.0234375 198.149
6.24669e-21 -0.0800466 0.0225 129.359
2.71051e-20 -0.0809424 0.0190625 33.4671
-4.01296e-21 -0.0795042 0.024375 733.376
0 -0.0831241 0.00248621 51.9625
0 -0.0821873 0.0128125 20.9142
0 -0.0828124 0.0078125 28.0707
1.51368e-21 -0.0824999 0.010625 22.4992
-8.07794e-28 -0.0831248 0.00312186 41.6806
0 -0.0803406 0.0215625 59.6261
0 -0.0792521 0.0253125 1258.96
0 -0.083125 0.00374968 35.4118
2.71051e-20 -0.0815624 0.0165625 25.5693
0 -0.0806346 0.020625 46.6962
-1.52887e-20 -0.0818746 0.015 23.5598
-3.15544e-29 -0.083125 0.00436103 30.6771
1.57772e-30 -0.083125 0.004375 30.569
0 -0.0828125 0.0084375 26.0771
-8.27181e-25 -0.079 0.02625 1258.91
1.61559e-27 -0.0812502 0.018125 29.9692
3.30905e-20 -0.0824999 0.01125 21.018
1.13117e-20 -0.083125 0.005 30.009
-2.71051e-20 -0.0821872 0.0134375 20.9792
0 -0.0809424 0.0196875 33.7248
0 -0.0828125 0.0090625 24.1221
-1.92994e-20 -0.083125 0.005625 31.5176
-2.01175e-20 -0.0800466 0.023125 129.646
2.71051e-20 -0.0797754 0.0240625 198.223
-1.10772e-20 -0.0795042 0.025 732.638
-5.42101e-20 -0.0803406 0.0221875 59.9896
1.43039e-20 -0.0824999 0.011875 20.1249
-2.2057e-20 -0.0818746 0.015625 23.8101
-2.71051e-20 -0.0815624 0.0171875 25.8143
-8.07794e-28 -0.0806023 0.02125 51.4428
-1.92994e-20 -0.083125 0.00625 31.3773
0 -0.0828124 0.0096875 22.2079
-2.71051e-20 -0.0821872 0.0140625 21.3981
-8.07794e-28 -0.0812502 0.01875 30.1598
0 -0.0806346 0.02125 46.986
-2.71051e-20 -0.0792521 0.0259375 1258.95
-1.52159e-20 -0.083125 0.006875 29.2434
0 -0.0824786 0.0125 20.0961
-5.04871e-29 -0.0818746 0.0160046 24.0104
-2.71051e-20 -0.0834239 0.000291594 940.939
0 -0.0834291 0.000890967 203.019
0 -0.0824999 0.0125 19.9413
8.27181e-25 -0.079 0.026875 1258.87
2.71051e-20 -0.0834334 0.00151954 96.479
8.07794e-28 -0.0806346 0.0214965 47.0436
-2.71051e-20 -0.0828125 0.0103125 20.4143
2.71051e-20 -0.0809424 0.0203125 33.8612
3.15544e-30 -0.0824999 0.012607 20.0042
-2.96572e-21 -0.083125 0.0075 26.6292
2.71051e-20 -0.083436 0.00216346 62.4754
0 -0.0818746 0.01625 24.1399
0 -0.0834371 0.00280405 47.8678
0 -0.0815624 0.0178125 26.3021
2.71051e-20 -0.0821872 0.0146875 21.8839
2.45508e-20 -0.0800466 0.02375 129.539
5.42101e-20 -0.0797754 0.0246875 197.316
2.71051e-20 -0.0834374 0.00343577 41.4331
5.42101e-20 -0.0803406 0.0228125 59.9431
-2.94934e-20 -0.083125 0.008125 24.5639
1.61559e-27 -0.0812502 0.019375 30.4506
-5.42101e-20 -0.0828124 0.0109375 19.0419
-1.35223e-20 -0.0795042 0.025625 731.279
0 -0.0834375 0.00406234 32.8477
-6.31089e-30 -0.0824999 0.013125 20.309
0 -0.0806346 0.021875 47.132
-2.71051e-20 -0.0834375 0.0046875 28.9697
-1.72431e-20 -0.083125 0.00875 22.7663
5.42101e-20 -0.0792521 0.0265625 1258.87
0 -0.0818746 0.016875 24.4689
-5.42101e-20 -0.0821872 0.0153125 22.2842
0 -0.0834375 0.0053125 29.9621
0 -0.0809424 0.0209375 34.1258
0 -0.0828125 0.0115625 18.4151
0 -0.0815624 0.0184375 26.5972
0 -0.0824999 0.01375 20.846
-2.71051e-20 -0.0834375 0.0059375 30.0373
8.27181e-25 -0.079 0.0275 1258.89
7.2573e-21 -0.083125 0.009375 21.0378
0 -0.0824999 0.0138484 20.936
0 -0.0812502 0.02 30.6909
-9.09221e-21 -0.0800466 0.024375 128.972
2.71051e-20 -0.0803406 0.0234375 59.6083
0 -0.0797754 0.0253125 195.221
-2.71051e-20 -0.0834375 0.0065625 27.9171
2.71051e-20 -0.0828125 0.0121875 18.4006
-1.91445e-20 -0.0806346 0.0225 47.1671
5.42101e-20 -0.0821872 0.0159375 22.6653
0 -0.0818746 0.0175 24.871
-4.96392e-21 -0.083125 0.01 19.5081
-6.49192e-21 -0.0795042 0.02625 729.319
4.1359e-25 -0.083739 2.96576e-09 939.953
0 -0.0824999 0.014375 21.4178
0 -0.0837422 0.000583971 574.365
-2.71051e-20 -0.0834375 0.0071875 24.9523
0 -0.0837459 0.00119887 151.614
-5.42101e-20 -0.0815624 0.0190625 27.1243
2.71051e-20 -0.0809424 0.0215625 34.2513
0 -0.0837484 0.00184095 82.3386
0 -0.0792521 0.0271875 1258.88
-6.46235e-27 -0.0837496 0.00248638 58.4637
2.71051e-20 -0.0828124 0.0128125 19.2125
1.13985e-20 -0.083125 0.010625 18.383
2.71051e-20 -0.0834375 0.0078125 22.8775
0 -0.0837499 0.0031219 47.8028
0 -0.0812502 0.020625 30.9088
0 -0.08375 0.00374969 39.1471
2.71051e-20 -0.0821872 0.0165625 23.0435
-1.53687e-20 -0.0824999 0.015 21.9074
1.00974e-28 -0.0818746 0.018125 25.3539
-8.27181e-25 -0.079 0.028125 1258.98
-3.48429e-21 -0.0800466 0.025 127.727
0 -0.0834375 0.0084375 21.2309
-5.20648e-29 -0.08375 0.00436725 31.4156
-2.32377e-20 -0.08375 0.004375 31.3186
2.71051e-20 -0.0803406 0.0240625 58.9232
7.34432e-21 -0.083125 0.01125 17.8354
-3.16601e-20 -0.0806346 0.023125 46.892
8.13152e-20 -0.0797754 0.0259375 191.823
-2.71051e-20 -0.0828125 0.0134375 20.1303
-2.32377e-20 -0.08375 0.005 28.6795
-2.71051e-20 -0.0815624 0.0196875 27.4566
-1.17431e-20 -0.0795042 0.026875 726.973
0 -0.0834375 0.0090625 19.6356
-2.71051e-20 -0.0809424 0.0221875 34.29
-2.32377e-20 -0.08375 0.005625 28.4411
2.71051e-20 -0.0821872 0.0171875 23.4474
1.19748e-20 -0.0824999 0.015625 22.2936
1.34839e-20 -0.083125 0.011875 17.9625
4.20678e-20 -0.08375 0.00625 26.9736
0 -0.0812502 0.02125 31.1331
-2.71051e-20 -0.0792521 0.0278125 1258.91
0 -0.0818746 0.01875 25.9055
2.71051e-20 -0.0828124 0.0140625 20.8765
0 -0.0834375 0.0096875 18.1861
0 -0.082891 0.01375 20.8925
0 -0.081134 0.021875 34.2919
4.20678e-20 -0.08375 0.006875 24.3775
0 -0.0803406 0.0246875 58.1646
1.12329e-20 -0.0800466 0.025625 125.742
-3.15544e-30 -0.0830222 0.013125 19.9907
0 -0.0815624 0.0203125 27.692
0 -0.0840556 0.000291911 938.971
2.44803e-20 -0.0806346 0.02375 46.3498
4.20674e-20 -0.083125 0.0125 18.7667
0 -0.0840581 0.000891431 204.092
0 -0.0824999 0.0161471 22.5867
0 -0.079 0.02875 1259.2
0 -0.0834375 0.0103125 17.2242
-2.71051e-20 -0.0840604 0.00151995 101.511
-2.71051e-20 -0.0797754 0.0265625 187.385
0 -0.0824999 0.01625 22.6445
-1.91543e-20 -0.08375 0.0075 22.0485
2.71051e-20 -0.0840618 0.00216369 68.8539
5.42101e-20 -0.0821872 0.0178125 23.9191
0 -0.0809424 0.0228125 34.071
-2.71051e-20 -0.0828124 0.0146875 21.5128
-2.71051e-20 -0.0840623 0.00280416 54.7359
-1.93473e-20 -0.0795042 0.0275 724.605
2.71051e-20 -0.0840625 0.00343579 47.2028
0 -0.0818746 0.019375 26.4629
-2.32377e-20 -0.08375 0.008125 20.3625
0 -0.0812502 0.021875 31.3048
2.71051e-20 -0.0834375 0.0109375 16.8518
0 -0.083125 0.013125 19.928
2.71051e-20 -0.0840625 0.00406235 35.1185
-4.03897e-28 -0.0812502 0.0220194 31.3205
0 -0.0840625 0.0046875 28.3395
-2.71051e-20 -0.0792521 0.0284375 1259.05
-7.93489e-22 -0.08375 0.00875 18.9414
0 -0.0815624 0.0209375 27.9273
0 -0.0824999 0.016875 23.0045
0 -0.0828124 0.0153125 21.9487
0 -0.0821873 0.0184375 24.596
-2.71051e-20 -0.0840625 0.0053125 27.4465
-2.71051e-20 -0.0803406 0.0253125 56.9587
0 -0.0834375 0.0115625 17.0329
-2.36362e-20 -0.0806346 0.024375 45.6975
8.7524e-21 -0.0800466 0.02625 123.184
3.18738e-20 -0.083125 0.01375 20.9203
5.42101e-20 -0.0809424 0.0234375 33.5684
-2.71051e-20 -0.0840625 0.0059375 26.3183
9.40053e-21 -0.08375 0.009375 17.7603
5.42101e-20 -0.0797754 0.0271875 182.418
-4.03897e-28 -0.0818746 0.02 26.8645
0 -0.079 0.029375 1259.48
0 -0.0812502 0.0225 31.3725
0 -0.0840625 0.0065625 23.6216
0 -0.0834375 0.0121875 18.0015
-2.71051e-20 -0.0828125 0.0159375 22.2761
4.02684e-20 -0.0795042 0.028125 722.62
0 -0.0824999 0.0175 23.4481
5.31712e-21 -0.08375 0.01 16.9626
-4.84789e-21 -0.083125 0.014375 21.5925
0 -0.0815624 0.0215625 28.1996
0 -0.0821872 0.0190625 25.3035
0 -0.0840625 0.0071875 21.0192
0 -0.08437 3.37202e-09 938.318
2.06795e-25 -0.0843712 0.000584294 574.406
-1.03398e-25 -0.084373 0.00119921 154.64
0 -0.0843743 0.00184118 87.6044
-1.29247e-26 -0.0843748 0.00248648 64.684
5.42101e-20 -0.0792521 0.0290625 1259.35
-5.42101e-20 -0.0834375 0.0128125 19.4523
3.75419e-21 -0.0806346 0.025 45.0171
-8.96031e-21 -0.08375 0.010625 16.6446
-2.71051e-20 -0.0803406 0.0259375 55.7543
2.71051e-20 -0.0840625 0.0078125 19.345
-8.07794e-28 -0.0818746 0.020625 27.1391
-1.61559e-27 -0.084375 0.00312193 53.9693
-2.08207e-20 -0.0800466 0.026875 120.297
0 -0.0809424 0.0240625 32.9215
5.42101e-20 -0.0828125 0.0165625 22.5932
0 -0.084375 0.00374969 43.6561
5.91646e-31 -0.0824999 0.0181182 24.0594
-2.66241e-29 -0.0824991 0.018125 24.0664
-1.09585e-20 -0.083125 0.015 22.0353
7.88861e-31 -0.0824999 0.0181651 24.1152
-3.53602e-20 -0.0812502 0.023125 31.2449
0 -0.0797754 0.0278125 177.784
5.42101e-20 -0.0840625 0.0084375 17.9969
-1.41995e-29 -0.084375 0.00436891 32.8405
-1.57772e-30 -0.084375 0.004375 32.7342
3.28992e-21 -0.08375 0.01125 16.8779
0 -0.079 0.03 1259.58
2.71051e-20 -0.0821872 0.0196875 25.9663
2.71051e-20 -0.0834375 0.0134375 20.917
3.15544e-30 -0.0829448 0.01625 22.5964
2.77904e-20 -0.084375 0.005 27.3008
-2.71051e-20 -0.0815624 0.0221875 28.4506
-2.11597e-20 -0.0795042 0.02875 721.329
2.71051e-20 -0.0840625 0.0090625 16.9023
-1.91543e-20 -0.084375 0.005625 25.5445
0 -0.0828124 0.0171875 22.9339
5.37398e-21 -0.083125 0.015625 22.3156
-4.03897e-28 -0.0818746 0.02125 27.385
-4.8769e-21 -0.08375 0.011875 17.7744
0 -0.0824999 0.01875 24.8324
-1.09875e-20 -0.084375 0.00625 23.4286
-2.63684e-21 -0.0806346 0.025625 44.4047
-2.71051e-20 -0.0834375 0.0140625 21.7576
5.42101e-20 -0.0803406 0.0265625 54.6281
0 -0.0840625 0.0096875 16.3173
2.71051e-20 -0.0809424 0.0246875 32.4049
-2.71051e-20 -0.0792521 0.0296875 1259.61
1.7741e-20 -0.0800466 0.0275 117.441
-1.72257e-21 -0.0812502 0.02375 30.9031
-2.93483e-20 -0.084375 0.006875 20.8603
2.71051e-20 -0.0821873 0.0203125 26.3427
-4.8769e-21 -0.08375 0.0125 19.2723
0 -0.0846844 0.00029213 937.666
-2.71051e-20 -0.0846854 0.000891778 205.923
0 -0.0797754 0.0284375 174.224
2.71051e-20 -0.0815624 0.0228125 28.6519
0 -0.0840625 0.0103125 16.1229
0 -0.083125 0.01625 22.5769
2.71051e-20 -0.0846865 0.00152022 105.66
-2.71051e-20 -0.0828125 0.0178125 23.4919
3.18738e-20 -0.084375 0.0075 18.8858
2.71051e-20 -0.0846872 0.00216385 74.3501
2.71051e-20 -0.0834375 0.0146875 22.2233
0 -0.079 0.030625 1259.52
0 -0.0846874 0.00280421 60.8709
0 -0.0824999 0.019375 25.6286
0 -0.0818746 0.021875 27.6421
-5.42101e-20 -0.0846875 0.00343581 53.0985
-2.21038e-21 -0.0795041 0.029375 721.018
4.20678e-20 -0.084375 0.008125 17.5643
-2.71051e-20 -0.0840625 0.0109375 16.3795
3.28992e-21 -0.08375 0.013125 20.9288
3.15544e-30 -0.0830807 0.016875 22.9082
5.42101e-20 -0.0846875 0.00406234 39.2216
-4.76968e-21 -0.0806346 0.02625 44.0505
-2.71051e-20 -0.0809424 0.0253125 32.1729
-2.71051e-20 -0.0821872 0.0209375 26.5941
0 -0.0818746 0.0221322 27.7535
2.71051e-20 -0.0803406 0.0271875 53.6964
-5.42101e-20 -0.0846875 0.0046875 28.2587
-3.13465e-20 -0.083125 0.016875 22.9009
-1.71271e-20 -0.084375 0.00875 16.6371
7.04976e-21 -0.0812502 0.024375 30.4919
-2.71051e-20 -0.0834375 0.0153125 22.4563
2.71051e-20 -0.0828124 0.0184375 24.2572
-2.76692e-20 -0.0800466 0.028125 115.041
-2.71051e-20 -0.0792521 0.0303125 1259.56
2.71051e-20 -0.0846875 0.0053125 25.1584
2.71051e-20 -0.0840625 0.0115625 17.2474
5.42101e-20 -0.0815624 0.0234375 28.6641
4.20678e-20 -0.08375 0.01375 22.1282
0 -0.0830639 0.0175 23.4006
0 -0.0824999 0.02 26.2601
9.40053e-21 -0.084375 0.009375 16.1234
0 -0.0846875 0.0059375 23.2548
-5.42101e-20 -0.0797754 0.0290625 172.147
-1.28674e-21 -0.0818746 0.0225 27.9129
2.71051e-20 -0.0840625 0.0121875 18.8157
0 -0.0846875 0.0065625 20.5196
0 -0.0834375 0.0159375 22.5816
0 -0.083125 0.0175 23.3954
0 -0.079 0.03125 1259.51
-1.30437e-20 -0.084375 0.01 16.0151
-7.88861e-31 -0.0828725 0.01875 25.0721
2.71051e-20 -0.0821873 0.0215625 26.8183
3.28992e-21 -0.08375 0.014375 22.7311
-2.89009e-20 -0.0795041 0.03 721.471
2.71051e-20 -0.0828125 0.0190625 25.1727
-2.71051e-20 -0.0846875 0.0071875 18.2809
-2.29261e-20 -0.0806346 0.026875 43.8979
2.71051e-20 -0.0809424 0.0259375 32.3833
0 -0.084998 3.65541e-09 937.312
0 -0.0849983 0.00058451 574.94
0 -0.0849991 0.00119943 157.305
1.85936e-20 -0.0812502 0.025 30.2467
0 -0.0803406 0.0278125 52.8979
0 -0.0849997 0.00184131 91.5996
2.71051e-20 -0.0840625 0.0128125 20.8199
1.29247e-26 -0.0849999 0.00248653 69.6889
-2.71051e-20 -0.0815624 0.0240625 28.4365
0 -0.0824999 0.020625 26.6157
-7.93489e-22 -0.084375 0.010625 16.2761