# omega  POINT_DATA 30764
# x  y  z  omega
0.01 -1.57772e-30 8.31199e-08 919.81
-0.01 -7.88861e-31 8.31199e-08 928.192
-0.01 -4.1359e-25 0.000678316 1053.98
0.01 1.29247e-26 0.00067832 1042.31
0.0100335 -7.75482e-26 0.000675741 1025.83
-0.01 -1.65436e-24 0.00137373 1299.52
0.01 -2.06795e-25 0.00137372 1283.56
-0.01 3.30872e-24 0.00208696 1176.01
0.01 0 0.002087 1163.64
0.0101863 -2.06795e-25 0.00133474 1094.93
-0.0102702 0 0.000327905 928.192
0.0102702 -2.71051e-20 0.000327954 919.807
-0.0102616 -2.71051e-20 0.000986823 1181.5
0.0102619 2.71051e-20 0.000986956 1166.5
-0.0102382 -5.42101e-20 0.00161862 1419.23
0.0102389 2.71051e-20 0.00161883 1402.3
-0.0105473 0 0.000241058 853.934
-0.0105508 0 8.49672e-08 884.123
0.0105508 -2.06795e-25 8.59948e-08 868.746
-0.0105415 -1.37544e-20 0.00063654 804.387
0.0105418 3.30411e-20 0.00063661 775.78
-0.0105237 1.65436e-24 0.00126378 796.208
0.0105246 -3.7066e-21 0.00126397 752.516
-0.0105066 1.32217e-20 0.00172222 917.119
0.0105082 1.07327e-20 0.00172263 884.575
-0.0104981 0 0.00202328 960.203
0.0105003 2.71051e-20 0.00202395 951.111
-0.0104973 -3.30872e-24 0.00235191 1138.61
0.0105018 -1.65436e-24 0.00235298 1129.38
-0.0108324 5.42101e-20 0.000312949 839.294
0.0108326 0 0.000313002 816.804
-0.0108211 0 0.000935918 291.746
0.0108219 0 0.000936095 223.949
-0.0107987 2.71051e-20 0.00152672 314.415
0.0108006 -2.71051e-20 0.00152718 239.875
0.0111231 0 1.4102e-08 837.805
-0.0111231 0 1.1833e-08 863.545
-0.0111217 2.06795e-25 0.000543659 598.9
-0.0109001 -2.71051e-20 0.00228558 1315.57
-0.0111215 0 0.000612314 565.48
0.011122 2.32467e-20 0.00061238 515.677
0.0109057 -5.42101e-20 0.00228695 1306.22
-0.0109929 0 0.00190209 640.174
0.0109964 -1.6355e-20 0.00190279 594.076
-0.0111 0 0.00123237 249.294
0.0111015 -6.97231e-21 0.00123258 181.982
-0.0109856 8.27181e-25 0.00261204 1581.45
0.0109947 0 0.00261423 1579.86
-0.0114284 2.71051e-20 0.000305075 888.464
0.0114286 0 0.000305108 859.386
-0.0112129 2.93467e-20 0.00232217 1189.07
0.0112195 -3.7018e-20 0.00232367 1156.76
-0.0114246 0 0.00092111 232.529
0.0114256 0 0.00092126 151.649
-0.0113817 2.71051e-20 0.0015635 154.906
0.0113839 2.71051e-20 0.00156383 108.728
-0.0111731 -8.27181e-25 0.0027119 1501.08
-0.0114068 0 0.00210155 388.611
0.011411 2.71051e-20 0.00210244 298.136
-0.0113382 2.71051e-20 0.00256301 1843.61
0.0113467 5.42101e-20 0.00256544 1849.7
0.0117295 8.27181e-25 6.31228e-09 871.339
-0.0117295 0 4.80147e-09 902.788
-0.0117405 0 0.000519436 617.501
-0.0117423 0 0.00060318 571.507
0.0117428 -2.8802e-20 0.000603251 513.957
-0.0115321 0 0.00238301 961.481
-0.0117315 0 0.00123297 182.224
0.0117329 -2.51446e-20 0.00123324 120.254
-0.0114582 0 0.00286379 1378.82
0.011472 -6.61744e-24 0.00286721 1386.07
-0.0117202 0 0.00185692 224.085
0.0117223 -1.95545e-21 0.00185737 163.438
-0.0116915 1.03398e-25 0.00211241 524.689
-0.0116585 -1.22998e-20 0.00240709 871.401
0.0116635 -1.73079e-20 0.00240865 835.992
-0.0120571 -2.71051e-20 0.000300839 917.488
0.0120573 0 0.000300897 883.606
-0.0120651 -2.71051e-20 0.000916399 232.551
0.0120657 0 0.000916727 145.001
-0.012009 0 0.00187022 192.57
-0.0120608 2.71051e-20 0.00155099 106.586
0.0120609 -2.71051e-20 0.00155169 74.4037
-0.0118568 -2.71051e-20 0.00273895 921.725
0.0118619 2.71051e-20 0.00274195 930.189
0.012035 -2.71051e-20 0.00219403 160.243
-0.0120372 0 0.00219395 231.492
-0.0119121 0 0.00310559 1071.93
0.0119304 0 0.00311016 1108.17
0.0123683 4.1359e-25 2.71643e-09 894.095
-0.0123683 4.1359e-25 2.66988e-09 930.878
-0.0123892 1.29247e-25 0.000564544 603.505
-0.0123904 2.68541e-20 0.00059722 584.556
0.0123907 -3.57756e-21 0.000597448 523.865
-0.0123962 0 0.00122692 166.412
0.0123962 -2.56881e-20 0.00122803 106.082
-0.0123949 0 0.00129018 165.012
0.0123792 -8.31151e-21 0.00188965 94.9119
-0.0123827 -2.48876e-20 0.00188742 151.794
-0.0125417 -5.16988e-26 0.00059593 586.697
0.0123193 -2.34258e-20 0.00260601 572.733
-0.0123305 3.27564e-22 0.00260668 610.147
-0.012569 0 0.00122537 165.287
0.0122774 0 0.00301148 1283.19
-0.0122788 2.71051e-20 0.00300901 1219.71
-0.0127075 2.71051e-20 0.00029719 944.469
0.0127075 0 0.000297361 904.743
0.0127224 0 0.000910669 145.494
-0.0127228 0 0.000909514 228.083
-0.0123477 0 0.00333768 1442.76
0.0123698 0 0.00334298 1553.41
0.0127185 2.71051e-20 0.0015595 58.3444
-0.0127224 -2.71051e-20 0.00155586 96.5017
0.0126865 0 0.00223766 85.6967
-0.0127017 0 0.00223253 171.537
0.0125633 -1.3182e-20 0.00303647 1141.11
-0.0125873 3.51717e-21 0.00304271 1100.91
-0.0130258 4.1359e-25 2.56512e-09 956.295
0.0130258 0 1.94236e-09 913.009
0.0127297 2.71051e-20 0.00279908 292.749
0.0130472 8.45006e-21 0.000592235 533.214
-0.0130474 -1.70556e-20 0.000591621 593.85
-0.0127816 0 0.0028142 391.363
0.0126842 0 0.00327272 1819.72
0.0130549 -6.2357e-21 0.00122427 101.15
-0.0130573 -2.05999e-21 0.00122099 162.108
-0.0127078 2.71051e-20 0.00328029 1662.8
0.0130409 -1.47246e-20 0.00189497 62.5469
-0.0130523 -2.09264e-20 0.00188526 131.664
-0.0127679 -3.30872e-24 0.0035615 1835.7
0.0130294 1.08774e-20 0.00254415 151.149
0.0127922 0 0.0035676 1363.92
-0.0130668 9.5895e-21 0.00252843 256.784
0.0129755 2.4468e-20 0.00310441 826.671
0.0133645 -2.71051e-20 0.000294678 921.292
-0.0133647 0 0.0002943 968.145
0.013377 2.71051e-20 0.000905403 146.755
-0.0133788 -2.71051e-20 0.000902908 220.905
-0.0130842 5.05407e-21 0.00316077 1047.96
0.0133744 -5.42101e-20 0.00155542 52.4081
-0.0133828 2.71051e-20 0.00154643 100.645
-0.013073 5.42101e-20 0.00349728 2006.87
0.0133614 0 0.00222042 54.6018
-0.0133875 2.71051e-20 0.0021975 158.88
0.0131593 0 0.00342851 913.303
0.0133331 2.71051e-20 0.0028787 155.849
-0.0136859 -4.1359e-25 1.99115e-09 975.984
0.0136859 0 1.20838e-09 926.157
-0.0133972 -2.71051e-20 0.00283002 291.318
-0.0131766 3.30872e-24 0.00377904 2346.25
0.0137005 -5.48721e-21 0.000588479 540.288
-0.0137012 1.14934e-20 0.000587422 601.664
0.0132008 -6.61744e-24 0.00378645 1054.4
0.0137066 1.74041e-20 0.00121712 99.8003
-0.0137113 1.59916e-20 0.00121149 161.911
-0.0133317 1.63285e-20 0.00353346 1775.49
0.0136964 -3.48053e-20 0.00188403 48.9093
-0.0137136 -3.89168e-21 0.00186546 126.483
-0.0134741 -5.42101e-20 0.00333584 646.675
0.0136686 1.01933e-20 0.00256373 81.6097
-0.0137152 1.19267e-20 0.00251516 207.105
-0.0134565 -2.71051e-20 0.0037461 2683.38
0.0136041 1.29173e-20 0.00329192 542.436
0.0140177 2.71051e-20 0.000293139 930.994
-0.0140182 2.71051e-20 0.000292601 983.778
0.0135422 -2.71051e-20 0.0036961 1194.37
0.0140256 -5.42101e-20 0.000900278 148.196
-0.0140284 -2.71051e-20 0.000896824 220.983
-0.0137342 1.02215e-20 0.00311436 412.297
0.014023 0 0.00154615 49.9172
-0.0140338 0 0.00153371 102.897
-0.0135654 0 0.00401386 1928.55
0.0135836 0 0.00402855 1305.16
0.0140057 0 0.00221874 38.9122
-0.0137123 2.46334e-21 0.00361961 1289.6
-0.0140348 -5.42101e-20 0.00218502 143.569
0.0139704 0 0.00290901 75.7014
-0.0140398 0 0.00281908 232.776
0.0138292 3.21873e-20 0.00373726 964.515
-0.0143389 0 2.44464e-09 987.139
0.0143389 -2.06795e-25 1.44847e-09 933.161
0.0143466 -2.56822e-20 0.000586141 544.34
-0.0143476 -8.67712e-22 0.00058495 608.884
0.0143501 2.12546e-20 0.00121019 99.5505
-0.0143553 -8.05881e-22 0.00120417 162.268
-0.0138945 2.71051e-20 0.00393317 1176.7
-0.0140375 -2.71051e-20 0.00343143 443.502
0.0140303 0 0.00350658 252.279
0.0143403 -5.89904e-21 0.00187312 42.0779
-0.0143565 0 0.00185406 110.199
0.0139282 -2.71051e-20 0.00399009 1415.39
0.0143175 -4.96474e-21 0.00255235 46.3359
-0.0139239 -6.61744e-24 0.00428422 1281.88
-0.0143528 9.42903e-21 0.00250721 153.86
0.0139403 0 0.00429658 1455.21
0.0146631 -5.42101e-20 0.000292462 935.309
-0.0146635 -2.71051e-20 0.000291927 990.472
0.0143152 -4.84066e-21 0.00320649 119.314
-0.0143427 1.98358e-20 0.00314905 267.056
0.0146669 0 0.000896444 149.243
-0.0146697 -2.71051e-20 0.00089329 228.267
0.014725 -1.03398e-25 3.73197e-16 934.889
0.0146638 -2.71051e-20 0.00153733 48.824
-0.014673 0 0.00152674 94.8343
-0.0142998 -2.49858e-20 0.00383371 777.408
0.0146505 2.71051e-20 0.00220325 30.6913
0.0143063 -8.42401e-21 0.0038743 750.513
0.0148155 1.29247e-26 0.000585312 545.671
-0.0146709 -5.42101e-20 0.00217815 99.8708
-0.0142437 2.71051e-20 0.00422231 1386.83
-0.0147463 0 0.00185052 94.7406
0.014255 2.71051e-20 0.00424396 1494.92
0.0148484 -1.29247e-26 0.00120616 99.5945
0.0146399 2.71051e-20 0.00286477 41.2286
-0.0147123 5.16988e-26 0.00250555 118.978
-0.0146627 -5.42101e-20 0.00282903 137.674
-0.0149819 0 3.19382e-09 990.154
0.0149819 2.06795e-25 9.62822e-10 936.039
-0.0142803 0 0.00455271 1520.18
0.0149853 -1.27435e-20 0.000585012 546.152
-0.0149861 1.96592e-20 0.000584127 616.376
0.0142938 0 0.00456274 1589.26
0.0149869 0 0.00120504 99.6067
-0.0149906 1.37441e-21 0.00120094 163.388
0.014925 1.29247e-26 0.00186093 38.9627
-0.0146412 -2.71051e-20 0.00348482 244.502
0.0146341 2.71051e-20 0.00351739 97.884
-0.0149904 2.58494e-26 0.00167368 106.194
0.0149806 1.29247e-26 0.00185977 38.6665
0.0149792 3.87741e-26 0.00193517 37.8547
-0.0149903 -2.58494e-26 0.00184831 85.0669
-0.0145147 1.37312e-21 0.00427467 1189.64
0.0145233 -1.78406e-20 0.00429208 1166.4
0.0149685 1.03398e-25 0.00252404 31.5138
-0.0149829 0 0.0025043 92.7196
-0.0149776 0 0.00274965 110.435
-0.0147025 -2.71051e-20 0.0040589 510.978
0.0147084 0 0.00408023 299.772
0.0149582 -7.37183e-21 0.00317892 53.5912
-0.0146099 2.71051e-20 0.0045237 1653.37
-0.0149688 -1.03398e-25 0.00315684 139.836
0.0153005 0 0.000292235 936.765
-0.0153009 2.71051e-20 0.000291878 989.837
0.0146196 -2.71051e-20 0.00453529 1683.46
0.0153021 0 0.000894041 149.878
-0.0153039 -2.71051e-20 0.000892113 245.416
0.0153002 -2.71051e-20 0.00152928 48.4547
-0.0153052 0 0.00152357 82.6593
-0.0146355 -6.61744e-24 0.0048202 1751.33
0.0146456 6.61744e-24 0.00482779 1766.44
-0.0149723 2.49378e-20 0.00378401 279.675
0.0149713 -3.61147e-21 0.00380144 144.836
0.0152929 2.71051e-20 0.00218496 26.5456
-0.0153015 2.71051e-20 0.00217419 63.1023
0.0152835 0 0.00284024 27.799
-0.0152919 -2.71051e-20 0.00282667 70.382
-0.0149633 1.65767e-21 0.00442183 1007.23
0.014969 -2.689e-20 0.00443194 907.529
-0.0156169 0 3.92127e-09 987.007
0.0156169 -2.06795e-25 1.59541e-09 936.806
0.0156181 0 0.000584603 546.706
-0.0156185 -2.68137e-20 0.000584185 624.98
0.0156191 -2.58494e-26 0.0012017 99.6976
-0.0156207 -8.07576e-21 0.00119995 172.405
0.0154665 0 0.00250914 26.4729
-0.0149261 2.71051e-20 0.00477675 1849.2
0.0152816 0 0.00347878 48.0499
-0.0152852 -2.71051e-20 0.00346631 108.016
0.0149333 5.42101e-20 0.00478413 1849.37
-0.0156201 0 0.00172314 90.34
0.0156163 0 0.00184941 37.0333
-0.0156199 0 0.00184524 71.1881
-0.015472 0 0.00314795 87.507
0.0156092 -2.58494e-26 0.00250487 25.0284
-0.0156138 0 0.00249847 58.4395
-0.0152764 2.71051e-20 0.00409542 233.303
0.0152785 5.42101e-20 0.00410448 118.635
0.015608 2.58494e-26 0.00259813 25.9898
-0.0149898 0 0.00508713 2029.79
0.0149968 0 0.00509235 2015.66
0.0156006 -9.3368e-22 0.00315251 31.7049
-0.0151689 2.0931e-20 0.00482334 1555.19
-0.0156039 0 0.00314562 73.7866
0.0151743 3.30674e-20 0.00482866 1472.01
-0.0156032 2.58494e-26 0.00318287 76.7254
0.0159322 2.71051e-20 0.000292222 936.848
-0.0159323 5.42101e-20 0.000292065 984.188
0.0159282 1.29247e-26 0.000584568 546.698
0.0159329 0 0.000892712 150.236
-0.0159336 2.71051e-20 0.000891952 269.291
0.0159836 -1.03398e-25 2.31451e-21 936.763
-0.0153229 0 0.00461704 597.328
0.0159322 5.42101e-20 0.00152399 48.3606
-0.015934 5.42101e-20 0.00152204 89.5531
0.0153273 2.71051e-20 0.00462278 373.384
-0.015592 2.63953e-20 0.00378396 124.143
0.0155918 -2.09955e-20 0.0037897 64.1414
0.0159284 -2.71051e-20 0.00217342 24.5859
-0.0159311 0 0.00217013 49.3661
-0.0152682 0 0.00505663 2210.21
0.0152733 -2.71051e-20 0.00506088 2181.87
-0.0160396 0 0.00184385 75.1883
0.0159217 2.71051e-20 0.00282271 21.2715
-0.0159241 -2.71051e-20 0.00281877 51.0369
-0.0155885 -1.51771e-20 0.00438984 289.105
0.0155908 1.1468e-20 0.00439405 187.557
-0.0162467 0 4.50343e-09 979.934
0.0162467 0 1.14466e-09 936.733
0.0162034 -4.84676e-27 0.00120022 99.7223
-0.0153431 6.61744e-24 0.00535315 1601.71
0.0153477 6.61744e-24 0.00535654 1565.1
0.0162471 -2.58494e-26 0.000584533 546.69
-0.0162472 -1.19921e-20 0.00058442 633.866
0.0159122 0 0.00346529 29.7471
-0.0159131 0 0.00346161 65.6814
0.0162478 -7.61631e-21 0.00120011 99.7242
-0.0162481 2.60955e-21 0.00119968 192.383
-0.0155338 -1.73873e-20 0.00491869 1040.17
0.0162477 -6.46235e-27 0.00123764 96.0235
0.0155374 -1.64179e-20 0.00492201 961.239
0.0162469 0 0.00184409 36.2329
-0.0162477 -2.70651e-20 0.00184316 77.1724
-0.0162472 6.46235e-27 0.00193862 73.7304
-0.015901 0 0.00409355 88.9332
0.0159019 -2.71051e-20 0.00409655 59.6988
0.0162431 0 0.00249417 21.7931
-0.016244 -5.16988e-26 0.00249283 53.7468
0.0162387 0 0.00283727 22.1051
0.0162348 -2.01597e-21 0.0031392 22.3796
-0.0162354 0 0.00313774 59.7864
-0.0156894 5.42101e-20 0.00525034 993.962
0.0156925 0 0.00525277 948.695
-0.0162334 0 0.00321894 61.4068
-0.0158705 2.71051e-20 0.0047214 194.752
0.0158727 -2.71051e-20 0.00472386 173.716
0.0165604 -2.71051e-20 0.000292258 936.619
-0.0165604 -2.71051e-20 0.000292218 975.689
0.0165607 0 0.000892189 150.343
-0.0165609 -2.71051e-20 0.000892028 295.427
0.0165606 2.71051e-20 0.00152156 48.2947
-0.016561 2.71051e-20 0.00152113 112.481
-0.0162196 3.04857e-21 0.00378044 72.6123
0.0162198 2.77449e-20 0.00378182 36.2101
-0.0156952 -1.32349e-23 0.00561829 1099.87
0.0156978 0 0.00562028 1055.61
0.0165588 2.71051e-20 0.00216766 23.5392
-0.0165593 0 0.00216703 57.0337
-0.0161896 -2.80348e-20 0.00442818 113.231
0.0161906 -4.58093e-21 0.00442953 87.4225
0.0165536 2.71051e-20 0.00281397 17.8021
-0.016554 -2.71051e-20 0.00281321 57.5198
-0.0168738 -8.27181e-25 4.79187e-09 972.431
0.0168738 0 1.76193e-09 936.468
-0.0168739 -2.6385e-20 0.00058458 638.194
0.0168739 -3.30665e-21 0.000584593 546.529
-0.0165426 -2.71051e-20 0.00345663 64.9521
0.0165425 -5.42101e-20 0.00345738 20.7817
-0.0161125 -3.23891e-20 0.00513741 560.337
0.0161142 -1.91343e-20 0.00513878 544.862
0.0168742 2.32584e-20 0.00119965 99.6839
-0.0168743 -1.13973e-20 0.0011996 210.207
-0.0160304 0 0.00554246 1205.64
0.0168741 -3.23117e-27 0.00173829 46.1018
0.0160322 2.71051e-20 0.00554379 1162.44
-0.0168741 2.59606e-20 0.00184202 94.9946
0.0168741 -3.23117e-27 0.00184212 35.7728
-0.0165205 0 0.00410417 70.821
0.0165209 2.71051e-20 0.00410496 34.4508
-0.0168728 0 0.00226207 78.663
0.016872 0 0.00248968 20.0024
-0.0168721 0 0.00248953 69.8195
-0.0160456 0 0.00588237 1336.71
0.0160471 1.32349e-23 0.0058834 1289.46
0.0168085 3.23117e-27 0.00313289 17.955
-0.0168654 0 0.00313207 72.587
0.0168654 0 0.00313226 17.5163
-0.0164772 0 0.00477307 95.8418
0.0168651 0 0.00314347 17.6151
0.0164781 -2.71051e-20 0.00477392 78.9944
-0.0168631 0 0.003224 73.1608
0.0171867 0 0.000292305 936.318
-0.0171867 -2.71051e-20 0.000292302 969.177
0.0171869 -5.42101e-20 0.000892117 150.334
-0.0171869 5.42101e-20 0.000892093 301.86
0.0171304 -3.23117e-27 0.0018419 35.6614
-0.0163088 3.81827e-21 0.00559077 970.809
0.01631 -2.74889e-20 0.00559165 955.894
0.0171869 0 0.00152074 48.2309
-0.0171869 0 0.00152071 128.429
-0.0168494 1.65635e-20 0.00377631 76.608
0.0168495 2.06795e-25 0.00377656 23.1936
0.017186 0 0.00216542 22.9237
-0.0171861 0 0.00216535 81.7877
-0.016518 0 0.00536714 199.038
0.016519 0 0.00536792 251.733
-0.0168212 -2.7426e-20 0.00443102 84.5436
0.0168216 -7.55629e-21 0.00443137 43.4382
-0.0163928 0 0.00584542 1467.6
0.0163937 -2.71051e-20 0.00584612 1416.37
0.0171824 -5.42101e-20 0.0028096 15.7587
-0.0171824 2.71051e-20 0.00280953 82.8211
-0.0174996 8.27181e-25 4.65707e-09 967.966
0.0174996 0 2.44541e-09 936.21
-0.0163956 1.32349e-23 0.00614428 1511.3
-0.0174996 -2.87625e-20 0.000584661 631.599
0.0174996 1.82335e-20 0.00058466 546.387
0.0163962 0 0.00614484 1461.41
-0.0171728 2.71051e-20 0.00345119 84.9705
0.0171728 2.71051e-20 0.00345131 15.7729
-0.0174998 8.83636e-22 0.0011996 209.852
0.0174998 -3.5115e-20 0.0011996 99.6478
-0.0168072 5.71251e-21 0.00507468 121.883
0.0168078 6.49833e-21 0.00507511 118.615
-0.0174997 1.28346e-20 0.00184159 112.041
0.0174997 0 0.00184159 35.5008
-0.0174392 -1.29247e-26 0.00248806 92.53
0.0174993 0 0.00212676 28.1862
-0.0171543 -2.71051e-20 0.00409713 85.6916
0.0171545 2.71051e-20 0.00409729 21.9557
0.0174987 0 0.00248791 18.9229
-0.0174987 3.00084e-20 0.00248791 94.911
-0.0174983 -8.07794e-27 0.0025547 94.9346
-0.0167741 -1.40819e-20 0.00574438 740.625
0.0167746 -2.89381e-20 0.00574481 749.921
-0.0174944 0 0.00312778 95.1373
0.0174944 0 0.00312779 14.7152
-0.0171359 0 0.00474309 86.5291
0.0171362 2.71051e-20 0.00474333 39.5957
-0.0167048 2.71051e-20 0.00611288 1554.94
0.0167053 0 0.00611327 1506.41
0.0174921 0 0.00326562 15.1021
-0.017491 0 0.00332932 95.1538
0.0178123 0 0.000292339 936.102
-0.0178123 2.71051e-20 0.000292339 966.754
-0.0178123 2.71051e-20 0.000892127 277.881
0.0178123 0 0.000892128 150.343
-0.0178123 2.71051e-20 0.00152058 128.913
0.0178123 2.71051e-20 0.00152058 48.2031
-0.0174836 0 0.00376687 95.1897
0.0174836 -2.85326e-20 0.00376691 16.5091
-0.0167191 0 0.00643605 1550.13
0.0167195 -1.32349e-23 0.0064363 1500.89
-0.0178119 -2.71051e-20 0.00216457 108.908
0.0178119 0 0.00216457 22.5719
-0.017115 2.71051e-20 0.00539431 100.878
0.0171154 -2.71051e-20 0.0053946 94.5451
-0.0174667 2.24863e-20 0.00441055 93.2002
0.0174668 -1.13948e-20 0.00441062 25.0873
-0.0178098 0 0.00280703 106.054
0.0178098 2.71051e-20 0.00280703 14.4569
-0.0169664 -1.63517e-20 0.00617963 1099.97
0.0169667 -3.2174e-20 0.00617988 1103.69
-0.0181249 0 4.21997e-09 966.489
0.0181249 4.1359e-25 2.86614e-09 936.062
-0.0178039 0 0.00344471 106.569
0.0178039 0 0.00344474 12.8943
-0.0181249 -3.85977e-20 0.000584697 616.365
0.0181249 -1.09298e-20 0.000584697 546.316
-0.0181249 2.39707e-21 0.00119962 197.933
0.0181249 8.70282e-21 0.00119962 99.6395
-0.0174472 6.40238e-22 0.00505795 94.3089
0.0174474 -2.01088e-21 0.00505807 49.9636
-0.017167 2.71051e-20 0.00597246 172.506
0.0171673 2.71051e-20 0.0059727 285.148
-0.0170427 2.71051e-20 0.00643802 1545.31
-0.0181249 1.05281e-20 0.00184147 127.49
0.0181249 -8.46848e-21 0.00184147 35.359
0.0170429 2.71051e-20 0.0064382 1495.37
-0.017793 0 0.00408287 103.383
0.017793 -2.71051e-20 0.00408289 15.5405
0.0181245 0 0.00242071 20.0477
-0.0181245 -8.62362e-22 0.0024871 120.153
0.0181245 0 0.0024871 18.2928
-0.0179092 -1.29247e-26 0.00376081 106.067
-0.0170214 0 0.00674877 1528.14
0.0170216 0 0.00674896 1476.31
-0.0181236 0 0.00276481 119.117
-0.017444 1.04175e-20 0.00568992 118.488
0.0174442 1.67554e-20 0.00569009 133.768
0.0179748 1.29247e-26 0.00375989 13.6854
-0.0181225 0 0.00312454 117.776
0.0181225 0 0.00312455 13.0761
-0.0177779 0 0.00472459 97.2341
0.017778 5.42101e-20 0.00472464 23.5416
-0.0184375 5.42101e-20 0.000292351 966.223
0.0184375 0 0.000292351 936.022
-0.0184375 0 0.000892166 243.417
0.0184375 0 0.000892167 150.347
-0.0184374 -2.71051e-20 0.00152054 139.706
0.0184374 5.42101e-20 0.00152054 48.1969
-0.0181171 0 0.00375785 111.38
0.0181172 -1.29247e-26 0.00375786 12.8668
0.0183571 8.07794e-28 0.00248696 18.1809
0.0181149 -1.29247e-26 0.00390339 13.735
-0.0174092 1.64907e-20 0.00635339 742.994
0.0174094 -1.62855e-20 0.0063535 761.606
-0.0181139 -1.29247e-26 0.00395904 108.604
-0.017766 0 0.0053638 92.9971
0.0177661 0 0.00536388 43.0955
-0.0184373 -2.71051e-20 0.0021642 132.388
0.0184373 0 0.0021642 22.4053
-0.0173271 -5.42101e-20 0.00672776 1510.97
0.0173272 -5.42101e-20 0.00672785 1457.25
-0.0181071 -2.58494e-26 0.00439391 102.603
0.0181071 0 0.00439392 16.6614
0.0184364 -2.71051e-20 0.0028054 13.766
-0.0184364 0 0.0028054 133.207
-0.0173238 0 0.00706122 1493.69
0.0173239 1.32349e-23 0.00706123 1442.56
-0.0177469 0 0.00601017 102.997
0.017747 -2.71051e-20 0.00601025 99.0177
-0.01875 0 3.911e-09 964.984
0.01875 0 3.03741e-09 936.007
-0.0184337 -5.42101e-20 0.00343972 125.189
0.0184337 -2.71051e-20 0.00343972 11.1953
-0.01875 -1.26451e-20 0.000584711 604.917
0.01875 2.2678e-20 0.000584711 546.3
-0.0180931 -5.0243e-21 0.00503408 94.9456
0.0180932 -2.72424e-20 0.00503411 26.7403
-0.01875 2.04613e-21 0.00119964 199.301
0.01875 2.40119e-20 0.00119964 99.6525
-0.01875 2.73405e-20 0.00184144 155.57
0.01875 -7.18265e-21 0.00184144 35.3133
-0.0175849 -3.02814e-20 0.0067982 1064.39
0.017585 1.41746e-20 0.00679825 1063.54
-0.0184279 0 0.00407228 110.313
0.0184279 0 0.0040723 11.8877
-0.0187498 -1.29247e-26 0.00248672 147.237
0.0187498 1.90868e-20 0.00248672 17.9919
0.0187496 -3.23117e-27 0.00268031 16.213
-0.0180758 3.02004e-20 0.00567801 93.8654
0.0180758 -1.76893e-20 0.00567802 52.4882
-0.0184331 0 0.00438832 101.953
-0.0177903 0 0.00659091 174.115
0.0177904 2.71051e-20 0.00659097 277.524
-0.0187494 0 0.00293789 138.173
0.0184871 2.58494e-26 0.00438741 14.0031
0.0187492 6.46235e-27 0.00312276 12.1471
-0.0187492 0 0.00312276 134.459
-0.0184184 8.13152e-20 0.0047076 99.4295
0.0184184 5.42101e-20 0.0047076 15.8363
-0.0176528 5.42101e-20 0.00706059 1476.4
0.0176528 2.71051e-20 0.00706062 1427.87
-0.0190625 -5.42101e-20 0.000292356 963.745
0.0190625 -2.71051e-20 0.000292356 935.992
-0.0190625 -5.42101e-20 0.000892176 234.758
0.0190625 -2.71051e-20 0.000892176 150.366
-0.0176265 0 0.00737367 1473.38
0.0176265 0 0.00737369 1422.81
-0.0187471 0 0.00375263 117.482
0.0187471 0 0.00375264 10.7338
0.0190625 2.71051e-20 0.00152054 48.234
-0.0190625 0 0.00152054 178.169
-0.0180691 -7.0939e-21 0.00630978 119.341
0.0180692 1.15441e-20 0.00630982 132.538
-0.0184047 0 0.0053471 90.1836
0.0184047 5.42101e-20 0.00534713 24.7278
0.0190624 2.71051e-20 0.00216406 22.3655
-0.0190624 2.71051e-20 0.00216406 171.993
-0.0187422 2.58494e-26 0.00438303 101.337
0.0187422 0 0.00438304 12.2184
0.0190622 2.71051e-20 0.00280458 13.469
-0.0190622 0 0.00280458 151.389
0.019294 -5.16988e-26 6.84918e-45 935.99
-0.0180246 8.41077e-21 0.00697622 729.784
0.0180246 1.06806e-20 0.00697632 734.563
0.0187368 -1.29247e-26 0.00474645 14.9424
-0.0183915 2.71051e-20 0.00598567 89.4997
0.0183916 -2.71051e-20 0.00598568 43.8699
-0.0187352 1.29247e-26 0.00485588 92.2318
0.0190612 -2.71051e-20 0.00343712 10.1652
-0.0190612 -2.71051e-20 0.00343712 128.074
-0.019375 0 4.06668e-09 961.192
0.019375 -1.03398e-25 4.52376e-10 935.988
0.019375 -5.16988e-26 0.000278199 750.58
-0.019375 -1.08671e-20 0.000584717 609.834
0.019375 1.76076e-21 0.000584716 546.301
-0.0179362 0 0.00735206 1470.36
0.0179362 -2.71051e-20 0.00735208 1417.75
0.0187328 0 0.00501785 16.9768
-0.0187328 0 0.00501785 89.1129
-0.019375 4.87716e-21 0.00119964 230.531
0.019375 -2.11879e-20 0.00119964 99.6814
-0.019375 3.2838e-21 0.00184143 194.408
0.019375 7.59467e-21 0.00184143 35.3259
-0.0190587 2.71051e-20 0.00406623 106.307
0.0190587 -2.71051e-20 0.00406624 9.70145
0.0179293 -1.32349e-23 0.00768642 1410.3
-0.0179292 0 0.00768646 1461.03
-0.0188727 1.9387e-26 0.00501563 85.349
-0.0183671 -2.71051e-20 0.00663351 106.162
0.0183672 2.71051e-20 0.00663353 97.3585
-0.019375 2.75561e-21 0.0024866 165.579
0.019375 -2.49041e-20 0.0024866 17.8692
-0.0187185 -1.85681e-20 0.00565746 82.8067
0.0187186 8.00339e-21 0.00565747 27.3189
-0.0193457 -2.01948e-27 0.00312215 134.875
0.0193748 0 0.00300214 12.7932
-0.0190533 -5.42101e-20 0.00469698 89.2967
0.0190533 5.42101e-20 0.00469699 11.5144
0.0193748 0 0.00312212 11.6119
-0.0193748 1.79074e-21 0.00312212 134.895
0.018974 2.58494e-26 0.00501401 15.0559
-0.0193748 -2.62533e-27 0.00313579 134.288
0.0181955 1.40488e-20 0.00742325 1040.96
-0.0181955 -1.78142e-20 0.00742325 1061.68
-0.0196875 0 0.000292358 958.64
0.0196875 -2.71051e-20 0.000292358 935.983
-0.0196875 2.71051e-20 0.00089218 270.944
0.0196875 0 0.00089218 150.387
0.0186985 2.20626e-20 0.0063019 52.225
-0.0186985 -4.33112e-21 0.0063019 86.6632
-0.0193742 0 0.00375048 106.995
0.0193742 -6.46235e-27 0.00375048 9.4356
0.0196875 -2.71051e-20 0.00152054 48.2721
-0.0196875 -2.71051e-20 0.00152054 237.608
-0.0184047 0 0.00721591 231.063
0.0184047 -2.71051e-20 0.00721592 272.758
-0.0190436 -2.71051e-20 0.00533179 77.5803
0.0190437 -2.71051e-20 0.00533179 15.9959
0.0196875 0 0.00216401 22.3836
-0.0196875 0 0.00216401 189.809
-0.0182613 -2.71051e-20 0.00768613 1451.68
0.0182613 -2.71051e-20 0.00768613 1402.84
-0.0193723 2.58494e-26 0.00437779 86.0051
0.0193723 2.58494e-26 0.00437779 9.62604
-0.0196874 -5.42101e-20 0.00280433 149.277
0.0196874 0 0.00280433 13.3031
-0.0182323 1.32349e-23 0.00799942 1448.28
0.0182323 0 0.00799942 1399.04
-0.0186874 -1.56635e-20 0.00693493 134.871
0.0186875 -8.69863e-21 0.00693493 130.361
-0.0190287 0 0.00597154 74.0331
0.0190287 2.71051e-20 0.00597155 24.9028
-0.0196872 -2.71051e-20 0.00343614 110.953
0.0196872 0 0.00343614 9.52172
-0.02 0 4.58353e-09 955.685
0.02 2.06795e-25 9.31731e-10 935.982
-0.0193674 5.16988e-26 0.00500776 72.037
0.0193674 5.16988e-26 0.00500776 11.9235
0.02 2.58494e-26 0.000467287 624.566
-0.02 -2.93322e-20 0.000584718 640.237
0.02 1.94111e-20 0.000584716 546.308
0.0197647 0 0.00312203 11.4149
-0.02 1.65118e-20 0.00119965 285.269
0.02 0 0.00119965 99.7127
0.0193627 -2.58494e-26 0.0053074 14.3178
-0.02 -2.31078e-20 0.00184143 219.339
0.02 2.54179e-20 0.00184143 35.372
-0.0193617 0 0.00537141 68.1318
-0.0196863 -2.71051e-20 0.00406358 82.6782
0.0196863 0 0.00406358 8.35693
0.0186372 1.21629e-20 0.00760237 722.251
-0.0186372 7.25272e-21 0.00760238 752.544
-0.0190127 5.42101e-20 0.0066109 77.2717
0.0190127 0 0.00661089 43.5674
-0.02 -3.17406e-20 0.00248657 161.899
0.02 -9.18417e-21 0.00248657 17.8353
0.0193574 -3.55832e-21 0.00564266 16.9966
-0.0193574 0 0.00564266 65.2188
-0.0185451 -2.71051e-20 0.00797829 1444.88
0.0185451 0 0.00797829 1395.23
-0.0196838 0 0.00469127 65.7776
0.0196838 -2.71051e-20 0.00469127 8.9535
-0.02 -8.44252e-21 0.00312197 115.454
0.02 0 0.00312197 11.296
0.02 1.21169e-27 0.00325494 10.7313
-0.0199999 0 0.00339841 100.987
0.0185356 0 0.00831268 1389.49
-0.0185355 0 0.00831272 1437.69
-0.0203125 2.71051e-20 0.000292358 952.729
0.0203125 -2.71051e-20 0.000292358 935.98
-0.0189844 0 0.00725983 117.06
0.0189845 -2.71051e-20 0.00725984 95.9958
0.0203125 2.71051e-20 0.000892183 150.407
-0.0203125 2.71051e-20 0.000892183 368.534
0.0193417 2.21875e-20 0.00628271 27.2584
-0.0193417 -2.52017e-20 0.00628271 65.3156
0.0199998 1.61559e-27 0.00374985 8.62976
-0.0199998 0 0.00374985 82.5965
-0.0203125 2.71051e-20 0.00152054 262.991
0.0203125 2.71051e-20 0.00152054 48.321
0.0196781 -2.71051e-20 0.00532193 11.3025
-0.0196781 0 0.00532193 55.5738
-0.0203125 0 0.002164 186.834
0.0203125 -2.71051e-20 0.002164 22.4643
0.0188063 2.14273e-20 0.00805025 1026.12
-0.0188063 3.69717e-20 0.00805025 1081.12
-0.0199992 1.29247e-26 0.00437577 62.8534
0.0199992 0 0.00437577 8.04449
-0.0196858 0 0.0056376 55.8097
0.0203125 0 0.00280427 13.2374
-0.0203125 -2.71051e-20 0.00280427 121.951
0.0193191 -2.55268e-21 0.00692789 51.805
-0.0193191 2.18326e-20 0.00692791 79.2988
0.0197507 -1.29247e-26 0.00563659 13.7131
0.0196677 0 0.00595699 15.9553
-0.0196677 -2.71051e-20 0.00595699 53.8187
-0.019019 0 0.00784353 338.311
0.019019 2.71051e-20 0.00784353 269.156
-0.0203124 -2.71051e-20 0.00343589 79.7979
0.0203124 2.71051e-20 0.00343589 9.13652
-0.0199972 0 0.00500279 51.7884
0.0199972 0 0.00500279 9.02914
-0.018871 5.42101e-20 0.00831348 1430.49
0.018871 5.42101e-20 0.00831348 1383.74
-0.020625 0 5.04458e-09 951.094
0.020625 0 1.50663e-09 935.979
0.020625 0 0.000563462 560.479
-0.020625 8.27387e-21 0.000584719 677.667
0.020625 -1.14983e-20 0.000584717 546.315
-0.020625 2.6667e-20 0.00119965 332.692
0.020625 -3.00745e-20 0.00119965 99.7477
-0.020625 6.78748e-21 0.00184143 217.81
0.020625 -2.04496e-20 0.00184143 35.4758
0.0203122 0 0.00406266 7.50515
-0.0203122 0 0.00406266 56.9885
0.0188392 0 0.00862624 1384.51
-0.0188392 0 0.00862624 1430.87
-0.0196513 -2.71051e-20 0.00659729 56.2179
0.0196513 0 0.00659729 24.842
0.0193053 7.63322e-21 0.00756209 128.471
-0.0193053 -1.72054e-22 0.00756209 171.458
-0.0199921 0 0.00563287 47.0313
0.0199921 2.58494e-26 0.00563287 11.6971
-0.020625 -1.31711e-20 0.00248657 138.343
0.020625 2.74913e-20 0.00248657 17.9002
0.0199893 5.16988e-26 0.00579857 13.0432
-0.0199888 -2.58494e-26 0.00582864 47.1343
0.0203112 0 0.00468874 7.36753
-0.0203112 2.71051e-20 0.00468874 45.9838
-0.020625 -3.85434e-20 0.00312195 87.4377
0.020625 -6.27827e-21 0.00312195 11.1357
-0.0196335 2.71051e-20 0.00723751 67.3781
0.0196335 -2.71051e-20 0.00723751 43.678
0.0192515 -5.88291e-21 0.00823193 713.721
-0.0192515 3.54364e-20 0.00823194 793.727
-0.0209375 2.71051e-20 0.000292358 949.459
0.0209375 2.71051e-20 0.000292358 935.979
0.020625 0 0.00361681 8.7652
0.0199814 3.21292e-21 0.00626807 16.8572
-0.0199814 3.17633e-20 0.00626807 47.3655
-0.020625 2.01948e-28 0.00370042 62.076
-0.0209375 -2.71051e-20 0.000892183 431.19
0.0209375 0 0.000892183 150.417
0.020625 0 0.00374972 8.12853
-0.020625 2.01948e-28 0.00374972 59.9144
0.0209375 0 0.00152054 48.3819
-0.0209375 0 0.00152054 266.109
-0.0203086 0 0.00531632 39.8515
0.0203086 -2.71051e-20 0.00531632 8.51927
0.0191556 0 0.00860744 1385.28
-0.0191556 2.71051e-20 0.00860744 1431.25
0.021025 -3.23117e-27 0.000584717 546.318
-0.0209375 0 0.002164 155.136
0.0209375 0 0.002164 22.6891
-0.0206248 0 0.00437516 46.0887
0.0206248 -3.23117e-27 0.00437516 7.04273
-0.0209375 -5.42101e-20 0.00280426 89.7955
0.0209375 -2.71051e-20 0.00280426 13.2588
0.0199645 -6.84864e-21 0.00690861 27.0481
-0.0199645 -1.55725e-20 0.00690861 52.58
0.0191434 0 0.00894011 1325.77
-0.0191433 0 0.00894015 1369.52
0.0196038 2.71051e-20 0.00788848 93.6418
-0.0196038 0 0.00788848 149.48
-0.0203027 0 0.00594717 38.9869
0.0203027 -2.71051e-20 0.00594717 11.0887
-0.0209375 0 0.00343583 58.3561
0.0209375 -2.71051e-20 0.00343583 8.9271
-0.0206242 0 0.00500078 38.7631
0.0206242 0 0.00500078 7.2489
-0.02125 0 5.26059e-09 951.645
0.02125 0 1.72095e-09 935.979
-0.02125 7.54265e-21 0.000584718 698.249
0.02125 -6.46235e-27 0.000584717 546.32
0.02125 3.23117e-27 0.000684835 473.619
0.0194186 -2.19302e-20 0.00868609 979.661
-0.0194186 1.79862e-20 0.00868609 1070.53
-0.02125 -1.96416e-20 0.00119965 347.268
0.02125 6.64513e-21 0.00119965 99.7863
-0.0209553 -1.00974e-28 0.00374971 53.336