# p  POINT_DATA 7061
# x  y  z  p
3.89618e-26 -0.079 8.5914e-08 -0.0165115
0 -0.079 0.000550926 -0.016511
0 -0.079 0.0011232 -0.0165105
0 -0.079 0.00172954 -0.0165104
-2.06795e-25 -0.079 0.0023683 -0.0165104
0 -0.079 0.00302578 -0.0165106
1.03398e-25 -0.079 0.00316768 -0.0165107
-4.1359e-25 -0.079 0.00368597 -0.0165109
4.1359e-25 -0.079 0.00433887 -0.0165113
0 -0.079 0.00498192 -0.0165112
0 -0.079 0.0056169 -0.0165104
8.27181e-25 -0.079 0.00624674 -0.0165095
2.71051e-20 -0.079254 0.000278027 -0.0165115
-2.71051e-20 -0.0792534 0.000845552 -0.0165105
-5.42101e-20 -0.0792519 0.00144222 -0.0165104
-2.71051e-20 -0.0792508 0.00206883 -0.0165104
2.71051e-20 -0.0792502 0.00271551 -0.0165105
0 -0.079 0.00687383 -0.01651
-2.71051e-20 -0.07925 0.00336932 -0.0165107
-5.42101e-20 -0.0792504 0.00402046 -0.0165111
-8.27181e-25 -0.079 0.00749963 -0.0165128
-5.16988e-26 -0.0793284 0.00304732 -0.0165109
5.42101e-20 -0.0792509 0.00466442 -0.0165114
0 -0.079 0.00812489 -0.0165174
2.71051e-20 -0.0792514 0.00530113 -0.016511
0 -0.0792518 0.00593244 -0.0165098
0 -0.079 0.00874998 -0.0165228
0 -0.0794672 0.00240658 -0.0165109
0 -0.0795066 8.13086e-08 -0.0165101
2.06795e-25 -0.0795065 0.000303907 -0.0165102
-1.57212e-20 -0.0795065 0.000561025 -0.0165103
2.06795e-25 -0.0795027 0.00114835 -0.0165105
0 -0.0795014 0.00176809 -0.0165107
0 -0.0792519 0.00656044 -0.0165092
0 -0.0795013 0.00233667 -0.0165109
0 -0.0795013 0.00240938 -0.0165109
-4.1359e-25 -0.079 0.009375 -0.0165283
-2.20454e-20 -0.0795014 0.00305867 -0.0165111
-5.42101e-20 -0.079252 0.00718675 -0.0165109
1.01336e-20 -0.0795017 0.00370691 -0.0165113
-2.06795e-25 -0.0796091 6.307e-08 -0.0165101
1.31859e-20 -0.0795024 0.00434988 -0.0165115
0 -0.079 0.01 -0.0165331
0 -0.079252 0.00781225 -0.0165148
3.05354e-21 -0.079503 0.00498679 -0.0165111
-2.06795e-25 -0.079 0.0103106 -0.0165348
5.42101e-20 -0.079252 0.00843743 -0.01652
1.7025e-20 -0.0795035 0.00561869 -0.0165099
0 -0.079 0.010625 -0.0165365
1.60804e-20 -0.0795039 0.00624726 -0.0165087
2.71051e-20 -0.0792521 0.00906248 -0.0165256
0 -0.0797726 0.000282959 -0.0165087
-2.71051e-20 -0.0797727 0.000861182 -0.0165104
5.42101e-20 -0.0797711 0.00146986 -0.0165107
0 -0.079 0.01125 -0.0165377
-2.71051e-20 -0.079771 0.00210389 -0.0165113
1.32663e-20 -0.079504 0.00687391 -0.0165092
-2.71051e-20 -0.0797714 0.00274903 -0.0165115
-2.71051e-20 -0.0792521 0.0096875 -0.0165309
0 -0.0797718 0.00339467 -0.0165117
1.50059e-20 -0.0795041 0.00749961 -0.016512
0 -0.0797726 0.00403626 -0.0165118
0 -0.079 0.011875 -0.0165358
-2.71051e-20 -0.0797735 0.00467288 -0.0165116
-1.68838e-20 -0.0795041 0.00812487 -0.0165166
-2.71051e-20 -0.0792521 0.0103125 -0.0165353
0 -0.0797742 0.00530505 -0.0165104
0 -0.079 0.0125 -0.0165301
-1.92946e-20 -0.0795041 0.00874996 -0.016522
-2.71051e-20 -0.0797748 0.00593404 -0.0165085
0 -0.0792521 0.0109375 -0.0165378
0 -0.0800346 -3.72863e-10 -0.0165097
0 -0.079 0.0128484 -0.0165246
4.1359e-25 -0.0800404 0.000568646 -0.0165104
0 -0.0797751 0.00656102 -0.0165076
0 -0.0800382 0.00116603 -0.0165113
-4.94199e-21 -0.0795041 0.00937499 -0.0165276
0 -0.0800391 0.00179599 -0.016512
1.9387e-26 -0.0800406 0.00227145 -0.0165124
0 -0.0800412 0.00244118 -0.0165126
0 -0.079 0.013125 -0.0165202
-2.71051e-20 -0.0792521 0.0115625 -0.0165376
2.71051e-20 -0.0797752 0.00718692 -0.0165093
-2.48611e-20 -0.0800427 0.00308639 -0.0165129
3.45859e-20 -0.0800437 0.00372651 -0.0165131
-1.06736e-20 -0.0795041 0.01 -0.0165327
-5.42101e-20 -0.0797753 0.00781229 -0.0165132
-1.13965e-21 -0.0800446 0.00436171 -0.016513
1.29247e-26 -0.0795041 0.0104105 -0.0165352
0 -0.0792521 0.0121875 -0.0165339
-4.1359e-25 -0.079 0.01375 -0.0165057
2.49791e-20 -0.0800454 0.00499307 -0.0165119
0 -0.0795041 0.010625 -0.0165365
2.71051e-20 -0.0797753 0.00843744 -0.0165184
-1.97324e-20 -0.0800459 0.00562167 -0.0165095
0 -0.0792521 0.0128125 -0.0165262
-2.71051e-20 -0.0797753 0.00906248 -0.0165241
-4.31985e-21 -0.0800463 0.00624853 -0.0165073
0 -0.0795042 0.01125 -0.016538
4.1359e-25 -0.079 0.014375 -0.0164868
2.71051e-20 -0.0803223 0.000287068 -0.0165107
0 -0.0803283 0.00087395 -0.0165118
-1.62618e-20 -0.0800464 0.0068744 -0.0165074
2.71051e-20 -0.0803303 0.00149111 -0.0165124
0 -0.0797753 0.00968749 -0.0165298
-2.71051e-20 -0.0803332 0.00213043 -0.0165135
0 -0.0792521 0.0134375 -0.0165141
2.71051e-20 -0.0803356 0.00277473 -0.0165142
5.16988e-26 -0.0795042 0.011875 -0.0165364
8.05736e-21 -0.0800465 0.00749977 -0.0165105
-2.71051e-20 -0.080337 0.00341474 -0.0165145
-4.1359e-25 -0.079 0.015 -0.016464
0 -0.0797754 0.0103125 -0.0165348
2.71051e-20 -0.0803381 0.00404944 -0.0165147
1.51777e-21 -0.0800465 0.00812492 -0.0165155
2.71051e-20 -0.080339 0.00468044 -0.0165141
0 -0.0795042 0.0125 -0.0165309
0 -0.0792521 0.0140625 -0.0164974
2.71051e-20 -0.0803397 0.00530896 -0.0165115
-2.71051e-20 -0.0797754 0.0109375 -0.0165381
-2.05544e-20 -0.0800466 0.00874998 -0.0165217
0 -0.079 0.015625 -0.0164382
-2.71051e-20 -0.0803402 0.00593584 -0.0165077
0 -0.0795042 0.0130673 -0.0165218
6.46235e-27 -0.0795042 0.013125 -0.0165209
3.14335e-20 -0.0800466 0.00937499 -0.0165285
0 -0.0805982 4.55363e-09 -0.0165128
0 -0.0792521 0.0146875 -0.0164763
-2.71051e-20 -0.0803404 0.00656179 -0.0165056
2.71051e-20 -0.0797754 0.0115625 -0.0165387
0 -0.0806135 0.000576473 -0.0165128
0 -0.0806183 0.00118217 -0.0165131
0 -0.0806237 0.00181858 -0.0165143
0 -0.079 0.01625 -0.0164107
2.71051e-20 -0.0803405 0.00718721 -0.0165074
-1.61559e-27 -0.0806282 0.00243043 -0.0165154
0 -0.0806285 0.00246498 -0.0165155
1.83129e-20 -0.0800466 0.01 -0.0165351
9.72501e-21 -0.0795042 0.01375 -0.0165064
2.09896e-20 -0.0806311 0.00310603 -0.0165161
-2.71051e-20 -0.0797754 0.0121875 -0.0165354
-4.1359e-25 -0.079 0.0165368 -0.0163979
-2.71051e-20 -0.0792521 0.0153125 -0.0164517
-3.22479e-20 -0.0806325 0.00373992 -0.0165165
0 -0.0803405 0.00781239 -0.016512
-6.46235e-27 -0.0800232 0.010625 -0.0165402
3.90328e-20 -0.0800466 0.010625 -0.0165404
-1.58698e-20 -0.0806333 0.0043697 -0.0165165
-3.23117e-27 -0.0800466 0.0107289 -0.0165409
0 -0.0797049 0.013125 -0.0165231
4.1359e-25 -0.079 0.016875 -0.0163828
2.71051e-20 -0.0803406 0.00843746 -0.0165184
-1.79369e-21 -0.0806339 0.00499735 -0.0165146
-2.75031e-20 -0.0795042 0.014375 -0.0164873
2.71051e-20 -0.0797754 0.0128125 -0.0165278
0 -0.080825 5.74177e-10 -0.0165146
-2.25055e-21 -0.0806343 0.00562377 -0.0165107
0 -0.0800466 0.01125 -0.0165432
0 -0.0792521 0.0159375 -0.0164247
2.71051e-20 -0.0803406 0.00906249 -0.016526
3.59812e-20 -0.0806345 0.00624947 -0.0165071
2.71051e-20 -0.0797754 0.0134375 -0.0165155
-1.04078e-20 -0.0795042 0.015 -0.0164642
0 -0.0809079 0.000289884 -0.0165149
4.1359e-25 -0.079 0.0175 -0.0163554
-2.71051e-20 -0.0803406 0.0096875 -0.0165342
6.46235e-27 -0.0800466 0.011875 -0.0165424
2.71051e-20 -0.0809209 0.000883698 -0.0165137
-7.28943e-21 -0.0806346 0.00687478 -0.016507
0 -0.0809342 0.000579086 -0.0165145
0 -0.0809282 0.00150678 -0.0165146
5.42101e-20 -0.0809342 0.00214884 -0.0165166
2.71051e-20 -0.0792521 0.0165625 -0.0163967
4.17938e-21 -0.0806346 0.00749992 -0.016511
-5.42101e-20 -0.080938 0.00279164 -0.0165176
0 -0.079 0.0178786 -0.0163397
-2.71051e-20 -0.0803406 0.0103125 -0.0165418
-2.71051e-20 -0.0797754 0.0140625 -0.0164986
-2.71051e-20 -0.0809399 0.0034273 -0.0165182
0 -0.0800466 0.0125 -0.0165371
3.41429e-21 -0.0795042 0.015625 -0.0164383
0 -0.0809409 0.00405742 -0.0165188
-4.41813e-21 -0.0806346 0.00812497 -0.016518
0 -0.079 0.018125 -0.0163294
0 -0.0809416 0.00468493 -0.0165184
0 -0.0803406 0.0109375 -0.0165472
-2.71051e-20 -0.0792521 0.0171875 -0.0163688
2.58494e-26 -0.0810975 0.00119034 -0.0165147
6.46493e-21 -0.0806346 0.00874999 -0.0165269
-6.46235e-27 -0.0800466 0.013125 -0.0165269
2.71051e-20 -0.080942 0.00531125 -0.0165148
-2.71051e-20 -0.0797754 0.0146875 -0.016477
2.33329e-20 -0.0795042 0.01625 -0.0164107
-2.71051e-20 -0.0809422 0.00593694 -0.016509
-6.46235e-26 -0.0795042 0.0163268 -0.0164073
0 -0.0803406 0.0115625 -0.0165491
-1.6484e-20 -0.0806346 0.009375 -0.0165369
0 -0.0811445 0.00247654 -0.0165181
-1.61559e-27 -0.0800204 0.01375 -0.0165114
4.1359e-25 -0.079 0.01875 -0.0163052
0 -0.0811987 6.05348e-09 -0.0165175
0 -0.0809424 0.00656226 -0.0165062
0 -0.0800466 0.01375 -0.0165117
1.13684e-20 -0.0812193 0.00058141 -0.0165161
-2.71051e-20 -0.0792521 0.0178125 -0.0163421
0 -0.0797754 0.0153125 -0.016452
2.49301e-20 -0.0812305 0.00119261 -0.0165152
1.61559e-27 -0.0800466 0.0138832 -0.0165075
-2.47833e-20 -0.0806346 0.01 -0.0165466
0 -0.0812385 0.00177788 -0.0165168
-2.71051e-20 -0.0803406 0.0121875 -0.0165465
0 -0.0812393 0.00183257 -0.0165169
-2.71051e-20 -0.0809424 0.00718741 -0.0165089
0 -0.0795042 0.016875 -0.0163827
0 -0.0812453 0.0024788 -0.0165186
0 -0.0812455 0.00251508 -0.0165187
3.23117e-27 -0.0812481 0.00311668 -0.0165194
0 -0.0809424 0.00781246 -0.0165159
6.46235e-27 -0.0800466 0.014375 -0.0164918
3.46873e-22 -0.0806346 0.010625 -0.0165544
1.93434e-21 -0.0812492 0.0037467 -0.0165202
0 -0.079 0.019375 -0.0162831
2.71051e-20 -0.0797754 0.0159375 -0.0164248
2.71051e-20 -0.0803406 0.0128125 -0.0165387
-8.98331e-22 -0.0812497 0.00437348 -0.0165205
-3.63507e-27 -0.0805866 0.01125 -0.0165573
0 -0.0792521 0.0184375 -0.0163168
-2.71051e-20 -0.0809424 0.00843749 -0.0165258
0 -0.0813716 0.00183379 -0.0165173
3.27682e-20 -0.08125 0.00499929 -0.0165186
-1.03398e-25 -0.0795041 0.0175 -0.0163553
1.4188e-20 -0.0806346 0.01125 -0.0165585
-1.00974e-28 -0.0813987 0.00248015 -0.0165192
-1.0671e-20 -0.0800466 0.015 -0.0164677
6.47292e-21 -0.0812501 0.00562469 -0.0165139
5.42101e-20 -0.0809424 0.0090625 -0.0165377
4.03897e-28 -0.0806346 0.0114856 -0.0165584
0 -0.0803406 0.0134375 -0.0165256
-3.23117e-27 -0.0798284 0.01625 -0.0164116
0 -0.0797754 0.0165625 -0.0163966
2.02756e-20 -0.0812502 0.00624987 -0.01651
0 -0.079 0.02 -0.0162631
1.55096e-25 -0.0794513 0.018125 -0.0163292
-8.07794e-28 -0.0806346 0.011875 -0.0165581
0 -0.0792521 0.0190625 -0.0162936
0 -0.0809424 0.0096875 -0.01655
5.42101e-20 -0.0815221 0.000290974 -0.0165202
-1.79118e-21 -0.0812502 0.00687495 -0.016511
2.71051e-20 -0.0815381 0.000888595 -0.0165156
-2.58494e-26 -0.0795042 0.018125 -0.0163292
-3.78018e-20 -0.0800466 0.015625 -0.0164407
2.71051e-20 -0.0803406 0.0140625 -0.0165074
-2.71051e-20 -0.0815484 0.0015151 -0.0165168
5.42101e-20 -0.0815556 0.00215845 -0.0165196
1.07515e-20 -0.0812502 0.00749998 -0.0165175
-2.71051e-20 -0.0809424 0.0103125 -0.0165608
0 -0.0806346 0.0125 -0.0165523
-2.71051e-20 -0.0797754 0.0171875 -0.0163686
2.71051e-20 -0.0815595 0.00280008 -0.0165207
0 -0.0795042 0.0185135 -0.016314
2.71051e-20 -0.0815612 0.00343325 -0.0165214
-6.46235e-27 -0.0800466 0.0160256 -0.0164225
0 -0.079 0.020625 -0.0162454
1.26305e-20 -0.0812502 0.00812499 -0.016528
5.42101e-20 -0.0792521 0.0196875 -0.0162726
-2.71051e-20 -0.0815618 0.00406097 -0.0165225
-2.71051e-20 -0.0803406 0.0146875 -0.0164844
0 -0.0809424 0.0109375 -0.016568
-6.46235e-27 -0.0800466 0.01625 -0.0164122
0 -0.0795042 0.01875 -0.0163048
0 -0.0806346 0.013125 -0.0165409
0 -0.0815621 0.00468683 -0.0165225
-3.47448e-22 -0.0812502 0.00875 -0.0165409
-2.71051e-20 -0.0815623 0.00531219 -0.0165188
0 -0.0797754 0.0178125 -0.0163416
-2.71051e-20 -0.0809424 0.0115625 -0.0165702
0 -0.0815624 0.00593736 -0.0165131
2.71051e-20 -0.0803406 0.0153125 -0.0164576
-4.25134e-20 -0.0812502 0.009375 -0.0165545
0 -0.0806346 0.01375 -0.0165241
2.58494e-26 -0.0800466 0.016875 -0.0163835
0 -0.079 0.02125 -0.0162297
-2.71051e-20 -0.0792521 0.0203125 -0.0162537
-4.1359e-25 -0.0818256 2.85353e-09 -0.0165184
2.71051e-20 -0.0815624 0.00656245 -0.0165119
5.1523e-22 -0.0795042 0.019375 -0.0162826
-2.58453e-21 -0.0818444 0.000583063 -0.0165169
2.71051e-20 -0.0809424 0.0121875 -0.0165667
3.25814e-20 -0.0812502 0.01 -0.0165669
-2.82443e-20 -0.0818572 0.00119679 -0.0165163
0 -0.0806346 0.0141611 -0.0165098
-2.71051e-20 -0.0797754 0.0184375 -0.0163162
0 -0.0815624 0.00718748 -0.0165173
6.46235e-27 -0.0818662 0.00183835 -0.0165188
9.19561e-21 -0.0806346 0.014375 -0.0165023
0 -0.0803406 0.0159375 -0.0164287
2.87476e-20 -0.0818715 0.00248433 -0.016521
-7.79045e-21 -0.0818737 0.0031207 -0.0165218
0 -0.0815624 0.00781249 -0.0165281
0 -0.0800466 0.0175 -0.0163555
2.76504e-20 -0.0812502 0.010625 -0.0165759
0 -0.0809424 0.0128125 -0.0165573
-2.63996e-20 -0.0818743 0.00374909 -0.0165225
0 -0.0792521 0.0209375 -0.016237
0 -0.079 0.021875 -0.0162159
-1.79896e-20 -0.0795042 0.02 -0.0162626
-1.04875e-20 -0.0818745 0.00437472 -0.0165231
2.71051e-20 -0.0815624 0.0084375 -0.0165423
-4.03897e-28 -0.0811347 0.011875 -0.0165745
6.46235e-27 -0.0798282 0.01875 -0.0163045
-1.61559e-20 -0.0806346 0.015 -0.0164764
2.71051e-20 -0.0797754 0.0190625 -0.0162927
-1.94913e-20 -0.0812502 0.01125 -0.0165799
1.06144e-20 -0.0818746 0.00499988 -0.0165216
2.71051e-20 -0.0803406 0.0165625 -0.0163989
0 -0.0809424 0.0134375 -0.0165421
0 -0.0815624 0.0090625 -0.0165579
-1.05933e-20 -0.0818746 0.00562495 -0.016518
-2.58494e-26 -0.0800466 0.018125 -0.0163289
4.68695e-21 -0.0818746 0.00624998 -0.0165164
2.11536e-20 -0.0812502 0.011875 -0.0165783
4.03897e-28 -0.0820795 0.00248483 -0.0165213
5.42101e-20 -0.0792521 0.0215625 -0.0162224
3.04943e-20 -0.0806346 0.015625 -0.0164476
-2.71051e-20 -0.0815624 0.0096875 -0.0165726
-2.3959e-20 -0.0795042 0.020625 -0.0162448
1.00974e-28 -0.0812502 0.0120364 -0.0165763
4.1359e-25 -0.079 0.0225 -0.0162038
2.71051e-20 -0.0821529 0.000291161 -0.0165165
2.71051e-20 -0.0809424 0.0140625 -0.0165214
-2.71051e-20 -0.0803406 0.0171875 -0.0163697
-1.37183e-20 -0.0818746 0.00687499 -0.0165207
0 -0.0797754 0.0196875 -0.0162716
5.42101e-20 -0.0821667 0.00089009 -0.0165152
0 -0.0806346 0.0158836 -0.0164351
-2.71051e-20 -0.0821764 0.00151811 -0.0165176
0 -0.0812502 0.0125 -0.0165707
-2.71051e-20 -0.0821826 0.00216199 -0.0165215
-2.06795e-25 -0.0822113 2.26144e-13 -0.0165154
-2.71051e-20 -0.0815624 0.0103125 -0.0165842
0 -0.0800466 0.01875 -0.0163043
2.79591e-20 -0.0818746 0.0075 -0.0165308
-2.71051e-20 -0.0821857 0.00280307 -0.0165224
0 -0.0806346 0.01625 -0.0164175
0 -0.0821868 0.00343525 -0.0165227
2.71051e-20 -0.0809424 0.0146875 -0.0164963
7.55388e-21 -0.0818746 0.008125 -0.0165449
-2.71051e-20 -0.0821871 0.00406209 -0.0165237
0 -0.0822699 0.00183944 -0.0165192
-2.71051e-20 -0.0803406 0.0178125 -0.0163419
2.71051e-20 -0.0815624 0.0109375 -0.0165907
3.76138e-20 -0.0795042 0.02125 -0.0162292
2.71051e-20 -0.0792521 0.0221875 -0.0162095
0 -0.0812502 0.013125 -0.0165572
0 -0.0799981 0.019375 -0.016282
0 -0.079 0.023125 -0.0161925
0 -0.0821872 0.00468738 -0.0165239
-2.71051e-20 -0.0797754 0.0203125 -0.0162526
-2.46722e-20 -0.0818746 0.00875 -0.0165607
0 -0.0800466 0.019375 -0.0162819
-2.71051e-20 -0.0821872 0.00531245 -0.0165214
-2.71051e-20 -0.0815624 0.0115625 -0.016591
-2.71051e-20 -0.0809424 0.0153125 -0.0164675
1.29247e-26 -0.0806346 0.016875 -0.0163874
-2.71051e-20 -0.0821872 0.00593748 -0.0165189
0 -0.0812502 0.01375 -0.0165383
2.38835e-20 -0.0818746 0.009375 -0.0165759
1.00974e-28 -0.0823544 0.00312146 -0.0165221
3.23117e-27 -0.0800466 0.0196607 -0.0162727
0 -0.0824248 0.000583335 -0.0165139
0 -0.0803406 0.0184375 -0.016316
0 -0.0824396 0.00119784 -0.0165155
0 -0.079 0.0235965 -0.0161842
2.71051e-20 -0.0821872 0.00656249 -0.0165219
-1.11448e-20 -0.0795042 0.021875 -0.0162155
4.1359e-25 -0.0824642 1.87153e-09 -0.0165135
0 -0.0815624 0.0121875 -0.0165852
2.01948e-28 -0.0812502 0.014131 -0.0165239
0 -0.0792521 0.0228125 -0.016198
-2.71051e-20 -0.0797754 0.0209375 -0.0162359
1.29247e-26 -0.0824772 0.00058336 -0.0165136
3.29045e-20 -0.0818746 0.01 -0.0165884
1.03398e-25 -0.079 0.02375 -0.0161815
3.23117e-27 -0.0824876 0.00119793 -0.0165154
-5.42101e-20 -0.0809424 0.0159375 -0.0164367
0 -0.0821872 0.0071875 -0.0165317
0 -0.0800466 0.02 -0.0162618
0 -0.0806346 0.0175 -0.0163584
-1.11715e-20 -0.0812502 0.014375 -0.0165146
0 -0.0824946 0.00184004 -0.0165193
-8.07794e-28 -0.0824982 0.00248583 -0.0165219
-2.71051e-20 -0.0821873 0.0078125 -0.0165463
0 -0.0824996 0.00312169 -0.0165222
-1.96955e-20 -0.0818746 0.010625 -0.0165966
2.71051e-20 -0.0815624 0.0128125 -0.0165734
2.71051e-20 -0.0803406 0.0190625 -0.0162923
0 -0.0824998 0.00355979 -0.0165223
0 -0.0824999 0.00374962 -0.0165223
1.47172e-20 -0.0824999 0.00437498 -0.0165226
2.71051e-20 -0.0821873 0.0084375 -0.016563
-2.71051e-20 -0.0809424 0.0165625 -0.0164057
-1.67729e-20 -0.0812502 0.015 -0.0164871
-3.26415e-20 -0.0795042 0.0225 -0.0162035
2.71051e-20 -0.0797754 0.0215625 -0.0162214
5.45921e-21 -0.0818746 0.01125 -0.0165989
0 -0.0792521 0.0234375 -0.0161871
0 -0.0806346 0.018125 -0.0163312
3.49445e-20 -0.0824999 0.00499999 -0.0165221
2.28807e-20 -0.0800466 0.020625 -0.016244
-2.71051e-20 -0.0815624 0.0134375 -0.016556
2.58494e-26 -0.079 0.024375 -0.0161701
-3.36042e-25 -0.079 0.0244069 -0.0161695
0 -0.0821872 0.0090625 -0.0165795
2.12023e-20 -0.0824999 0.005625 -0.0165217
-2.71051e-20 -0.0803406 0.0196875 -0.0162709
-9.88622e-21 -0.0818746 0.011875 -0.016595
-1.31451e-20 -0.0824999 0.00625 -0.0165248
-1.49056e-20 -0.0812502 0.015625 -0.016457
-2.71051e-20 -0.0809424 0.0171875 -0.0163752
0 -0.0821872 0.0096875 -0.0165935
0 -0.0815624 0.0140625 -0.0165336
-4.57392e-21 -0.0824999 0.006875 -0.0165337
0 -0.0806346 0.01875 -0.016306
2.71051e-20 -0.0827889 0.00029129 -0.0165104
2.52435e-29 -0.0818746 0.0122925 -0.0165885
0 -0.0812502 0.0159052 -0.016443
2.58494e-26 -0.0791259 0.024375 -0.0161703
1.03398e-25 -0.0793188 0.02375 -0.0161818
-2.34902e-20 -0.0795042 0.023125 -0.0161926
1.61559e-27 -0.0803482 0.02 -0.0162623
5.42101e-20 -0.0827983 0.00089054 -0.0165123
2.71051e-20 -0.0797754 0.0221875 -0.0162088
1.53083e-20 -0.0800466 0.02125 -0.0162285
0 -0.0828054 0.00151904 -0.0165166
0 -0.0818746 0.0125 -0.0165853
0 -0.0792521 0.0240625 -0.016176
0 -0.0821872 0.0103125 -0.0166036
-2.71051e-20 -0.0828097 0.00216304 -0.0165217
-2.5916e-20 -0.0824999 0.0075 -0.0165477
-5.42101e-20 -0.0828117 0.00280384 -0.016522
0 -0.0812502 0.01625 -0.0164258
8.27181e-25 -0.079 0.025 -0.016158
2.71051e-20 -0.0803406 0.0203125 -0.016252
-2.71051e-20 -0.0815624 0.0146875 -0.0165072
0 -0.0809424 0.0178125 -0.0163467
2.71051e-20 -0.0828123 0.0034357 -0.0165215
6.24928e-21 -0.0824999 0.008125 -0.0165641
-5.04871e-29 -0.082822 0.00374965 -0.0165209
-2.71051e-20 -0.0821872 0.0109375 -0.0166079
0 -0.0828124 0.00406232 -0.0165213
0 -0.0818746 0.013125 -0.0165702
0 -0.0806346 0.019375 -0.0162833
2.71051e-20 -0.0828124 0.00468749 -0.0165215
-2.64998e-21 -0.0824999 0.00875 -0.0165805
2.71051e-20 -0.0797754 0.0228125 -0.0161978
-1.39319e-20 -0.0795042 0.02375 -0.016182
-2.4683e-20 -0.0800466 0.021875 -0.0162152
0 -0.0828124 0.0053125 -0.0165217
3.23117e-27 -0.0812502 0.016875 -0.0163949
0 -0.0815624 0.0153125 -0.0164775
0 -0.0821873 0.0115625 -0.0166059
5.42101e-20 -0.0792521 0.0246875 -0.0161642
-2.71051e-20 -0.0809424 0.0184375 -0.01632
1.00974e-28 -0.0818746 0.01375 -0.0165499
0 -0.0803406 0.0209375 -0.0162354
0 -0.0828125 0.0059375 -0.0165247
1.59613e-20 -0.0824999 0.009375 -0.016595
0 -0.079 0.025625 -0.0161455
0 -0.0818746 0.0140175 -0.0165394
-2.71051e-20 -0.0828125 0.0065625 -0.0165336
3.23117e-27 -0.0806346 0.02 -0.0162629
2.71051e-20 -0.0821873 0.0121875 -0.0165979
4.1359e-25 -0.0831036 2.44088e-09 -0.0165086
6.12758e-22 -0.0824999 0.01 -0.0166061
0 -0.0815624 0.0159375 -0.0164462
0 -0.0831107 0.000583608 -0.0165092
0 -0.0812502 0.0175 -0.0163654
0 -0.0805237 0.020625 -0.0162447
-2.71051e-20 -0.0828125 0.0071875 -0.0165479
0 -0.0831175 0.00119843 -0.0165124
1.00974e-28 -0.0818746 0.014375 -0.0165253
1.29247e-26 -0.083122 0.00184061 -0.0165179
2.71051e-20 -0.0797754 0.0234375 -0.0161876
6.24669e-21 -0.0800466 0.0225 -0.016204
2.71051e-20 -0.0809424 0.0190625 -0.0162958
-4.01296e-21 -0.0795042 0.024375 -0.0161711
0 -0.0831241 0.00248621 -0.0165208
0 -0.0821873 0.0128125 -0.0165847
0 -0.0828124 0.0078125 -0.016565
1.51368e-21 -0.0824999 0.010625 -0.0166123
-8.07794e-28 -0.0831248 0.00312186 -0.0165204
0 -0.0803406 0.0215625 -0.0162213
0 -0.0792521 0.0253125 -0.0161517
0 -0.083125 0.00374968 -0.0165195
2.71051e-20 -0.0815624 0.0165625 -0.0164147
0 -0.0806346 0.020625 -0.0162449
-1.52887e-20 -0.0818746 0.015 -0.0164972
-3.15544e-29 -0.083125 0.00436103 -0.0165192
1.57772e-30 -0.083125 0.004375 -0.0165191
0 -0.0828125 0.0084375 -0.0165822
-8.27181e-25 -0.079 0.02625 -0.0161339
1.61559e-27 -0.0812502 0.018125 -0.0163377
3.30905e-20 -0.0824999 0.01125 -0.0166126
1.13117e-20 -0.083125 0.005 -0.0165203
-2.71051e-20 -0.0821872 0.0134375 -0.0165665
0 -0.0809424 0.0196875 -0.016274
0 -0.0828125 0.0090625 -0.0165975
-1.92994e-20 -0.083125 0.005625 -0.0165245
-2.01175e-20 -0.0800466 0.023125 -0.0161942
2.71051e-20 -0.0797754 0.0240625 -0.0161775
-1.10772e-20 -0.0795042 0.025 -0.0161595
-5.42101e-20 -0.0803406 0.0221875 -0.0162095
1.43039e-20 -0.0824999 0.011875 -0.0166071
-2.2057e-20 -0.0818746 0.015625 -0.0164669
-2.71051e-20 -0.0815624 0.0171875 -0.0163841
-8.07794e-28 -0.0806023 0.02125 -0.0162294
-1.92994e-20 -0.083125 0.00625 -0.0165335
0 -0.0828124 0.0096875 -0.0166097
-2.71051e-20 -0.0821872 0.0140625 -0.0165436
-8.07794e-28 -0.0812502 0.01875 -0.0163122
0 -0.0806346 0.02125 -0.0162294
-2.71051e-20 -0.0792521 0.0259375 -0.0161393
-1.52159e-20 -0.083125 0.006875 -0.0165475
0 -0.0824786 0.0125 -0.0165958
-5.04871e-29 -0.0818746 0.0160046 -0.0164479
-2.71051e-20 -0.0834239 0.000291594 -0.0165068
0 -0.0834291 0.000890967 -0.0165074
0 -0.0824999 0.0125 -0.0165962
8.27181e-25 -0.079 0.026875 -0.0161255
2.71051e-20 -0.0834334 0.00151954 -0.0165134
8.07794e-28 -0.0806346 0.0214965 -0.0162243
-2.71051e-20 -0.0828125 0.0103125 -0.0166176
2.71051e-20 -0.0809424 0.0203125 -0.0162546
3.15544e-30 -0.0824999 0.012607 -0.0165935
-2.96572e-21 -0.083125 0.0075 -0.0165644
2.71051e-20 -0.083436 0.00216346 -0.0165198
0 -0.0818746 0.01625 -0.0164357
0 -0.0834371 0.00280405 -0.0165197
0 -0.0815624 0.0178125 -0.0163554
2.71051e-20 -0.0821872 0.0146875 -0.016517
2.45508e-20 -0.0800466 0.02375 -0.016185
5.42101e-20 -0.0797754 0.0246875 -0.0161668
2.71051e-20 -0.0834374 0.00343577 -0.0165184
5.42101e-20 -0.0803406 0.0228125 -0.0161998
-2.94934e-20 -0.083125 0.008125 -0.0165816
1.61559e-27 -0.0812502 0.019375 -0.016289
-5.42101e-20 -0.0828124 0.0109375 -0.0166201
-1.35223e-20 -0.0795042 0.025625 -0.0161476
0 -0.0834375 0.00406234 -0.0165168
-6.31089e-30 -0.0824999 0.013125 -0.0165804
0 -0.0806346 0.021875 -0.0162165
-2.71051e-20 -0.0834375 0.0046875 -0.0165171
-1.72431e-20 -0.083125 0.00875 -0.0165973
5.42101e-20 -0.0792521 0.0265625 -0.0161286
0 -0.0818746 0.016875 -0.0164048
-5.42101e-20 -0.0821872 0.0153125 -0.0164874
0 -0.0834375 0.0053125 -0.0165212
0 -0.0809424 0.0209375 -0.0162377
0 -0.0828125 0.0115625 -0.0166167
0 -0.0815624 0.0184375 -0.0163286
0 -0.0824999 0.01375 -0.0165597
-2.71051e-20 -0.0834375 0.0059375 -0.0165306
8.27181e-25 -0.079 0.0275 -0.0161227
7.2573e-21 -0.083125 0.009375 -0.0166101
0 -0.0824999 0.0138484 -0.0165558
0 -0.0812502 0.02 -0.0162682
-9.09221e-21 -0.0800466 0.024375 -0.0161758
2.71051e-20 -0.0803406 0.0234375 -0.0161915
0 -0.0797754 0.0253125 -0.0161553
-2.71051e-20 -0.0834375 0.0065625 -0.0165453
2.71051e-20 -0.0828125 0.0121875 -0.0166079
-1.91445e-20 -0.0806346 0.0225 -0.0162062
5.42101e-20 -0.0821872 0.0159375 -0.0164565
0 -0.0818746 0.0175 -0.0163752
-4.96392e-21 -0.083125 0.01 -0.0166192
-6.49192e-21 -0.0795042 0.02625 -0.0161366
4.1359e-25 -0.083739 2.96576e-09 -0.0165045
0 -0.0824999 0.014375 -0.0165348
0 -0.0837422 0.000583971 -0.0165043
-2.71051e-20 -0.0834375 0.0071875 -0.0165632
0 -0.0837459 0.00119887 -0.0165073
-5.42101e-20 -0.0815624 0.0190625 -0.0163042
2.71051e-20 -0.0809424 0.0215625 -0.0162234
0 -0.0837484 0.00184095 -0.016514
0 -0.0792521 0.0271875 -0.0161224
-6.46235e-27 -0.0837496 0.00248638 -0.0165178
2.71051e-20 -0.0828124 0.0128125 -0.0165943
1.13985e-20 -0.083125 0.010625 -0.0166237
2.71051e-20 -0.0834375 0.0078125 -0.0165814
0 -0.0837499 0.0031219 -0.0165172
0 -0.0812502 0.020625 -0.0162499
0 -0.08375 0.00374969 -0.0165157
2.71051e-20 -0.0821872 0.0165625 -0.0164254
-1.53687e-20 -0.0824999 0.015 -0.0165067
1.00974e-28 -0.0818746 0.018125 -0.0163474
-8.27181e-25 -0.079 0.028125 -0.0161282
-3.48429e-21 -0.0800466 0.025 -0.016166
0 -0.0834375 0.0084375 -0.0165979
-5.20648e-29 -0.08375 0.00436725 -0.0165151
-2.32377e-20 -0.08375 0.004375 -0.0165151
2.71051e-20 -0.0803406 0.0240625 -0.0161837
7.34432e-21 -0.083125 0.01125 -0.0166228
-3.16601e-20 -0.0806346 0.023125 -0.0161979
8.13152e-20 -0.0797754 0.0259375 -0.016144
-2.71051e-20 -0.0828125 0.0134375 -0.0165758
-2.32377e-20 -0.08375 0.005 -0.0165184
-2.71051e-20 -0.0815624 0.0196875 -0.016282
-1.17431e-20 -0.0795042 0.026875 -0.0161287
0 -0.0834375 0.0090625 -0.0166115
-2.71051e-20 -0.0809424 0.0221875 -0.016212
-2.32377e-20 -0.08375 0.005625 -0.0165277
2.71051e-20 -0.0821872 0.0171875 -0.0163949
1.19748e-20 -0.0824999 0.015625 -0.0164764
1.34839e-20 -0.083125 0.011875 -0.0166167
4.20678e-20 -0.08375 0.00625 -0.0165423
0 -0.0812502 0.02125 -0.016234
-2.71051e-20 -0.0792521 0.0278125 -0.0161231
0 -0.0818746 0.01875 -0.0163218
2.71051e-20 -0.0828124 0.0140625 -0.0165528
0 -0.0834375 0.0096875 -0.0166218
0 -0.082891 0.01375 -0.016565
0 -0.081134 0.021875 -0.0162202
4.20678e-20 -0.08375 0.006875 -0.0165603
0 -0.0803406 0.0246875 -0.0161756
1.12329e-20 -0.0800466 0.025625 -0.0161559
-3.15544e-30 -0.0830222 0.013125 -0.0165878
0 -0.0815624 0.0203125 -0.0162623
0 -0.0840556 0.000291911 -0.0165021
2.44803e-20 -0.0806346 0.02375 -0.016191
4.20674e-20 -0.083125 0.0125 -0.0166055
0 -0.0840581 0.000891431 -0.0165009
0 -0.0824999 0.0161471 -0.0164504
0 -0.079 0.02875 -0.0161443
0 -0.0834375 0.0103125 -0.0166279
-2.71051e-20 -0.0840604 0.00151995 -0.0165073
-2.71051e-20 -0.0797754 0.0265625 -0.0161346
0 -0.0824999 0.01625 -0.0164453
-1.91543e-20 -0.08375 0.0075 -0.0165789
2.71051e-20 -0.0840618 0.00216369 -0.0165155
5.42101e-20 -0.0821872 0.0178125 -0.0163662
0 -0.0809424 0.0228125 -0.0162035
-2.71051e-20 -0.0828124 0.0146875 -0.016526
-2.71051e-20 -0.0840623 0.00280416 -0.016516
-1.93473e-20 -0.0795042 0.0275 -0.0161265
2.71051e-20 -0.0840625 0.00343579 -0.0165146
0 -0.0818746 0.019375 -0.0162984
-2.32377e-20 -0.08375 0.008125 -0.0165961
0 -0.0812502 0.021875 -0.016221
2.71051e-20 -0.0834375 0.0109375 -0.0166292
0 -0.083125 0.013125 -0.0165893
2.71051e-20 -0.0840625 0.00406235 -0.0165128
-4.03897e-28 -0.0812502 0.0220194 -0.0162187
0 -0.0840625 0.0046875 -0.0165136
-2.71051e-20 -0.0792521 0.0284375 -0.0161334
-7.93489e-22 -0.08375 0.00875 -0.0166105
0 -0.0815624 0.0209375 -0.0162449
0 -0.0824999 0.016875 -0.0164146
0 -0.0828124 0.0153125 -0.0164964
0 -0.0821873 0.0184375 -0.0163395
-2.71051e-20 -0.0840625 0.0053125 -0.0165219
-2.71051e-20 -0.0803406 0.0253125 -0.0161667
0 -0.0834375 0.0115625 -0.0166254
-2.36362e-20 -0.0806346 0.024375 -0.0161846
8.7524e-21 -0.0800466 0.02625 -0.0161465
3.18738e-20 -0.083125 0.01375 -0.0165682
5.42101e-20 -0.0809424 0.0234375 -0.016197
-2.71051e-20 -0.0840625 0.0059375 -0.0165371
9.40053e-21 -0.08375 0.009375 -0.0166217
5.42101e-20 -0.0797754 0.0271875 -0.0161294
-4.03897e-28 -0.0818746 0.02 -0.0162773
0 -0.079 0.029375 -0.016172
0 -0.0812502 0.0225 -0.016211
0 -0.0840625 0.0065625 -0.0165563
0 -0.0834375 0.0121875 -0.0166167
-2.71051e-20 -0.0828125 0.0159375 -0.0164653
4.02684e-20 -0.0795042 0.028125 -0.0161326
0 -0.0824999 0.0175 -0.0163851
5.31712e-21 -0.08375 0.01 -0.0166292
-4.84789e-21 -0.083125 0.014375 -0.0165427
0 -0.0815624 0.0215625 -0.0162301
0 -0.0821872 0.0190625 -0.0163148
0 -0.0840625 0.0071875 -0.0165763
0 -0.08437 3.37202e-09 -0.016498
2.06795e-25 -0.0843712 0.000584294 -0.0164972
-1.03398e-25 -0.084373 0.00119921 -0.0164994
0 -0.0843743 0.00184118 -0.0165073
-1.29247e-26 -0.0843748 0.00248648 -0.0165129
5.42101e-20 -0.0792521 0.0290625 -0.0161552
-5.42101e-20 -0.0834375 0.0128125 -0.016603
3.75419e-21 -0.0806346 0.025 -0.016178
-8.96031e-21 -0.08375 0.010625 -0.0166324
-2.71051e-20 -0.0803406 0.0259375 -0.0161578
2.71051e-20 -0.0840625 0.0078125 -0.0165948
-8.07794e-28 -0.0818746 0.020625 -0.0162586
-1.61559e-27 -0.084375 0.00312193 -0.0165133
-2.08207e-20 -0.0800466 0.026875 -0.0161402
0 -0.0809424 0.0240625 -0.016192
5.42101e-20 -0.0828125 0.0165625 -0.0164341
0 -0.084375 0.00374969 -0.0165124
5.91646e-31 -0.0824999 0.0181182 -0.0163577
-2.66241e-29 -0.0824991 0.018125 -0.0163573
-1.09585e-20 -0.083125 0.015 -0.016514
7.88861e-31 -0.0824999 0.0181651 -0.0163557
-3.53602e-20 -0.0812502 0.023125 -0.0162036
0 -0.0797754 0.0278125 -0.0161314
5.42101e-20 -0.0840625 0.0084375 -0.0166103
-1.41995e-29 -0.084375 0.00436891 -0.0165125
-1.57772e-30 -0.084375 0.004375 -0.0165125
3.28992e-21 -0.08375 0.01125 -0.016631
0 -0.079 0.03 -0.0162105
2.71051e-20 -0.0821872 0.0196875 -0.0162924
2.71051e-20 -0.0834375 0.0134375 -0.0165841
3.15544e-30 -0.0829448 0.01625 -0.0164499
2.77904e-20 -0.084375 0.005 -0.0165182
-2.71051e-20 -0.0815624 0.0221875 -0.0162185
-2.11597e-20 -0.0795042 0.02875 -0.0161493
2.71051e-20 -0.0840625 0.0090625 -0.0166225
-1.91543e-20 -0.084375 0.005625 -0.0165319
0 -0.0828124 0.0171875 -0.0164038
5.37398e-21 -0.083125 0.015625 -0.0164832
-4.03897e-28 -0.0818746 0.02125 -0.0162423
-4.8769e-21 -0.08375 0.011875 -0.0166248
0 -0.0824999 0.01875 -0.0163317
-1.09875e-20 -0.084375 0.00625 -0.0165508
-2.63684e-21 -0.0806346 0.025625 -0.0161709
-2.71051e-20 -0.0834375 0.0140625 -0.01656
5.42101e-20 -0.0803406 0.0265625 -0.0161502
0 -0.0840625 0.0096875 -0.0166312
2.71051e-20 -0.0809424 0.0246875 -0.0161874
-2.71051e-20 -0.0792521 0.0296875 -0.0161888
1.7741e-20 -0.0800466 0.0275 -0.0161394
-1.72257e-21 -0.0812502 0.02375 -0.0161985
-2.93483e-20 -0.084375 0.006875 -0.0165713
2.71051e-20 -0.0821873 0.0203125 -0.0162724
-4.8769e-21 -0.08375 0.0125 -0.0166135
0 -0.0846844 0.00029213 -0.0164939
-2.71051e-20 -0.0846854 0.000891778 -0.0164916
0 -0.0797754 0.0284375 -0.0161427
2.71051e-20 -0.0815624 0.0228125 -0.01621
0 -0.0840625 0.0103125 -0.016636
0 -0.083125 0.01625 -0.0164518
2.71051e-20 -0.0846865 0.00152022 -0.0164979
-2.71051e-20 -0.0828125 0.0178125 -0.0163752
3.18738e-20 -0.084375 0.0075 -0.0165908
2.71051e-20 -0.0846872 0.00216385 -0.0165084