# p  POINT_DATA 30764
# x  y  z  p
0.01 -1.57772e-30 8.31199e-08 -0.013758
-0.01 -7.88861e-31 8.31199e-08 0.148912
-0.01 -4.1359e-25 0.000678316 0.148913
0.01 1.29247e-26 0.00067832 -0.0137581
0.0100335 -7.75482e-26 0.000675741 -0.0137581
-0.01 -1.65436e-24 0.00137373 0.148913
0.01 -2.06795e-25 0.00137372 -0.0137581
-0.01 3.30872e-24 0.00208696 0.148912
0.01 0 0.002087 -0.013758
0.0101863 -2.06795e-25 0.00133474 -0.013758
-0.0102702 0 0.000327905 0.148912
0.0102702 -2.71051e-20 0.000327954 -0.013758
-0.0102616 -2.71051e-20 0.000986823 0.148913
0.0102619 2.71051e-20 0.000986956 -0.013758
-0.0102382 -5.42101e-20 0.00161862 0.148913
0.0102389 2.71051e-20 0.00161883 -0.013758
-0.0105473 0 0.000241058 0.148913
-0.0105508 0 8.49672e-08 0.148913
0.0105508 -2.06795e-25 8.59948e-08 -0.013758
-0.0105415 -1.37544e-20 0.00063654 0.148913
0.0105418 3.30411e-20 0.00063661 -0.013758
-0.0105237 1.65436e-24 0.00126378 0.148914
0.0105246 -3.7066e-21 0.00126397 -0.013758
-0.0105066 1.32217e-20 0.00172222 0.148913
0.0105082 1.07327e-20 0.00172263 -0.013758
-0.0104981 0 0.00202328 0.148911
0.0105003 2.71051e-20 0.00202395 -0.013758
-0.0104973 -3.30872e-24 0.00235191 0.148912
0.0105018 -1.65436e-24 0.00235298 -0.013758
-0.0108324 5.42101e-20 0.000312949 0.148913
0.0108326 0 0.000313002 -0.013758
-0.0108211 0 0.000935918 0.148914
0.0108219 0 0.000936095 -0.013758
-0.0107987 2.71051e-20 0.00152672 0.148914
0.0108006 -2.71051e-20 0.00152718 -0.013758
0.0111231 0 1.4102e-08 -0.013758
-0.0111231 0 1.1833e-08 0.148913
-0.0111217 2.06795e-25 0.000543659 0.148914
-0.0109001 -2.71051e-20 0.00228558 0.148913
-0.0111215 0 0.000612314 0.148914
0.011122 2.32467e-20 0.00061238 -0.013758
0.0109057 -5.42101e-20 0.00228695 -0.013758
-0.0109929 0 0.00190209 0.148914
0.0109964 -1.6355e-20 0.00190279 -0.013758
-0.0111 0 0.00123237 0.148914
0.0111015 -6.97231e-21 0.00123258 -0.013758
-0.0109856 8.27181e-25 0.00261204 0.148913
0.0109947 0 0.00261423 -0.013758
-0.0114284 2.71051e-20 0.000305075 0.148915
0.0114286 0 0.000305108 -0.0137579
-0.0112129 2.93467e-20 0.00232217 0.148914
0.0112195 -3.7018e-20 0.00232367 -0.013758
-0.0114246 0 0.00092111 0.148915
0.0114256 0 0.00092126 -0.013758
-0.0113817 2.71051e-20 0.0015635 0.148913
0.0113839 2.71051e-20 0.00156383 -0.013758
-0.0111731 -8.27181e-25 0.0027119 0.148912
-0.0114068 0 0.00210155 0.148915
0.011411 2.71051e-20 0.00210244 -0.013758
-0.0113382 2.71051e-20 0.00256301 0.148912
0.0113467 5.42101e-20 0.00256544 -0.013758
0.0117295 8.27181e-25 6.31228e-09 -0.0137579
-0.0117295 0 4.80147e-09 0.148917
-0.0117405 0 0.000519436 0.148917
-0.0117423 0 0.00060318 0.148917
0.0117428 -2.8802e-20 0.000603251 -0.013758
-0.0115321 0 0.00238301 0.148914
-0.0117315 0 0.00123297 0.148916
0.0117329 -2.51446e-20 0.00123324 -0.013758
-0.0114582 0 0.00286379 0.148911
0.011472 -6.61744e-24 0.00286721 -0.013758
-0.0117202 0 0.00185692 0.148915
0.0117223 -1.95545e-21 0.00185737 -0.013758
-0.0116915 1.03398e-25 0.00211241 0.148915
-0.0116585 -1.22998e-20 0.00240709 0.148914
0.0116635 -1.73079e-20 0.00240865 -0.013758
-0.0120571 -2.71051e-20 0.000300839 0.148919
0.0120573 0 0.000300897 -0.0137579
-0.0120651 -2.71051e-20 0.000916399 0.148919
0.0120657 0 0.000916727 -0.0137579
-0.012009 0 0.00187022 0.148916
-0.0120608 2.71051e-20 0.00155099 0.148916
0.0120609 -2.71051e-20 0.00155169 -0.0137579
-0.0118568 -2.71051e-20 0.00273895 0.148911
0.0118619 2.71051e-20 0.00274195 -0.0137579
0.012035 -2.71051e-20 0.00219403 -0.0137579
-0.0120372 0 0.00219395 0.148917
-0.0119121 0 0.00310559 0.148912
0.0119304 0 0.00311016 -0.0137579
0.0123683 4.1359e-25 2.71643e-09 -0.0137579
-0.0123683 4.1359e-25 2.66988e-09 0.148922
-0.0123892 1.29247e-25 0.000564544 0.148923
-0.0123904 2.68541e-20 0.00059722 0.148923
0.0123907 -3.57756e-21 0.000597448 -0.0137579
-0.0123962 0 0.00122692 0.14892
0.0123962 -2.56881e-20 0.00122803 -0.0137579
-0.0123949 0 0.00129018 0.14892
0.0123792 -8.31151e-21 0.00188965 -0.0137579
-0.0123827 -2.48876e-20 0.00188742 0.148918
-0.0125417 -5.16988e-26 0.00059593 0.148924
0.0123193 -2.34258e-20 0.00260601 -0.0137579
-0.0123305 3.27564e-22 0.00260668 0.148914
-0.012569 0 0.00122537 0.148922
0.0122774 0 0.00301148 -0.0137579
-0.0122788 2.71051e-20 0.00300901 0.148913
-0.0127075 2.71051e-20 0.00029719 0.148926
0.0127075 0 0.000297361 -0.0137579
0.0127224 0 0.000910669 -0.0137579
-0.0127228 0 0.000909514 0.148926
-0.0123477 0 0.00333768 0.148907
0.0123698 0 0.00334298 -0.0137579
0.0127185 2.71051e-20 0.0015595 -0.0137579
-0.0127224 -2.71051e-20 0.00155586 0.148919
0.0126865 0 0.00223766 -0.0137579
-0.0127017 0 0.00223253 0.14892
0.0125633 -1.3182e-20 0.00303647 -0.0137579
-0.0125873 3.51717e-21 0.00304271 0.148908
-0.0130258 4.1359e-25 2.56512e-09 0.148931
0.0130258 0 1.94236e-09 -0.0137579
0.0127297 2.71051e-20 0.00279908 -0.0137579
0.0130472 8.45006e-21 0.000592235 -0.0137579
-0.0130474 -1.70556e-20 0.000591621 0.148931
-0.0127816 0 0.0028142 0.148909
0.0126842 0 0.00327272 -0.0137579
0.0130549 -6.2357e-21 0.00122427 -0.0137579
-0.0130573 -2.05999e-21 0.00122099 0.148927
-0.0127078 2.71051e-20 0.00328029 0.148902
0.0130409 -1.47246e-20 0.00189497 -0.0137579
-0.0130523 -2.09264e-20 0.00188526 0.148922
-0.0127679 -3.30872e-24 0.0035615 0.148905
0.0130294 1.08774e-20 0.00254415 -0.0137579
0.0127922 0 0.0035676 -0.0137579
-0.0130668 9.5895e-21 0.00252843 0.148918
0.0129755 2.4468e-20 0.00310441 -0.0137579
0.0133645 -2.71051e-20 0.000294678 -0.0137578
-0.0133647 0 0.0002943 0.148936
0.013377 2.71051e-20 0.000905403 -0.0137579
-0.0133788 -2.71051e-20 0.000902908 0.148935
-0.0130842 5.05407e-21 0.00316077 0.148908
0.0133744 -5.42101e-20 0.00155542 -0.0137579
-0.0133828 2.71051e-20 0.00154643 0.148929
-0.013073 5.42101e-20 0.00349728 0.148907
0.0133614 0 0.00222042 -0.0137579
-0.0133875 2.71051e-20 0.0021975 0.14892
0.0131593 0 0.00342851 -0.0137578
0.0133331 2.71051e-20 0.0028787 -0.0137578
-0.0136859 -4.1359e-25 1.99115e-09 0.148936
0.0136859 0 1.20838e-09 -0.0137578
-0.0133972 -2.71051e-20 0.00283002 0.148923
-0.0131766 3.30872e-24 0.00377904 0.148901
0.0137005 -5.48721e-21 0.000588479 -0.0137578
-0.0137012 1.14934e-20 0.000587422 0.148934
0.0132008 -6.61744e-24 0.00378645 -0.0137578
0.0137066 1.74041e-20 0.00121712 -0.0137579
-0.0137113 1.59916e-20 0.00121149 0.148927
-0.0133317 1.63285e-20 0.00353346 0.1489
0.0136964 -3.48053e-20 0.00188403 -0.0137579
-0.0137136 -3.89168e-21 0.00186546 0.148916
-0.0134741 -5.42101e-20 0.00333584 0.148899
0.0136686 1.01933e-20 0.00256373 -0.0137579
-0.0137152 1.19267e-20 0.00251516 0.14891
-0.0134565 -2.71051e-20 0.0037461 0.148895
0.0136041 1.29173e-20 0.00329192 -0.0137578
0.0140177 2.71051e-20 0.000293139 -0.0137577
-0.0140182 2.71051e-20 0.000292601 0.148936
0.0135422 -2.71051e-20 0.0036961 -0.0137577
0.0140256 -5.42101e-20 0.000900278 -0.0137578
-0.0140284 -2.71051e-20 0.000896824 0.148932
-0.0137342 1.02215e-20 0.00311436 0.148901
0.014023 0 0.00154615 -0.0137579
-0.0140338 0 0.00153371 0.148914
-0.0135654 0 0.00401386 0.148894
0.0135836 0 0.00402855 -0.0137577
0.0140057 0 0.00221874 -0.0137578
-0.0137123 2.46334e-21 0.00361961 0.148894
-0.0140348 -5.42101e-20 0.00218502 0.148903
0.0139704 0 0.00290901 -0.0137578
-0.0140398 0 0.00281908 0.148895
0.0138292 3.21873e-20 0.00373726 -0.0137577
-0.0143389 0 2.44464e-09 0.148922
0.0143389 -2.06795e-25 1.44847e-09 -0.0137577
0.0143466 -2.56822e-20 0.000586141 -0.0137577
-0.0143476 -8.67712e-22 0.00058495 0.148919
0.0143501 2.12546e-20 0.00121019 -0.0137578
-0.0143553 -8.05881e-22 0.00120417 0.148903
-0.0138945 2.71051e-20 0.00393317 0.148893
-0.0140375 -2.71051e-20 0.00343143 0.148887
0.0140303 0 0.00350658 -0.0137577
0.0143403 -5.89904e-21 0.00187312 -0.0137578
-0.0143565 0 0.00185406 0.148881
0.0139282 -2.71051e-20 0.00399009 -0.0137577
0.0143175 -4.96474e-21 0.00255235 -0.0137578
-0.0139239 -6.61744e-24 0.00428422 0.148918
-0.0143528 9.42903e-21 0.00250721 0.148867
0.0139403 0 0.00429658 -0.0137576
0.0146631 -5.42101e-20 0.000292462 -0.0137576
-0.0146635 -2.71051e-20 0.000291927 0.148909
0.0143152 -4.84066e-21 0.00320649 -0.0137578
-0.0143427 1.98358e-20 0.00314905 0.148869
0.0146669 0 0.000896444 -0.0137577
-0.0146697 -2.71051e-20 0.00089329 0.148899
0.014725 -1.03398e-25 3.73197e-16 -0.0137576
0.0146638 -2.71051e-20 0.00153733 -0.0137578
-0.014673 0 0.00152674 0.148868
-0.0142998 -2.49858e-20 0.00383371 0.148893
0.0146505 2.71051e-20 0.00220325 -0.0137577
0.0143063 -8.42401e-21 0.0038743 -0.0137577
0.0148155 1.29247e-26 0.000585312 -0.0137577
-0.0146709 -5.42101e-20 0.00217815 0.14884
-0.0142437 2.71051e-20 0.00422231 0.148942
-0.0147463 0 0.00185052 0.148847
0.014255 2.71051e-20 0.00424396 -0.0137575
0.0148484 -1.29247e-26 0.00120616 -0.0137577
0.0146399 2.71051e-20 0.00286477 -0.0137577
-0.0147123 5.16988e-26 0.00250555 0.148832
-0.0146627 -5.42101e-20 0.00282903 0.14883
-0.0149819 0 3.19382e-09 0.148888
0.0149819 2.06795e-25 9.62822e-10 -0.0137576
-0.0142803 0 0.00455271 0.148915
0.0149853 -1.27435e-20 0.000585012 -0.0137576
-0.0149861 1.96592e-20 0.000584127 0.148882
0.0142938 0 0.00456274 -0.0137576
0.0149869 0 0.00120504 -0.0137577
-0.0149906 1.37441e-21 0.00120094 0.148858
0.014925 1.29247e-26 0.00186093 -0.0137577
-0.0146412 -2.71051e-20 0.00348482 0.148864
0.0146341 2.71051e-20 0.00351739 -0.0137577
-0.0149904 2.58494e-26 0.00167368 0.148834
0.0149806 1.29247e-26 0.00185977 -0.0137577
0.0149792 3.87741e-26 0.00193517 -0.0137577
-0.0149903 -2.58494e-26 0.00184831 0.148825
-0.0145147 1.37312e-21 0.00427467 0.148901
0.0145233 -1.78406e-20 0.00429208 -0.0137576
0.0149685 1.03398e-25 0.00252404 -0.0137577
-0.0149829 0 0.0025043 0.148805
-0.0149776 0 0.00274965 0.148809
-0.0147025 -2.71051e-20 0.0040589 0.148873
0.0147084 0 0.00408023 -0.0137576
0.0149582 -7.37183e-21 0.00317892 -0.0137577
-0.0146099 2.71051e-20 0.0045237 0.148888
-0.0149688 -1.03398e-25 0.00315684 0.148817
0.0153005 0 0.000292235 -0.0137576
-0.0153009 2.71051e-20 0.000291878 0.148868
0.0146196 -2.71051e-20 0.00453529 -0.0137576
0.0153021 0 0.000894041 -0.0137577
-0.0153039 -2.71051e-20 0.000892113 0.148853
0.0153002 -2.71051e-20 0.00152928 -0.0137577
-0.0153052 0 0.00152357 0.148813
-0.0146355 -6.61744e-24 0.0048202 0.148942
0.0146456 6.61744e-24 0.00482779 -0.0137575
-0.0149723 2.49378e-20 0.00378401 0.148857
0.0149713 -3.61147e-21 0.00380144 -0.0137576
0.0152929 2.71051e-20 0.00218496 -0.0137577
-0.0153015 2.71051e-20 0.00217419 0.148778
0.0152835 0 0.00284024 -0.0137576
-0.0152919 -2.71051e-20 0.00282667 0.148772
-0.0149633 1.65767e-21 0.00442183 0.148924
0.014969 -2.689e-20 0.00443194 -0.0137575
-0.0156169 0 3.92127e-09 0.14885
0.0156169 -2.06795e-25 1.59541e-09 -0.0137575
0.0156181 0 0.000584603 -0.0137575
-0.0156185 -2.68137e-20 0.000584185 0.148843
0.0156191 -2.58494e-26 0.0012017 -0.0137576
-0.0156207 -8.07576e-21 0.00119995 0.148816
0.0154665 0 0.00250914 -0.0137576
-0.0149261 2.71051e-20 0.00477675 0.148996
0.0152816 0 0.00347878 -0.0137576
-0.0152852 -2.71051e-20 0.00346631 0.148803
0.0149333 5.42101e-20 0.00478413 -0.0137574
-0.0156201 0 0.00172314 0.148787
0.0156163 0 0.00184941 -0.0137576
-0.0156199 0 0.00184524 0.14878
-0.015472 0 0.00314795 0.148781
0.0156092 -2.58494e-26 0.00250487 -0.0137576
-0.0156138 0 0.00249847 0.148759
-0.0152764 2.71051e-20 0.00409542 0.148888
0.0152785 5.42101e-20 0.00410448 -0.0137575
0.015608 2.58494e-26 0.00259813 -0.0137576
-0.0149898 0 0.00508713 0.149028
0.0149968 0 0.00509235 -0.0137574
0.0156006 -9.3368e-22 0.00315251 -0.0137576
-0.0151689 2.0931e-20 0.00482334 0.149007
-0.0156039 0 0.00314562 0.148772
0.0151743 3.30674e-20 0.00482866 -0.0137574
-0.0156032 2.58494e-26 0.00318287 0.148775
0.0159322 2.71051e-20 0.000292222 -0.0137575
-0.0159323 5.42101e-20 0.000292065 0.148833
0.0159282 1.29247e-26 0.000584568 -0.0137575
0.0159329 0 0.000892712 -0.0137576
-0.0159336 2.71051e-20 0.000891952 0.148819
0.0159836 -1.03398e-25 2.31451e-21 -0.0137574
-0.0153229 0 0.00461704 0.148966
0.0159322 5.42101e-20 0.00152399 -0.0137576
-0.015934 5.42101e-20 0.00152204 0.148781
0.0153273 2.71051e-20 0.00462278 -0.0137574
-0.015592 2.63953e-20 0.00378396 0.148833
0.0155918 -2.09955e-20 0.0037897 -0.0137575
0.0159284 -2.71051e-20 0.00217342 -0.0137576
-0.0159311 0 0.00217013 0.148747
-0.0152682 0 0.00505663 0.149059
0.0152733 -2.71051e-20 0.00506088 -0.0137574
-0.0160396 0 0.00184385 0.14877
0.0159217 2.71051e-20 0.00282271 -0.0137576
-0.0159241 -2.71051e-20 0.00281877 0.14874
-0.0155885 -1.51771e-20 0.00438984 0.148938
0.0155908 1.1468e-20 0.00439405 -0.0137575
-0.0162467 0 4.50343e-09 0.148823
0.0162467 0 1.14466e-09 -0.0137574
0.0162034 -4.84676e-27 0.00120022 -0.0137576
-0.0153431 6.61744e-24 0.00535315 0.149106
0.0153477 6.61744e-24 0.00535654 -0.0137574
0.0162471 -2.58494e-26 0.000584533 -0.0137575
-0.0162472 -1.19921e-20 0.00058442 0.148818
0.0159122 0 0.00346529 -0.0137575
-0.0159131 0 0.00346161 0.148771
0.0162478 -7.61631e-21 0.00120011 -0.0137575
-0.0162481 2.60955e-21 0.00119968 0.148797
-0.0155338 -1.73873e-20 0.00491869 0.149051
0.0162477 -6.46235e-27 0.00123764 -0.0137576
0.0155374 -1.64179e-20 0.00492201 -0.0137574
0.0162469 0 0.00184409 -0.0137576
-0.0162477 -2.70651e-20 0.00184316 0.148766
-0.0162472 6.46235e-27 0.00193862 0.148763
-0.015901 0 0.00409355 0.148869
0.0159019 -2.71051e-20 0.00409655 -0.0137574
0.0162431 0 0.00249417 -0.0137576
-0.016244 -5.16988e-26 0.00249283 0.148747
0.0162387 0 0.00283727 -0.0137575
0.0162348 -2.01597e-21 0.0031392 -0.0137575
-0.0162354 0 0.00313774 0.148759
-0.0156894 5.42101e-20 0.00525034 0.149153
0.0156925 0 0.00525277 -0.0137573
-0.0162334 0 0.00321894 0.148768
-0.0158705 2.71051e-20 0.0047214 0.149027
0.0158727 -2.71051e-20 0.00472386 -0.0137573
0.0165604 -2.71051e-20 0.000292258 -0.0137573
-0.0165604 -2.71051e-20 0.000292218 0.148814
0.0165607 0 0.000892189 -0.0137575
-0.0165609 -2.71051e-20 0.000892028 0.148807
0.0165606 2.71051e-20 0.00152156 -0.0137576
-0.016561 2.71051e-20 0.00152113 0.148782
-0.0162196 3.04857e-21 0.00378044 0.148831
0.0162198 2.77449e-20 0.00378182 -0.0137575
-0.0156952 -1.32349e-23 0.00561829 0.149212
0.0156978 0 0.00562028 -0.0137573
0.0165588 2.71051e-20 0.00216766 -0.0137575
-0.0165593 0 0.00216703 0.148753
-0.0161896 -2.80348e-20 0.00442818 0.148964
0.0161906 -4.58093e-21 0.00442953 -0.0137574
0.0165536 2.71051e-20 0.00281397 -0.0137576
-0.016554 -2.71051e-20 0.00281321 0.148748
-0.0168738 -8.27181e-25 4.79187e-09 0.14881
0.0168738 0 1.76193e-09 -0.0137573
-0.0168739 -2.6385e-20 0.00058458 0.148809
0.0168739 -3.30665e-21 0.000584593 -0.0137574
-0.0165426 -2.71051e-20 0.00345663 0.148777
0.0165425 -5.42101e-20 0.00345738 -0.0137574
-0.0161125 -3.23891e-20 0.00513741 0.14918
0.0161142 -1.91343e-20 0.00513878 -0.0137573
0.0168742 2.32584e-20 0.00119965 -0.0137575
-0.0168743 -1.13973e-20 0.0011996 0.148799
-0.0160304 0 0.00554246 0.149271
0.0168741 -3.23117e-27 0.00173829 -0.0137575
0.0160322 2.71051e-20 0.00554379 -0.0137572
-0.0168741 2.59606e-20 0.00184202 0.148778
0.0168741 -3.23117e-27 0.00184212 -0.0137575
-0.0165205 0 0.00410417 0.148904
0.0165209 2.71051e-20 0.00410496 -0.0137574
-0.0168728 0 0.00226207 0.148766
0.016872 0 0.00248968 -0.0137575
-0.0168721 0 0.00248953 0.14876
-0.0160456 0 0.00588237 0.149336
0.0160471 1.32349e-23 0.0058834 -0.0137572
0.0168085 3.23117e-27 0.00313289 -0.0137575
-0.0168654 0 0.00313207 0.14877
0.0168654 0 0.00313226 -0.0137575
-0.0164772 0 0.00477307 0.149057
0.0168651 0 0.00314347 -0.0137575
0.0164781 -2.71051e-20 0.00477392 -0.0137573
-0.0168631 0 0.003224 0.14878
0.0171867 0 0.000292305 -0.0137572
-0.0171867 -2.71051e-20 0.000292302 0.148806
0.0171869 -5.42101e-20 0.000892117 -0.0137574
-0.0171869 5.42101e-20 0.000892093 0.148808
0.0171304 -3.23117e-27 0.0018419 -0.0137575
-0.0163088 3.81827e-21 0.00559077 0.149349
0.01631 -2.74889e-20 0.00559165 -0.0137572
0.0171869 0 0.00152074 -0.0137575
-0.0171869 0 0.00152071 0.1488
-0.0168494 1.65635e-20 0.00377631 0.148842
0.0168495 2.06795e-25 0.00377656 -0.0137574
0.017186 0 0.00216542 -0.0137574
-0.0171861 0 0.00216535 0.148776
-0.016518 0 0.00536714 0.149374
0.016519 0 0.00536792 -0.0137572
-0.0168212 -2.7426e-20 0.00443102 0.148987
0.0168216 -7.55629e-21 0.00443137 -0.0137573
-0.0163928 0 0.00584542 0.149401
0.0163937 -2.71051e-20 0.00584612 -0.0137572
0.0171824 -5.42101e-20 0.0028096 -0.0137575
-0.0171824 2.71051e-20 0.00280953 0.148763
-0.0174996 8.27181e-25 4.65707e-09 0.148805
0.0174996 0 2.44541e-09 -0.0137572
-0.0163956 1.32349e-23 0.00614428 0.149445
-0.0174996 -2.87625e-20 0.000584661 0.148808
0.0174996 1.82335e-20 0.00058466 -0.0137573
0.0163962 0 0.00614484 -0.0137571
-0.0171728 2.71051e-20 0.00345119 0.148791
0.0171728 2.71051e-20 0.00345131 -0.0137574
-0.0174998 8.83636e-22 0.0011996 0.148812
0.0174998 -3.5115e-20 0.0011996 -0.0137574
-0.0168072 5.71251e-21 0.00507468 0.149213
0.0168078 6.49833e-21 0.00507511 -0.0137572
-0.0174997 1.28346e-20 0.00184159 0.148803
0.0174997 0 0.00184159 -0.0137574
-0.0174392 -1.29247e-26 0.00248806 0.148783
0.0174993 0 0.00212676 -0.0137574
-0.0171543 -2.71051e-20 0.00409713 0.148897
0.0171545 2.71051e-20 0.00409729 -0.0137573
0.0174987 0 0.00248791 -0.0137574
-0.0174987 3.00084e-20 0.00248791 0.148785
-0.0174983 -8.07794e-27 0.0025547 0.148785
-0.0167741 -1.40819e-20 0.00574438 0.149432
0.0167746 -2.89381e-20 0.00574481 -0.0137571
-0.0174944 0 0.00312778 0.148785
0.0174944 0 0.00312779 -0.0137574
-0.0171359 0 0.00474309 0.149091
0.0171362 2.71051e-20 0.00474333 -0.0137572
-0.0167048 2.71051e-20 0.00611288 0.14949
0.0167053 0 0.00611327 -0.0137569
0.0174921 0 0.00326562 -0.0137574
-0.017491 0 0.00332932 0.148802
0.0178123 0 0.000292339 -0.0137572
-0.0178123 2.71051e-20 0.000292339 0.148805
-0.0178123 2.71051e-20 0.000892127 0.148816
0.0178123 0 0.000892128 -0.0137573
-0.0178123 2.71051e-20 0.00152058 0.148824
0.0178123 2.71051e-20 0.00152058 -0.0137573
-0.0174836 0 0.00376687 0.14884
0.0174836 -2.85326e-20 0.00376691 -0.0137573
-0.0167191 0 0.00643605 0.149526
0.0167195 -1.32349e-23 0.0064363 -0.013757
-0.0178119 -2.71051e-20 0.00216457 0.148812
0.0178119 0 0.00216457 -0.0137573
-0.017115 2.71051e-20 0.00539431 0.149316
0.0171154 -2.71051e-20 0.0053946 -0.0137571
-0.0174667 2.24863e-20 0.00441055 0.148969
0.0174668 -1.13948e-20 0.00441062 -0.0137573
-0.0178098 0 0.00280703 0.148789
0.0178098 2.71051e-20 0.00280703 -0.0137574
-0.0169664 -1.63517e-20 0.00617963 0.149541
0.0169667 -3.2174e-20 0.00617988 -0.013757
-0.0181249 0 4.21997e-09 0.148804
0.0181249 4.1359e-25 2.86614e-09 -0.0137572
-0.0178039 0 0.00344471 0.148797
0.0178039 0 0.00344474 -0.0137573
-0.0181249 -3.85977e-20 0.000584697 0.148811
0.0181249 -1.09298e-20 0.000584697 -0.0137572
-0.0181249 2.39707e-21 0.00119962 0.148826
0.0181249 8.70282e-21 0.00119962 -0.0137573
-0.0174472 6.40238e-22 0.00505795 0.149158
0.0174474 -2.01088e-21 0.00505807 -0.0137572
-0.017167 2.71051e-20 0.00597246 0.149571
0.0171673 2.71051e-20 0.0059727 -0.013757
-0.0170427 2.71051e-20 0.00643802 0.149562
-0.0181249 1.05281e-20 0.00184147 0.148828
0.0181249 -8.46848e-21 0.00184147 -0.0137573
0.0170429 2.71051e-20 0.0064382 -0.013757
-0.017793 0 0.00408287 0.148879
0.017793 -2.71051e-20 0.00408289 -0.0137572
0.0181245 0 0.00242071 -0.0137573
-0.0181245 -8.62362e-22 0.0024871 0.148804
0.0181245 0 0.0024871 -0.0137573
-0.0179092 -1.29247e-26 0.00376081 0.14881
-0.0170214 0 0.00674877 0.149505
0.0170216 0 0.00674896 -0.0137569
-0.0181236 0 0.00276481 0.148794
-0.017444 1.04175e-20 0.00568992 0.149364
0.0174442 1.67554e-20 0.00569009 -0.0137571
0.0179748 1.29247e-26 0.00375989 -0.0137573
-0.0181225 0 0.00312454 0.148781
0.0181225 0 0.00312455 -0.0137573
-0.0177779 0 0.00472459 0.149013
0.017778 5.42101e-20 0.00472464 -0.0137572
-0.0184375 5.42101e-20 0.000292351 0.148804
0.0184375 0 0.000292351 -0.0137571
-0.0184375 0 0.000892166 0.14882
0.0184375 0 0.000892167 -0.0137572
-0.0184374 -2.71051e-20 0.00152054 0.148846
0.0184374 5.42101e-20 0.00152054 -0.0137572
-0.0181171 0 0.00375785 0.148796
0.0181172 -1.29247e-26 0.00375786 -0.0137573
0.0183571 8.07794e-28 0.00248696 -0.0137573
0.0181149 -1.29247e-26 0.00390339 -0.0137572
-0.0174092 1.64907e-20 0.00635339 0.14948
0.0174094 -1.62855e-20 0.0063535 -0.0137569
-0.0181139 -1.29247e-26 0.00395904 0.148817
-0.017766 0 0.0053638 0.149215
0.0177661 0 0.00536388 -0.0137571
-0.0184373 -2.71051e-20 0.0021642 0.14883
0.0184373 0 0.0021642 -0.0137572
-0.0173271 -5.42101e-20 0.00672776 0.149449
0.0173272 -5.42101e-20 0.00672785 -0.0137567
-0.0181071 -2.58494e-26 0.00439391 0.148864
0.0181071 0 0.00439392 -0.0137572
0.0184364 -2.71051e-20 0.0028054 -0.0137573
-0.0184364 0 0.0028054 0.148787
-0.0173238 0 0.00706122 0.14942
0.0173239 1.32349e-23 0.00706123 -0.0137568
-0.0177469 0 0.00601017 0.149335
0.017747 -2.71051e-20 0.00601025 -0.0137569
-0.01875 0 3.911e-09 0.1488
0.01875 0 3.03741e-09 -0.0137571
-0.0184337 -5.42101e-20 0.00343972 0.148752
0.0184337 -2.71051e-20 0.00343972 -0.0137573
-0.01875 -1.26451e-20 0.000584711 0.148809
0.01875 2.2678e-20 0.000584711 -0.0137571
-0.0180931 -5.0243e-21 0.00503408 0.148986
0.0180932 -2.72424e-20 0.00503411 -0.0137571
-0.01875 2.04613e-21 0.00119964 0.148831
0.01875 2.40119e-20 0.00119964 -0.0137572
-0.01875 2.73405e-20 0.00184144 0.148832
0.01875 -7.18265e-21 0.00184144 -0.0137572
-0.0175849 -3.02814e-20 0.0067982 0.149437
0.017585 1.41746e-20 0.00679825 -0.0137568
-0.0184279 0 0.00407228 0.148757
0.0184279 0 0.0040723 -0.0137572
-0.0187498 -1.29247e-26 0.00248672 0.148786
0.0187498 1.90868e-20 0.00248672 -0.0137572
0.0187496 -3.23117e-27 0.00268031 -0.0137572
-0.0180758 3.02004e-20 0.00567801 0.149119
0.0180758 -1.76893e-20 0.00567802 -0.013757
-0.0184331 0 0.00438832 0.148747
-0.0177903 0 0.00659091 0.149472
0.0177904 2.71051e-20 0.00659097 -0.0137568
-0.0187494 0 0.00293789 0.148735
0.0184871 2.58494e-26 0.00438741 -0.0137572
0.0187492 6.46235e-27 0.00312276 -0.0137572
-0.0187492 0 0.00312276 0.148714
-0.0184184 8.13152e-20 0.0047076 0.148812
0.0184184 5.42101e-20 0.0047076 -0.0137571
-0.0176528 5.42101e-20 0.00706059 0.149391
0.0176528 2.71051e-20 0.00706062 -0.0137568
-0.0190625 -5.42101e-20 0.000292356 0.148795
0.0190625 -2.71051e-20 0.000292356 -0.013757
-0.0190625 -5.42101e-20 0.000892176 0.148817
0.0190625 -2.71051e-20 0.000892176 -0.0137571
-0.0176265 0 0.00737367 0.149243
0.0176265 0 0.00737369 -0.0137567
-0.0187471 0 0.00375263 0.148655
0.0187471 0 0.00375264 -0.0137572
0.0190625 2.71051e-20 0.00152054 -0.0137571
-0.0190625 0 0.00152054 0.148842
-0.0180691 -7.0939e-21 0.00630978 0.149218
0.0180692 1.15441e-20 0.00630982 -0.0137569
-0.0184047 0 0.0053471 0.148905
0.0184047 5.42101e-20 0.00534713 -0.013757
0.0190624 2.71051e-20 0.00216406 -0.0137571
-0.0190624 2.71051e-20 0.00216406 0.148811
-0.0187422 2.58494e-26 0.00438303 0.148636
0.0187422 0 0.00438304 -0.0137571
0.0190622 2.71051e-20 0.00280458 -0.0137571
-0.0190622 0 0.00280458 0.148717
0.019294 -5.16988e-26 6.84918e-45 -0.013757
-0.0180246 8.41077e-21 0.00697622 0.149208
0.0180246 1.06806e-20 0.00697632 -0.0137567
0.0187368 -1.29247e-26 0.00474645 -0.0137571
-0.0183915 2.71051e-20 0.00598567 0.149022
0.0183916 -2.71051e-20 0.00598568 -0.0137569
-0.0187352 1.29247e-26 0.00485588 0.148657
0.0190612 -2.71051e-20 0.00343712 -0.0137572
-0.0190612 -2.71051e-20 0.00343712 0.1486
-0.019375 0 4.06668e-09 0.148779
0.019375 -1.03398e-25 4.52376e-10 -0.013757
0.019375 -5.16988e-26 0.000278199 -0.013757
-0.019375 -1.08671e-20 0.000584717 0.148793
0.019375 1.76076e-21 0.000584716 -0.0137571
-0.0179362 0 0.00735206 0.149096
0.0179362 -2.71051e-20 0.00735208 -0.0137565
0.0187328 0 0.00501785 -0.0137571
-0.0187328 0 0.00501785 0.148664
-0.019375 4.87716e-21 0.00119964 0.148816
0.019375 -2.11879e-20 0.00119964 -0.0137571
-0.019375 3.2838e-21 0.00184143 0.148795
0.019375 7.59467e-21 0.00184143 -0.0137571
-0.0190587 2.71051e-20 0.00406623 0.148511
0.0190587 -2.71051e-20 0.00406624 -0.0137571
0.0179293 -1.32349e-23 0.00768642 -0.0137566
-0.0179292 0 0.00768646 0.149055
-0.0188727 1.9387e-26 0.00501563 0.14857
-0.0183671 -2.71051e-20 0.00663351 0.14902
0.0183672 2.71051e-20 0.00663353 -0.0137568
-0.019375 2.75561e-21 0.0024866 0.148698
0.019375 -2.49041e-20 0.0024866 -0.0137571
-0.0187185 -1.85681e-20 0.00565746 0.148728
0.0187186 8.00339e-21 0.00565747 -0.0137569
-0.0193457 -2.01948e-27 0.00312215 0.148558
0.0193748 0 0.00300214 -0.0137571
-0.0190533 -5.42101e-20 0.00469698 0.148467
0.0190533 5.42101e-20 0.00469699 -0.0137571
0.0193748 0 0.00312212 -0.0137571
-0.0193748 1.79074e-21 0.00312212 0.14855
0.018974 2.58494e-26 0.00501401 -0.013757
-0.0193748 -2.62533e-27 0.00313579 0.148547
0.0181955 1.40488e-20 0.00742325 -0.0137566
-0.0181955 -1.78142e-20 0.00742325 0.149052
-0.0196875 0 0.000292358 0.148762
0.0196875 -2.71051e-20 0.000292358 -0.0137569
-0.0196875 2.71051e-20 0.00089218 0.148801
0.0196875 0 0.00089218 -0.0137571
0.0186985 2.20626e-20 0.0063019 -0.0137568
-0.0186985 -4.33112e-21 0.0063019 0.14878
-0.0193742 0 0.00375048 0.148404
0.0193742 -6.46235e-27 0.00375048 -0.0137571
0.0196875 -2.71051e-20 0.00152054 -0.0137571
-0.0196875 -2.71051e-20 0.00152054 0.148804
-0.0184047 0 0.00721591 0.149046
0.0184047 -2.71051e-20 0.00721592 -0.0137566
-0.0190436 -2.71051e-20 0.00533179 0.148476
0.0190437 -2.71051e-20 0.00533179 -0.013757
0.0196875 0 0.00216401 -0.013757
-0.0196875 0 0.00216401 0.148722
-0.0182613 -2.71051e-20 0.00768613 0.149014
0.0182613 -2.71051e-20 0.00768613 -0.0137567
-0.0193723 2.58494e-26 0.00437779 0.148295
0.0193723 2.58494e-26 0.00437779 -0.013757
-0.0196874 -5.42101e-20 0.00280433 0.148544
0.0196874 0 0.00280433 -0.013757
-0.0182323 1.32349e-23 0.00799942 0.148805
0.0182323 0 0.00799942 -0.0137565
-0.0186874 -1.56635e-20 0.00693493 0.148795
0.0186875 -8.69863e-21 0.00693493 -0.0137567
-0.0190287 0 0.00597154 0.148512
0.0190287 2.71051e-20 0.00597155 -0.0137568
-0.0196872 -2.71051e-20 0.00343614 0.148341
0.0196872 0 0.00343614 -0.0137571
-0.02 0 4.58353e-09 0.148741
0.02 2.06795e-25 9.31731e-10 -0.0137569
-0.0193674 5.16988e-26 0.00500776 0.148236
0.0193674 5.16988e-26 0.00500776 -0.013757
0.02 2.58494e-26 0.000467287 -0.013757
-0.02 -2.93322e-20 0.000584718 0.148762
0.02 1.94111e-20 0.000584716 -0.013757
0.0197647 0 0.00312203 -0.013757
-0.02 1.65118e-20 0.00119965 0.148775
0.02 0 0.00119965 -0.013757
0.0193627 -2.58494e-26 0.0053074 -0.0137569
-0.02 -2.31078e-20 0.00184143 0.148704
0.02 2.54179e-20 0.00184143 -0.013757
-0.0193617 0 0.00537141 0.148232
-0.0196863 -2.71051e-20 0.00406358 0.148164
0.0196863 0 0.00406358 -0.013757
0.0186372 1.21629e-20 0.00760237 -0.0137566
-0.0186372 7.25272e-21 0.00760238 0.148741
-0.0190127 5.42101e-20 0.0066109 0.148566
0.0190127 0 0.00661089 -0.0137567
-0.02 -3.17406e-20 0.00248657 0.148531
0.02 -9.18417e-21 0.00248657 -0.013757
0.0193574 -3.55832e-21 0.00564266 -0.0137569
-0.0193574 0 0.00564266 0.148228
-0.0185451 -2.71051e-20 0.00797829 0.148597
0.0185451 0 0.00797829 -0.0137563
-0.0196838 0 0.00469127 0.148037
0.0196838 -2.71051e-20 0.00469127 -0.013757
-0.02 -8.44252e-21 0.00312197 0.148302
0.02 0 0.00312197 -0.013757
0.02 1.21169e-27 0.00325494 -0.013757
-0.0199999 0 0.00339841 0.148203
0.0185356 0 0.00831268 -0.0137564
-0.0185355 0 0.00831272 0.14859
-0.0203125 2.71051e-20 0.000292358 0.14872
0.0203125 -2.71051e-20 0.000292358 -0.0137569
-0.0189844 0 0.00725983 0.148524
0.0189845 -2.71051e-20 0.00725984 -0.0137566
0.0203125 2.71051e-20 0.000892183 -0.013757
-0.0203125 2.71051e-20 0.000892183 0.148765
0.0193417 2.21875e-20 0.00628271 -0.0137568
-0.0193417 -2.52017e-20 0.00628271 0.148256
0.0199998 1.61559e-27 0.00374985 -0.013757
-0.0199998 0 0.00374985 0.148078
-0.0203125 2.71051e-20 0.00152054 0.14873
0.0203125 2.71051e-20 0.00152054 -0.013757
0.0196781 -2.71051e-20 0.00532193 -0.0137569
-0.0196781 0 0.00532193 0.147969
-0.0203125 0 0.002164 0.148561
0.0203125 -2.71051e-20 0.002164 -0.0137569
0.0188063 2.14273e-20 0.00805025 -0.0137564
-0.0188063 3.69717e-20 0.00805025 0.148561
-0.0199992 1.29247e-26 0.00437577 0.147893
0.0199992 0 0.00437577 -0.0137569
-0.0196858 0 0.0056376 0.147955
0.0203125 0 0.00280427 -0.0137569
-0.0203125 -2.71051e-20 0.00280427 0.148299
0.0193191 -2.55268e-21 0.00692789 -0.0137566
-0.0193191 2.18326e-20 0.00692791 0.148282
0.0197507 -1.29247e-26 0.00563659 -0.0137568
0.0196677 0 0.00595699 -0.0137568
-0.0196677 -2.71051e-20 0.00595699 0.147959
-0.019019 0 0.00784353 0.148502
0.019019 2.71051e-20 0.00784353 -0.0137565
-0.0203124 -2.71051e-20 0.00343589 0.148026
0.0203124 2.71051e-20 0.00343589 -0.013757
-0.0199972 0 0.00500279 0.147764
0.0199972 0 0.00500279 -0.0137569
-0.018871 5.42101e-20 0.00831348 0.148583
0.018871 5.42101e-20 0.00831348 -0.0137565
-0.020625 0 5.04458e-09 0.148701
0.020625 0 1.50663e-09 -0.0137568
0.020625 0 0.000563462 -0.0137569
-0.020625 8.27387e-21 0.000584719 0.148718
0.020625 -1.14983e-20 0.000584717 -0.0137569
-0.020625 2.6667e-20 0.00119965 0.148704
0.020625 -3.00745e-20 0.00119965 -0.0137569
-0.020625 6.78748e-21 0.00184143 0.148565
0.020625 -2.04496e-20 0.00184143 -0.0137569
0.0203122 0 0.00406266 -0.0137569
-0.0203122 0 0.00406266 0.147782
0.0188392 0 0.00862624 -0.0137563
-0.0188392 0 0.00862624 0.148381
-0.0196513 -2.71051e-20 0.00659729 0.147989
0.0196513 0 0.00659729 -0.0137566
0.0193053 7.63322e-21 0.00756209 -0.0137565
-0.0193053 -1.72054e-22 0.00756209 0.148293
-0.0199921 0 0.00563287 0.1477
0.0199921 2.58494e-26 0.00563287 -0.0137568
-0.020625 -1.31711e-20 0.00248657 0.148312
0.020625 2.74913e-20 0.00248657 -0.0137569
0.0199893 5.16988e-26 0.00579857 -0.0137568
-0.0199888 -2.58494e-26 0.00582864 0.147699
0.0203112 0 0.00468874 -0.0137569
-0.0203112 2.71051e-20 0.00468874 0.14759
-0.020625 -3.85434e-20 0.00312195 0.148017
0.020625 -6.27827e-21 0.00312195 -0.0137569
-0.0196335 2.71051e-20 0.00723751 0.148048
0.0196335 -2.71051e-20 0.00723751 -0.0137565
0.0192515 -5.88291e-21 0.00823193 -0.0137564
-0.0192515 3.54364e-20 0.00823194 0.148292
-0.0209375 2.71051e-20 0.000292358 0.148682
0.0209375 2.71051e-20 0.000292358 -0.0137568
0.020625 0 0.00361681 -0.0137569
0.0199814 3.21292e-21 0.00626807 -0.0137567
-0.0199814 3.17633e-20 0.00626807 0.147698