# pMean  POINT_DATA 30764
# x  y  z  pMean
0.01 -1.57772e-30 8.31199e-08 -0.0160909
-0.01 -7.88861e-31 8.31199e-08 0.146567
-0.01 -4.1359e-25 0.000678316 0.14657
0.01 1.29247e-26 0.00067832 -0.0160883
0.0100335 -7.75482e-26 0.000675741 -0.0160891
-0.01 -1.65436e-24 0.00137373 0.146572
0.01 -2.06795e-25 0.00137372 -0.0160963
-0.01 3.30872e-24 0.00208696 0.146569
0.01 0 0.002087 -0.0161092
0.0101863 -2.06795e-25 0.00133474 -0.0161
-0.0102702 0 0.000327905 0.146567
0.0102702 -2.71051e-20 0.000327954 -0.0160909
-0.0102616 -2.71051e-20 0.000986823 0.146572
0.0102619 2.71051e-20 0.000986956 -0.0160856
-0.0102382 -5.42101e-20 0.00161862 0.146572
0.0102389 2.71051e-20 0.00161883 -0.0161072
-0.0105473 0 0.000241058 0.146563
-0.0105508 0 8.49672e-08 0.146563
0.0105508 -2.06795e-25 8.59948e-08 -0.0161043
-0.0105415 -1.37544e-20 0.00063654 0.146565
0.0105418 3.30411e-20 0.00063661 -0.0161021
-0.0105237 1.65436e-24 0.00126378 0.146567
0.0105246 -3.7066e-21 0.00126397 -0.0161067
-0.0105066 1.32217e-20 0.00172222 0.146567
0.0105082 1.07327e-20 0.00172263 -0.0161129
-0.0104981 0 0.00202328 0.146566
0.0105003 2.71051e-20 0.00202395 -0.016111
-0.0104973 -3.30872e-24 0.00235191 0.146566
0.0105018 -1.65436e-24 0.00235298 -0.0161125
-0.0108324 5.42101e-20 0.000312949 0.146558
0.0108326 0 0.000313002 -0.016118
-0.0108211 0 0.000935918 0.146561
0.0108219 0 0.000936095 -0.0161135
-0.0107987 2.71051e-20 0.00152672 0.146564
0.0108006 -2.71051e-20 0.00152718 -0.0161211
0.0111231 0 1.4102e-08 -0.0161122
-0.0111231 0 1.1833e-08 0.146552
-0.0111217 2.06795e-25 0.000543659 0.146552
-0.0109001 -2.71051e-20 0.00228558 0.146566
-0.0111215 0 0.000612314 0.146553
0.011122 2.32467e-20 0.00061238 -0.0161127
0.0109057 -5.42101e-20 0.00228695 -0.016114
-0.0109929 0 0.00190209 0.14656
0.0109964 -1.6355e-20 0.00190279 -0.0161174
-0.0111 0 0.00123237 0.146554
0.0111015 -6.97231e-21 0.00123258 -0.0161166
-0.0109856 8.27181e-25 0.00261204 0.146561
0.0109947 0 0.00261423 -0.0161133
-0.0114284 2.71051e-20 0.000305075 0.146547
0.0114286 0 0.000305108 -0.0161062
-0.0112129 2.93467e-20 0.00232217 0.146559
0.0112195 -3.7018e-20 0.00232367 -0.0161161
-0.0114246 0 0.00092111 0.146544
0.0114256 0 0.00092126 -0.016113
-0.0113817 2.71051e-20 0.0015635 0.146546
0.0113839 2.71051e-20 0.00156383 -0.0161188
-0.0111731 -8.27181e-25 0.0027119 0.146557
-0.0114068 0 0.00210155 0.146556
0.011411 2.71051e-20 0.00210244 -0.0161217
-0.0113382 2.71051e-20 0.00256301 0.146555
0.0113467 5.42101e-20 0.00256544 -0.0161126
0.0117295 8.27181e-25 6.31228e-09 -0.016104
-0.0117295 0 4.80147e-09 0.146545
-0.0117405 0 0.000519436 0.146545
-0.0117423 0 0.00060318 0.146544
0.0117428 -2.8802e-20 0.000603251 -0.0161071
-0.0115321 0 0.00238301 0.146555
-0.0117315 0 0.00123297 0.146544
0.0117329 -2.51446e-20 0.00123324 -0.0161125
-0.0114582 0 0.00286379 0.146552
0.011472 -6.61744e-24 0.00286721 -0.016111
-0.0117202 0 0.00185692 0.14655
0.0117223 -1.95545e-21 0.00185737 -0.0161153
-0.0116915 1.03398e-25 0.00211241 0.146551
-0.0116585 -1.22998e-20 0.00240709 0.146553
0.0116635 -1.73079e-20 0.00240865 -0.0161133
-0.0120571 -2.71051e-20 0.000300839 0.146544
0.0120573 0 0.000300897 -0.0161017
-0.0120651 -2.71051e-20 0.000916399 0.146542
0.0120657 0 0.000916727 -0.0161077
-0.012009 0 0.00187022 0.146548
-0.0120608 2.71051e-20 0.00155099 0.146543
0.0120609 -2.71051e-20 0.00155169 -0.0161106
-0.0118568 -2.71051e-20 0.00273895 0.146548
0.0118619 2.71051e-20 0.00274195 -0.0161094
0.012035 -2.71051e-20 0.00219403 -0.0161093
-0.0120372 0 0.00219395 0.146553
-0.0119121 0 0.00310559 0.146551
0.0119304 0 0.00311016 -0.016108
0.0123683 4.1359e-25 2.71643e-09 -0.0161012
-0.0123683 4.1359e-25 2.66988e-09 0.146544
-0.0123892 1.29247e-25 0.000564544 0.146543
-0.0123904 2.68541e-20 0.00059722 0.146543
0.0123907 -3.57756e-21 0.000597448 -0.0161039
-0.0123962 0 0.00122692 0.146542
0.0123962 -2.56881e-20 0.00122803 -0.0161077
-0.0123949 0 0.00129018 0.146543
0.0123792 -8.31151e-21 0.00188965 -0.016107
-0.0123827 -2.48876e-20 0.00188742 0.146545
-0.0125417 -5.16988e-26 0.00059593 0.146543
0.0123193 -2.34258e-20 0.00260601 -0.0161068
-0.0123305 3.27564e-22 0.00260668 0.14655
-0.012569 0 0.00122537 0.146542
0.0122774 0 0.00301148 -0.0161065
-0.0122788 2.71051e-20 0.00300901 0.146553
-0.0127075 2.71051e-20 0.00029719 0.146543
0.0127075 0 0.000297361 -0.0161006
0.0127224 0 0.000910669 -0.0161056
-0.0127228 0 0.000909514 0.146544
-0.0123477 0 0.00333768 0.146546
0.0123698 0 0.00334298 -0.0161044
0.0127185 2.71051e-20 0.0015595 -0.0161068
-0.0127224 -2.71051e-20 0.00155586 0.146541
0.0126865 0 0.00223766 -0.0161012
-0.0127017 0 0.00223253 0.146546
0.0125633 -1.3182e-20 0.00303647 -0.0161053
-0.0125873 3.51717e-21 0.00304271 0.146547
-0.0130258 4.1359e-25 2.56512e-09 0.146543
0.0130258 0 1.94236e-09 -0.0161025
0.0127297 2.71051e-20 0.00279908 -0.0161071
0.0130472 8.45006e-21 0.000592235 -0.016105
-0.0130474 -1.70556e-20 0.000591621 0.146543
-0.0127816 0 0.0028142 0.146549
0.0126842 0 0.00327272 -0.0161022
0.0130549 -6.2357e-21 0.00122427 -0.0161085
-0.0130573 -2.05999e-21 0.00122099 0.146541
-0.0127078 2.71051e-20 0.00328029 0.14654
0.0130409 -1.47246e-20 0.00189497 -0.0161069
-0.0130523 -2.09264e-20 0.00188526 0.146538
-0.0127679 -3.30872e-24 0.0035615 0.146538
0.0130294 1.08774e-20 0.00254415 -0.0161057
0.0127922 0 0.0035676 -0.0161019
-0.0130668 9.5895e-21 0.00252843 0.146539
0.0129755 2.4468e-20 0.00310441 -0.0161044
0.0133645 -2.71051e-20 0.000294678 -0.0161044
-0.0133647 0 0.0002943 0.146543
0.013377 2.71051e-20 0.000905403 -0.0161095
-0.0133788 -2.71051e-20 0.000902908 0.146543
-0.0130842 5.05407e-21 0.00316077 0.146535
0.0133744 -5.42101e-20 0.00155542 -0.0161122
-0.0133828 2.71051e-20 0.00154643 0.146537
-0.013073 5.42101e-20 0.00349728 0.146537
0.0133614 0 0.00222042 -0.0161073
-0.0133875 2.71051e-20 0.0021975 0.146529
0.0131593 0 0.00342851 -0.0161016
0.0133331 2.71051e-20 0.0028787 -0.0161069
-0.0136859 -4.1359e-25 1.99115e-09 0.146538
0.0136859 0 1.20838e-09 -0.0161067
-0.0133972 -2.71051e-20 0.00283002 0.146532
-0.0131766 3.30872e-24 0.00377904 0.146523
0.0137005 -5.48721e-21 0.000588479 -0.0161094
-0.0137012 1.14934e-20 0.000587422 0.146537
0.0132008 -6.61744e-24 0.00378645 -0.0161013
0.0137066 1.74041e-20 0.00121712 -0.0161142
-0.0137113 1.59916e-20 0.00121149 0.146529
-0.0133317 1.63285e-20 0.00353346 0.146522
0.0136964 -3.48053e-20 0.00188403 -0.0161145
-0.0137136 -3.89168e-21 0.00186546 0.146515
-0.0134741 -5.42101e-20 0.00333584 0.14652
0.0136686 1.01933e-20 0.00256373 -0.0161118
-0.0137152 1.19267e-20 0.00251516 0.146507
-0.0134565 -2.71051e-20 0.0037461 0.146509
0.0136041 1.29173e-20 0.00329192 -0.0161079
0.0140177 2.71051e-20 0.000293139 -0.0161089
-0.0140182 2.71051e-20 0.000292601 0.146534
0.0135422 -2.71051e-20 0.0036961 -0.016101
0.0140256 -5.42101e-20 0.000900278 -0.0161148
-0.0140284 -2.71051e-20 0.000896824 0.14653
-0.0137342 1.02215e-20 0.00311436 0.146502
0.014023 0 0.00154615 -0.0161202
-0.0140338 0 0.00153371 0.146507
-0.0135654 0 0.00401386 0.146495
0.0135836 0 0.00402855 -0.0161026
0.0140057 0 0.00221874 -0.0161181
-0.0137123 2.46334e-21 0.00361961 0.146498
-0.0140348 -5.42101e-20 0.00218502 0.146488
0.0139704 0 0.00290901 -0.0161151
-0.0140398 0 0.00281908 0.146478
0.0138292 3.21873e-20 0.00373726 -0.0161069
-0.0143389 0 2.44464e-09 0.146518
0.0143389 -2.06795e-25 1.44847e-09 -0.0161096
0.0143466 -2.56822e-20 0.000586141 -0.0161128
-0.0143476 -8.67712e-22 0.00058495 0.146514
0.0143501 2.12546e-20 0.00121019 -0.016119
-0.0143553 -8.05881e-22 0.00120417 0.146493
-0.0138945 2.71051e-20 0.00393317 0.146483
-0.0140375 -2.71051e-20 0.00343143 0.146478
0.0140303 0 0.00350658 -0.0161159
0.0143403 -5.89904e-21 0.00187312 -0.0161218
-0.0143565 0 0.00185406 0.146463
0.0139282 -2.71051e-20 0.00399009 -0.016104
0.0143175 -4.96474e-21 0.00255235 -0.0161212
-0.0139239 -6.61744e-24 0.00428422 0.146497
-0.0143528 9.42903e-21 0.00250721 0.146442
0.0139403 0 0.00429658 -0.0161066
0.0146631 -5.42101e-20 0.000292462 -0.0161103
-0.0146635 -2.71051e-20 0.000291927 0.146503
0.0143152 -4.84066e-21 0.00320649 -0.0161204
-0.0143427 1.98358e-20 0.00314905 0.146444
0.0146669 0 0.000896444 -0.0161173
-0.0146697 -2.71051e-20 0.00089329 0.146489
0.014725 -1.03398e-25 3.73197e-16 -0.0161101
0.0146638 -2.71051e-20 0.00153733 -0.0161236
-0.014673 0 0.00152674 0.146448
-0.0142998 -2.49858e-20 0.00383371 0.14647
0.0146505 2.71051e-20 0.00220325 -0.0161251
0.0143063 -8.42401e-21 0.0038743 -0.0161151
0.0148155 1.29247e-26 0.000585312 -0.0161136
-0.0146709 -5.42101e-20 0.00217815 0.146408
-0.0142437 2.71051e-20 0.00422231 0.146511
-0.0147463 0 0.00185052 0.146421
0.014255 2.71051e-20 0.00424396 -0.0161091
0.0148484 -1.29247e-26 0.00120616 -0.0161203
0.0146399 2.71051e-20 0.00286477 -0.0161263
-0.0147123 5.16988e-26 0.00250555 0.146399
-0.0146627 -5.42101e-20 0.00282903 0.146394
-0.0149819 0 3.19382e-09 0.146483
0.0149819 2.06795e-25 9.62822e-10 -0.0161104
-0.0142803 0 0.00455271 0.146487
0.0149853 -1.27435e-20 0.000585012 -0.0161139
-0.0149861 1.96592e-20 0.000584127 0.146474
0.0142938 0 0.00456274 -0.0161132
0.0149869 0 0.00120504 -0.0161207
-0.0149906 1.37441e-21 0.00120094 0.146442
0.014925 1.29247e-26 0.00186093 -0.016125
-0.0146412 -2.71051e-20 0.00348482 0.146424
0.0146341 2.71051e-20 0.00351739 -0.0161247
-0.0149904 2.58494e-26 0.00167368 0.146408
0.0149806 1.29247e-26 0.00185977 -0.0161253
0.0149792 3.87741e-26 0.00193517 -0.0161255
-0.0149903 -2.58494e-26 0.00184831 0.146396
-0.0145147 1.37312e-21 0.00427467 0.146473
0.0145233 -1.78406e-20 0.00429208 -0.0161167
0.0149685 1.03398e-25 0.00252404 -0.0161277
-0.0149829 0 0.0025043 0.146366
-0.0149776 0 0.00274965 0.146369
-0.0147025 -2.71051e-20 0.0040589 0.146446
0.0147084 0 0.00408023 -0.0161238
0.0149582 -7.37183e-21 0.00317892 -0.0161289
-0.0146099 2.71051e-20 0.0045237 0.146464
-0.0149688 -1.03398e-25 0.00315684 0.146373
0.0153005 0 0.000292235 -0.0161105
-0.0153009 2.71051e-20 0.000291878 0.146464
0.0146196 -2.71051e-20 0.00453529 -0.0161173
0.0153021 0 0.000894041 -0.0161178
-0.0153039 -2.71051e-20 0.000892113 0.146442
0.0153002 -2.71051e-20 0.00152928 -0.016124
-0.0153052 0 0.00152357 0.146388
-0.0146355 -6.61744e-24 0.0048202 0.146502
0.0146456 6.61744e-24 0.00482779 -0.0161212
-0.0149723 2.49378e-20 0.00378401 0.146414
0.0149713 -3.61147e-21 0.00380144 -0.016129
0.0152929 2.71051e-20 0.00218496 -0.0161283
-0.0153015 2.71051e-20 0.00217419 0.146338
0.0152835 0 0.00284024 -0.0161309
-0.0152919 -2.71051e-20 0.00282667 0.146323
-0.0149633 1.65767e-21 0.00442183 0.146478
0.014969 -2.689e-20 0.00443194 -0.0161266
-0.0156169 0 3.92127e-09 0.146448
0.0156169 -2.06795e-25 1.59541e-09 -0.01611
0.0156181 0 0.000584603 -0.0161136
-0.0156185 -2.68137e-20 0.000584185 0.146437
0.0156191 -2.58494e-26 0.0012017 -0.0161207
-0.0156207 -8.07576e-21 0.00119995 0.146399
0.0154665 0 0.00250914 -0.0161325
-0.0149261 2.71051e-20 0.00477675 0.14654
0.0152816 0 0.00347878 -0.0161336
-0.0152852 -2.71051e-20 0.00346631 0.146353
0.0149333 5.42101e-20 0.00478413 -0.016125
-0.0156201 0 0.00172314 0.146356
0.0156163 0 0.00184941 -0.0161279
-0.0156199 0 0.00184524 0.146346
-0.015472 0 0.00314795 0.14633
0.0156092 -2.58494e-26 0.00250487 -0.0161339
-0.0156138 0 0.00249847 0.146312
-0.0152764 2.71051e-20 0.00409542 0.146431
0.0152785 5.42101e-20 0.00410448 -0.0161343
0.015608 2.58494e-26 0.00259813 -0.0161346
-0.0149898 0 0.00508713 0.14656
0.0149968 0 0.00509235 -0.016126
0.0156006 -9.3368e-22 0.00315251 -0.0161388
-0.0151689 2.0931e-20 0.00482334 0.14654
-0.0156039 0 0.00314562 0.146318
0.0151743 3.30674e-20 0.00482866 -0.0161286
-0.0156032 2.58494e-26 0.00318287 0.146321
0.0159322 2.71051e-20 0.000292222 -0.0161096
-0.0159323 5.42101e-20 0.000292065 0.146434
0.0159282 1.29247e-26 0.000584568 -0.0161129
0.0159329 0 0.000892712 -0.0161166
-0.0159336 2.71051e-20 0.000891952 0.146409
0.0159836 -1.03398e-25 2.31451e-21 -0.0161094
-0.0153229 0 0.00461704 0.146502
0.0159322 5.42101e-20 0.00152399 -0.0161246
-0.015934 5.42101e-20 0.00152204 0.146355
0.0153273 2.71051e-20 0.00462278 -0.0161339
-0.015592 2.63953e-20 0.00378396 0.146374
0.0155918 -2.09955e-20 0.0037897 -0.0161416
0.0159284 -2.71051e-20 0.00217342 -0.0161347
-0.0159311 0 0.00217013 0.146303
-0.0152682 0 0.00505663 0.14658
0.0152733 -2.71051e-20 0.00506088 -0.016127
-0.0160396 0 0.00184385 0.146334
0.0159217 2.71051e-20 0.00282271 -0.0161414
-0.0159241 -2.71051e-20 0.00281877 0.146284
-0.0155885 -1.51771e-20 0.00438984 0.146469
0.0155908 1.1468e-20 0.00439405 -0.0161405
-0.0162467 0 4.50343e-09 0.146426
0.0162467 0 1.14466e-09 -0.016109
0.0162034 -4.84676e-27 0.00120022 -0.0161202
-0.0153431 6.61744e-24 0.00535315 0.146612
0.0153477 6.61744e-24 0.00535654 -0.0161375
0.0162471 -2.58494e-26 0.000584533 -0.0161121
-0.0162472 -1.19921e-20 0.00058442 0.146415
0.0159122 0 0.00346529 -0.0161493
-0.0159131 0 0.00346161 0.146312
0.0162478 -7.61631e-21 0.00120011 -0.0161201
-0.0162481 2.60955e-21 0.00119968 0.146378
-0.0155338 -1.73873e-20 0.00491869 0.146566
0.0162477 -6.46235e-27 0.00123764 -0.0161209
0.0155374 -1.64179e-20 0.00492201 -0.0161383
0.0162469 0 0.00184409 -0.0161327
-0.0162477 -2.70651e-20 0.00184316 0.146328
-0.0162472 6.46235e-27 0.00193862 0.146323
-0.015901 0 0.00409355 0.146401
0.0159019 -2.71051e-20 0.00409655 -0.0161493
0.0162431 0 0.00249417 -0.0161464
-0.016244 -5.16988e-26 0.00249283 0.146294
0.0162387 0 0.00283727 -0.0161527
0.0162348 -2.01597e-21 0.0031392 -0.0161583
-0.0162354 0 0.00313774 0.146297
-0.0156894 5.42101e-20 0.00525034 0.146644
0.0156925 0 0.00525277 -0.0161481
-0.0162334 0 0.00321894 0.146305
-0.0158705 2.71051e-20 0.0047214 0.146538
0.0158727 -2.71051e-20 0.00472386 -0.0161457
0.0165604 -2.71051e-20 0.000292258 -0.0161084
-0.0165604 -2.71051e-20 0.000292218 0.146419
0.0165607 0 0.000892189 -0.016114
-0.0165609 -2.71051e-20 0.000892028 0.146397
0.0165606 2.71051e-20 0.00152156 -0.0161255
-0.016561 2.71051e-20 0.00152113 0.146352
-0.0162196 3.04857e-21 0.00378044 0.146359
0.0162198 2.77449e-20 0.00378182 -0.0161655
-0.0156952 -1.32349e-23 0.00561829 0.14669
0.0156978 0 0.00562028 -0.0161583
0.0165588 2.71051e-20 0.00216766 -0.016146
-0.0165593 0 0.00216703 0.146304
-0.0161896 -2.80348e-20 0.00442818 0.146476
0.0161906 -4.58093e-21 0.00442953 -0.0161651
0.0165536 2.71051e-20 0.00281397 -0.0161631
-0.016554 -2.71051e-20 0.00281321 0.146284
-0.0168738 -8.27181e-25 4.79187e-09 0.146416
0.0168738 0 1.76193e-09 -0.0161083
-0.0168739 -2.6385e-20 0.00058458 0.146406
0.0168739 -3.30665e-21 0.000584593 -0.016111
-0.0165426 -2.71051e-20 0.00345663 0.146307
0.0165425 -5.42101e-20 0.00345738 -0.0161791
-0.0161125 -3.23891e-20 0.00513741 0.146656
0.0161142 -1.91343e-20 0.00513878 -0.0161669
0.0168742 2.32584e-20 0.00119965 -0.0161207
-0.0168743 -1.13973e-20 0.0011996 0.146378
-0.0160304 0 0.00554246 0.146736
0.0168741 -3.23117e-27 0.00173829 -0.0161382
0.0160322 2.71051e-20 0.00554379 -0.0161685
-0.0168741 2.59606e-20 0.00184202 0.146337
0.0168741 -3.23117e-27 0.00184212 -0.0161416
-0.0165205 0 0.00410417 0.146417
0.0165209 2.71051e-20 0.00410496 -0.0161845
-0.0168728 0 0.00226207 0.146314
0.016872 0 0.00248968 -0.0161671
-0.0168721 0 0.00248953 0.146302
-0.0160456 0 0.00588237 0.146784
0.0160471 1.32349e-23 0.0058834 -0.0161767
0.0168085 3.23117e-27 0.00313289 -0.0161865
-0.0168654 0 0.00313207 0.1463
0.0168654 0 0.00313226 -0.0161893
-0.0164772 0 0.00477307 0.146547
0.0168651 0 0.00314347 -0.0161895
0.0164781 -2.71051e-20 0.00477392 -0.0161821
-0.0168631 0 0.003224 0.146308
0.0171867 0 0.000292305 -0.0161083
-0.0171867 -2.71051e-20 0.000292302 0.146413
0.0171869 -5.42101e-20 0.000892117 -0.0161132
-0.0171869 5.42101e-20 0.000892093 0.146396
0.0171304 -3.23117e-27 0.0018419 -0.0161483
-0.0163088 3.81827e-21 0.00559077 0.14679
0.01631 -2.74889e-20 0.00559165 -0.0161815
0.0171869 0 0.00152074 -0.0161304
-0.0171869 0 0.00152071 0.146368
-0.0168494 1.65635e-20 0.00377631 0.146359
0.0168495 2.06795e-25 0.00377656 -0.0162046
0.017186 0 0.00216542 -0.0161644
-0.0171861 0 0.00216535 0.146323
-0.016518 0 0.00536714 0.146802
0.016519 0 0.00536792 -0.0161914
-0.0168212 -2.7426e-20 0.00443102 0.146481
0.0168216 -7.55629e-21 0.00443137 -0.0162096
-0.0163928 0 0.00584542 0.146832
0.0163937 -2.71051e-20 0.00584612 -0.0161848
0.0171824 -5.42101e-20 0.0028096 -0.0161947
-0.0171824 2.71051e-20 0.00280953 0.146296
-0.0174996 8.27181e-25 4.65707e-09 0.146411
0.0174996 0 2.44541e-09 -0.0161077
-0.0163956 1.32349e-23 0.00614428 0.146865
-0.0174996 -2.87625e-20 0.000584661 0.146404
0.0174996 1.82335e-20 0.00058466 -0.016111
0.0163962 0 0.00614484 -0.0162084
-0.0171728 2.71051e-20 0.00345119 0.146313
0.0171728 2.71051e-20 0.00345131 -0.0162199
-0.0174998 8.83636e-22 0.0011996 0.146388
0.0174998 -3.5115e-20 0.0011996 -0.0161257
-0.0168072 5.71251e-21 0.00507468 0.146664
0.0168078 6.49833e-21 0.00507511 -0.0162113
-0.0174997 1.28346e-20 0.00184159 0.146358
0.0174997 0 0.00184159 -0.016158
-0.0174392 -1.29247e-26 0.00248806 0.14632
0.0174993 0 0.00212676 -0.0161754
-0.0171543 -2.71051e-20 0.00409713 0.146401
0.0171545 2.71051e-20 0.00409729 -0.0162344
0.0174987 0 0.00248791 -0.0161974
-0.0174987 3.00084e-20 0.00248791 0.146322
-0.0174983 -8.07794e-27 0.0025547 0.146321
-0.0167741 -1.40819e-20 0.00574438 0.146846
0.0167746 -2.89381e-20 0.00574481 -0.0162192
-0.0174944 0 0.00312778 0.146309
0.0174944 0 0.00312779 -0.0162302
-0.0171359 0 0.00474309 0.14656
0.0171362 2.71051e-20 0.00474333 -0.0162366
-0.0167048 2.71051e-20 0.00611288 0.146899
0.0167053 0 0.00611327 -0.0162319
0.0174921 0 0.00326562 -0.0162353
-0.017491 0 0.00332932 0.146322
0.0178123 0 0.000292339 -0.0161071
-0.0178123 2.71051e-20 0.000292339 0.146409
-0.0178123 2.71051e-20 0.000892127 0.1464
0.0178123 0 0.000892128 -0.0161156
-0.0178123 2.71051e-20 0.00152058 0.146388
0.0178123 2.71051e-20 0.00152058 -0.016144
-0.0174836 0 0.00376687 0.14635
0.0174836 -2.85326e-20 0.00376691 -0.0162536
-0.0167191 0 0.00643605 0.146919
0.0167195 -1.32349e-23 0.0064363 -0.0162375
-0.0178119 -2.71051e-20 0.00216457 0.146354
0.0178119 0 0.00216457 -0.0161932
-0.017115 2.71051e-20 0.00539431 0.146738
0.0171154 -2.71051e-20 0.0053946 -0.0162369
-0.0174667 2.24863e-20 0.00441055 0.146454
0.0174668 -1.13948e-20 0.00441062 -0.0162645
-0.0178098 0 0.00280703 0.146316
0.0178098 2.71051e-20 0.00280703 -0.0162369
-0.0169664 -1.63517e-20 0.00617963 0.146928
0.0169667 -3.2174e-20 0.00617988 -0.0162428
-0.0181249 0 4.21997e-09 0.146408
0.0181249 4.1359e-25 2.86614e-09 -0.0161047
-0.0178039 0 0.00344471 0.146313
0.0178039 0 0.00344474 -0.0162692
-0.0181249 -3.85977e-20 0.000584697 0.146405
0.0181249 -1.09298e-20 0.000584697 -0.016111
-0.0181249 2.39707e-21 0.00119962 0.146399
0.0181249 8.70282e-21 0.00119962 -0.0161356
-0.0174472 6.40238e-22 0.00505795 0.146606
0.0174474 -2.01088e-21 0.00505807 -0.0162653
-0.017167 2.71051e-20 0.00597246 0.146949
0.0171673 2.71051e-20 0.0059727 -0.0162536
-0.0170427 2.71051e-20 0.00643802 0.146939
-0.0181249 1.05281e-20 0.00184147 0.146378
0.0181249 -8.46848e-21 0.00184147 -0.0161823
0.0170429 2.71051e-20 0.0064382 -0.016243
-0.017793 0 0.00408287 0.146375
0.017793 -2.71051e-20 0.00408289 -0.0162905
0.0181245 0 0.00242071 -0.0162298
-0.0181245 -8.62362e-22 0.0024871 0.146337
0.0181245 0 0.0024871 -0.0162353
-0.0179092 -1.29247e-26 0.00376081 0.146319
-0.0170214 0 0.00674877 0.146891
0.0170216 0 0.00674896 -0.016253
-0.0181236 0 0.00276481 0.146322
-0.017444 1.04175e-20 0.00568992 0.146773
0.0174442 1.67554e-20 0.00569009 -0.0162646
0.0179748 1.29247e-26 0.00375989 -0.0162939
-0.0181225 0 0.00312454 0.146302
0.0181225 0 0.00312455 -0.0162769
-0.0177779 0 0.00472459 0.146483
0.017778 5.42101e-20 0.00472464 -0.0162961
-0.0184375 5.42101e-20 0.000292351 0.146407
0.0184375 0 0.000292351 -0.0161024
-0.0184375 0 0.000892166 0.146405
0.0184375 0 0.000892167 -0.016119
-0.0184374 -2.71051e-20 0.00152054 0.146404
0.0184374 5.42101e-20 0.00152054 -0.0161642
-0.0181171 0 0.00375785 0.146304
0.0181172 -1.29247e-26 0.00375786 -0.0163056
0.0183571 8.07794e-28 0.00248696 -0.016249
0.0181149 -1.29247e-26 0.00390339 -0.0163089
-0.0174092 1.64907e-20 0.00635339 0.146867
0.0174094 -1.62855e-20 0.0063535 -0.0162627
-0.0181139 -1.29247e-26 0.00395904 0.14632
-0.017766 0 0.0053638 0.146646
0.0177661 0 0.00536388 -0.0162914
-0.0184373 -2.71051e-20 0.0021642 0.146366
0.0184373 0 0.0021642 -0.0162279
-0.0173271 -5.42101e-20 0.00672776 0.146843
0.0173272 -5.42101e-20 0.00672785 -0.0162629
-0.0181071 -2.58494e-26 0.00439391 0.146356
0.0181071 0 0.00439392 -0.0163202
0.0184364 -2.71051e-20 0.0028054 -0.0162828
-0.0184364 0 0.0028054 0.146312
-0.0173238 0 0.00706122 0.146813
0.0173239 1.32349e-23 0.00706123 -0.0162577
-0.0177469 0 0.00601017 0.146744
0.017747 -2.71051e-20 0.00601025 -0.0162776
-0.01875 0 3.911e-09 0.146401
0.01875 0 3.03741e-09 -0.016099
-0.0184337 -5.42101e-20 0.00343972 0.146267
0.0184337 -2.71051e-20 0.00343972 -0.0163184
-0.01875 -1.26451e-20 0.000584711 0.146402
0.01875 2.2678e-20 0.000584711 -0.0161101
-0.0180931 -5.0243e-21 0.00503408 0.146454
0.0180932 -2.72424e-20 0.00503411 -0.0163201
-0.01875 2.04613e-21 0.00119964 0.146401
0.01875 2.40119e-20 0.00119964 -0.0161476
-0.01875 2.73405e-20 0.00184144 0.146377
0.01875 -7.18265e-21 0.00184144 -0.0162086
-0.0175849 -3.02814e-20 0.0067982 0.146826
0.017585 1.41746e-20 0.00679825 -0.0162648
-0.0184279 0 0.00407228 0.146263
0.0184279 0 0.0040723 -0.0163438
-0.0187498 -1.29247e-26 0.00248672 0.146317
0.0187498 1.90868e-20 0.00248672 -0.0162723
0.0187496 -3.23117e-27 0.00268031 -0.0162869
-0.0180758 3.02004e-20 0.00567801 0.146562
0.0180758 -1.76893e-20 0.00567802 -0.0163078
-0.0184331 0 0.00438832 0.146254
-0.0177903 0 0.00659091 0.146852
0.0177904 2.71051e-20 0.00659097 -0.0162794
-0.0187494 0 0.00293789 0.146262
0.0184871 2.58494e-26 0.00438741 -0.0163483
0.0187492 6.46235e-27 0.00312276 -0.0163202
-0.0187492 0 0.00312276 0.146239
-0.0184184 8.13152e-20 0.0047076 0.146306
0.0184184 5.42101e-20 0.0047076 -0.0163498
-0.0176528 5.42101e-20 0.00706059 0.146783
0.0176528 2.71051e-20 0.00706062 -0.0162524
-0.0190625 -5.42101e-20 0.000292356 0.146396
0.0190625 -2.71051e-20 0.000292356 -0.0160957
-0.0190625 -5.42101e-20 0.000892176 0.146401
0.0190625 -2.71051e-20 0.000892176 -0.0161235
-0.0176265 0 0.00737367 0.146661
0.0176265 0 0.00737369 -0.0162615
-0.0187471 0 0.00375263 0.146178
0.0187471 0 0.00375264 -0.0163516
0.0190625 2.71051e-20 0.00152054 -0.0161842
-0.0190625 0 0.00152054 0.146395
-0.0180691 -7.0939e-21 0.00630978 0.146639
0.0180692 1.15441e-20 0.00630982 -0.0162899
-0.0184047 0 0.0053471 0.146385
0.0184047 5.42101e-20 0.00534713 -0.016343
0.0190624 2.71051e-20 0.00216406 -0.016258
-0.0190624 2.71051e-20 0.00216406 0.146343
-0.0187422 2.58494e-26 0.00438303 0.146157
0.0187422 0 0.00438304 -0.0163672
0.0190622 2.71051e-20 0.00280458 -0.0163202
-0.0190622 0 0.00280458 0.146246
0.019294 -5.16988e-26 6.84918e-45 -0.0160956
-0.0180246 8.41077e-21 0.00697622 0.146627
0.0180246 1.06806e-20 0.00697632 -0.016274
0.0187368 -1.29247e-26 0.00474645 -0.0163665
-0.0183915 2.71051e-20 0.00598567 0.146474
0.0183916 -2.71051e-20 0.00598568 -0.0163193
-0.0187352 1.29247e-26 0.00485588 0.146173
0.0190612 -2.71051e-20 0.00343712 -0.0163591
-0.0190612 -2.71051e-20 0.00343712 0.146132
-0.019375 0 4.06668e-09 0.146378
0.019375 -1.03398e-25 4.52376e-10 -0.0160951
0.019375 -5.16988e-26 0.000278199 -0.0161025
-0.019375 -1.08671e-20 0.000584717 0.146384
0.019375 1.76076e-21 0.000584716 -0.0161107
-0.0179362 0 0.00735206 0.14654
0.0179362 -2.71051e-20 0.00735208 -0.0162706
0.0187328 0 0.00501785 -0.016366
-0.0187328 0 0.00501785 0.146178
-0.019375 4.87716e-21 0.00119964 0.146383
0.019375 -2.11879e-20 0.00119964 -0.0161581
-0.019375 3.2838e-21 0.00184143 0.146339
0.019375 7.59467e-21 0.00184143 -0.0162282
-0.0190587 2.71051e-20 0.00406623 0.146051
0.0190587 -2.71051e-20 0.00406624 -0.0163851
0.0179293 -1.32349e-23 0.00768642 -0.0162696
-0.0179292 0 0.00768646 0.146496
-0.0188727 1.9387e-26 0.00501563 0.146097
-0.0183671 -2.71051e-20 0.00663351 0.146467
0.0183672 2.71051e-20 0.00663353 -0.0162846
-0.019375 2.75561e-21 0.0024866 0.146236
0.019375 -2.49041e-20 0.0024866 -0.0162979
-0.0187185 -1.85681e-20 0.00565746 0.146228
0.0187186 8.00339e-21 0.00565747 -0.01635
-0.0193457 -2.01948e-27 0.00312215 0.146103
0.0193748 0 0.00300214 -0.0163403
-0.0190533 -5.42101e-20 0.00469698 0.14601
0.0190533 5.42101e-20 0.00469699 -0.0163898
0.0193748 0 0.00312212 -0.0163502
-0.0193748 1.79074e-21 0.00312212 0.146097
0.018974 2.58494e-26 0.00501401 -0.0163774
-0.0193748 -2.62533e-27 0.00313579 0.146094
0.0181955 1.40488e-20 0.00742325 -0.016275
-0.0181955 -1.78142e-20 0.00742325 0.14649
-0.0196875 0 0.000292358 0.146361
0.0196875 -2.71051e-20 0.000292358 -0.0160945
-0.0196875 2.71051e-20 0.00089218 0.14638
0.0196875 0 0.00089218 -0.0161294
0.0186985 2.20626e-20 0.0063019 -0.0163175
-0.0186985 -4.33112e-21 0.0063019 0.146263
-0.0193742 0 0.00375048 0.145963
0.0193742 -6.46235e-27 0.00375048 -0.0163836
0.0196875 -2.71051e-20 0.00152054 -0.0161963
-0.0196875 -2.71051e-20 0.00152054 0.146356
-0.0184047 0 0.00721591 0.14648
0.0184047 -2.71051e-20 0.00721592 -0.0162862
-0.0190436 -2.71051e-20 0.00533179 0.146016
0.0190437 -2.71051e-20 0.00533179 -0.0163811
0.0196875 0 0.00216401 -0.0162742
-0.0196875 0 0.00216401 0.146261
-0.0182613 -2.71051e-20 0.00768613 0.146452
0.0182613 -2.71051e-20 0.00768613 -0.0162685
-0.0193723 2.58494e-26 0.00437779 0.145864
0.0193723 2.58494e-26 0.00437779 -0.0163986
-0.0196874 -5.42101e-20 0.00280433 0.146096
0.0196874 0 0.00280433 -0.0163388
-0.0182323 1.32349e-23 0.00799942 0.146284
0.0182323 0 0.00799942 -0.0162739
-0.0186874 -1.56635e-20 0.00693493 0.14627
0.0186875 -8.69863e-21 0.00693493 -0.0162892
-0.0190287 0 0.00597154 0.146039
0.0190287 2.71051e-20 0.00597155 -0.0163564
-0.0196872 -2.71051e-20 0.00343614 0.145913
0.0196872 0 0.00343614 -0.0163826
-0.02 0 4.58353e-09 0.146338
0.02 2.06795e-25 9.31731e-10 -0.0160944
-0.0193674 5.16988e-26 0.00500776 0.14581
0.0193674 5.16988e-26 0.00500776 -0.0163959
0.02 2.58494e-26 0.000467287 -0.0161077
-0.02 -2.93322e-20 0.000584718 0.146348
0.02 1.94111e-20 0.000584716 -0.016111
0.0197647 0 0.00312203 -0.0163574
-0.02 1.65118e-20 0.00119965 0.14634
0.02 0 0.00119965 -0.0161612
0.0193627 -2.58494e-26 0.0053074 -0.0163881
-0.02 -2.31078e-20 0.00184143 0.146256
0.02 2.54179e-20 0.00184143 -0.0162335
-0.0193617 0 0.00537141 0.145802
-0.0196863 -2.71051e-20 0.00406358 0.145755
0.0196863 0 0.00406358 -0.0164079
0.0186372 1.21629e-20 0.00760237 -0.0162802
-0.0186372 7.25272e-21 0.00760238 0.146224
-0.0190127 5.42101e-20 0.0066109 0.146075
0.0190127 0 0.00661089 -0.0163098
-0.02 -3.17406e-20 0.00248657 0.146092
0.02 -9.18417e-21 0.00248657 -0.0163051
0.0193574 -3.55832e-21 0.00564266 -0.0163793
-0.0193574 0 0.00564266 0.145795
-0.0185451 -2.71051e-20 0.00797829 0.146116
0.0185451 0 0.00797829 -0.0162793
-0.0196838 0 0.00469127 0.145642
0.0196838 -2.71051e-20 0.00469127 -0.0164115
-0.02 -8.44252e-21 0.00312197 0.145887
0.02 0 0.00312197 -0.0163617
0.02 1.21169e-27 0.00325494 -0.0163694
-0.0199999 0 0.00339841 0.145799
0.0185356 0 0.00831268 -0.0162734
-0.0185355 0 0.00831272 0.146092
-0.0203125 2.71051e-20 0.000292358 0.146315
0.0203125 -2.71051e-20 0.000292358 -0.0160942
-0.0189844 0 0.00725983 0.146039
0.0189845 -2.71051e-20 0.00725984 -0.016277
0.0203125 2.71051e-20 0.000892183 -0.0161264
-0.0203125 2.71051e-20 0.000892183 0.146338
0.0193417 2.21875e-20 0.00628271 -0.0163436
-0.0193417 -2.52017e-20 0.00628271 0.14581
0.0199998 1.61559e-27 0.00374985 -0.0163982
-0.0199998 0 0.00374985 0.145687
-0.0203125 2.71051e-20 0.00152054 0.146285
0.0203125 2.71051e-20 0.00152054 -0.0161936
0.0196781 -2.71051e-20 0.00532193 -0.0164011
-0.0196781 0 0.00532193 0.145575
-0.0203125 0 0.002164 0.146123
0.0203125 -2.71051e-20 0.002164 -0.0162699
0.0188063 2.14273e-20 0.00805025 -0.0162791
-0.0188063 3.69717e-20 0.00805025 0.146066
-0.0199992 1.29247e-26 0.00437577 0.145523
0.0199992 0 0.00437577 -0.016413
-0.0196858 0 0.0056376 0.145559
0.0203125 0 0.00280427 -0.0163371
-0.0203125 -2.71051e-20 0.00280427 0.145889
0.0193191 -2.55268e-21 0.00692789 -0.0162997
-0.0193191 2.18326e-20 0.00692791 0.145824
0.0197507 -1.29247e-26 0.00563659 -0.0163865
0.0196677 0 0.00595699 -0.0163781
-0.0196677 -2.71051e-20 0.00595699 0.145556
-0.019019 0 0.00784353 0.146011
0.019019 2.71051e-20 0.00784353 -0.0162912
-0.0203124 -2.71051e-20 0.00343589 0.145649
0.0203124 2.71051e-20 0.00343589 -0.016388
-0.0199972 0 0.00500279 0.145405
0.0199972 0 0.00500279 -0.016409
-0.018871 5.42101e-20 0.00831348 0.146069
0.018871 5.42101e-20 0.00831348 -0.0162674
-0.020625 0 5.04458e-09 0.14629
0.020625 0 1.50663e-09 -0.0160888
0.020625 0 0.000563462 -0.0161028
-0.020625 8.27387e-21 0.000584719 0.146298
0.020625 -1.14983e-20 0.000584717 -0.0161033
-0.020625 2.6667e-20 0.00119965 0.146269
0.020625 -3.00745e-20 0.00119965 -0.0161511
-0.020625 6.78748e-21 0.00184143 0.146134
0.020625 -2.04496e-20 0.00184143 -0.0162221
0.0203122 0 0.00406266 -0.0164143
-0.0203122 0 0.00406266 0.145432
0.0188392 0 0.00862624 -0.0162685
-0.0188392 0 0.00862624 0.145908
-0.0196513 -2.71051e-20 0.00659729 0.145571
0.0196513 0 0.00659729 -0.0163297
0.0193053 7.63322e-21 0.00756209 -0.0162802
-0.0193053 -1.72054e-22 0.00756209 0.145831
-0.0199921 0 0.00563287 0.145339
0.0199921 2.58494e-26 0.00563287 -0.0163909
-0.020625 -1.31711e-20 0.00248657 0.145906
0.020625 2.74913e-20 0.00248657 -0.0162937
0.0199893 5.16988e-26 0.00579857 -0.0163815
-0.0199888 -2.58494e-26 0.00582864 0.145334
0.0203112 0 0.00468874 -0.0164184
-0.0203112 2.71051e-20 0.00468874 0.145262
-0.020625 -3.85434e-20 0.00312195 0.145647
0.020625 -6.27827e-21 0.00312195 -0.0163543
-0.0196335 2.71051e-20 0.00723751 0.145612
0.0196335 -2.71051e-20 0.00723751 -0.0162822
0.0192515 -5.88291e-21 0.00823193 -0.0162775
-0.0192515 3.54364e-20 0.00823194 0.145827
-0.0209375 2.71051e-20 0.000292358 0.146266
0.0209375 2.71051e-20 0.000292358 -0.0160834
0.020625 0 0.00361681 -0.0163865
0.0199814 3.21292e-21 0.00626807 -0.0163551