# U  POINT_DATA 30764
# x  y  z  U_x  U_y  U_z
0.01 -1.57772e-30 8.31199e-08 -1.77629e-20 -1.68912e-16 -5.59847e-20
-0.01 -7.88861e-31 8.31199e-08 7.0315e-16 -2.70489e-13 -2.34147e-16
-0.01 -4.1359e-25 0.000678316 6.92616e-10 -2.37006e-07 -2.13482e-10
0.01 1.29247e-26 0.00067832 -1.70559e-13 -4.44693e-11 -9.28668e-14
0.0100335 -7.75482e-26 0.000675741 -1.96828e-07 -2.14673e-05 -1.97495e-08
-0.01 -1.65436e-24 0.00137373 2.91021e-09 -1.17041e-06 4.58639e-10
0.01 -2.06795e-25 0.00137372 -3.96753e-12 -1.10028e-09 -1.76184e-12
-0.01 3.30872e-24 0.00208696 8.58485e-09 -2.64076e-06 2.32972e-09
0.01 0 0.002087 -5.42911e-17 -8.2391e-15 -1.69193e-17
0.0101863 -2.06795e-25 0.00133474 -2.46733e-06 -0.000257534 -5.21499e-07
-0.0102702 0 0.000327905 8.73202e-05 -0.0331157 -3.109e-05
0.0102702 -2.71051e-20 0.000327954 -2.16312e-08 -1.52902e-05 -1.27381e-08
-0.0102616 -2.71051e-20 0.000986823 0.000174555 -0.0570968 -4.73075e-05
0.0102619 2.71051e-20 0.000986956 -1.70327e-06 -0.000441202 -6.21108e-07
-0.0102382 -5.42101e-20 0.00161862 8.43127e-05 -0.0480647 8.86984e-05
0.0102389 2.71051e-20 0.00161883 -1.41275e-06 -0.000415518 -3.2663e-07
-0.0105473 0 0.000241058 0.000157959 -0.0233707 -1.85682e-05
-0.0105508 0 8.49672e-08 1.09404e-09 -1.66096e-07 -1.22417e-10
0.0105508 -2.06795e-25 8.59948e-08 -7.39804e-14 -2.38659e-11 -7.27164e-14
-0.0105415 -1.37544e-20 0.00063654 0.000417198 -0.0617261 -4.90418e-05
0.0105418 3.30411e-20 0.00063661 -3.18322e-06 -0.00034718 -3.194e-07
-0.0105237 1.65436e-24 0.00126378 0.00049601 -0.079166 -3.54341e-06
0.0105246 -3.7066e-21 0.00126397 -6.94622e-06 -0.000725033 -1.46817e-06
-0.0105066 1.32217e-20 0.00172222 0.00036029 -0.0688507 3.99475e-05
0.0105082 1.07327e-20 0.00172263 -6.32442e-06 -0.000659855 -1.96979e-06
-0.0104981 0 0.00202328 0.000247495 -0.0548227 1.17078e-06
0.0105003 2.71051e-20 0.00202395 -4.54276e-06 -0.000492523 -1.65064e-06
-0.0104973 -3.30872e-24 0.00235191 1.00555e-08 -1.78712e-06 -1.60452e-09
0.0105018 -1.65436e-24 0.00235298 -1.83648e-10 -1.44711e-08 -7.47292e-11
-0.0108324 5.42101e-20 0.000312949 0.000462366 -0.0528047 -3.65228e-05
0.0108326 0 0.000313002 -7.92992e-08 -8.63868e-06 -6.08881e-08
-0.0108211 0 0.000935918 0.000931717 -0.103224 -8.06337e-05
0.0108219 0 0.000936095 -1.07232e-05 -0.000915699 -5.898e-07
-0.0107987 2.71051e-20 0.00152672 0.000788135 -0.107071 2.7987e-05
0.0108006 -2.71051e-20 0.00152718 -1.36874e-05 -0.00111142 -4.13294e-06
0.0111231 0 1.4102e-08 -3.2187e-12 -2.30518e-10 -1.46453e-12
-0.0111231 0 1.1833e-08 1.47472e-08 -1.17529e-06 -6.98427e-10
-0.0111217 2.06795e-25 0.000543659 0.000903662 -0.0749395 -6.54577e-05
-0.0109001 -2.71051e-20 0.00228558 0.000404077 -0.0610726 -0.000106361
-0.0111215 0 0.000612314 0.00101778 -0.0844029 -7.37237e-05
0.011122 2.32467e-20 0.00061238 -8.68627e-06 -0.000536337 -3.05631e-07
0.0109057 -5.42101e-20 0.00228695 -9.52947e-06 -0.000602523 -4.2473e-06
-0.0109929 0 0.00190209 0.00082882 -0.0933964 -0.000109974
0.0109964 -1.6355e-20 0.00190279 -1.78903e-05 -0.00103836 -5.8819e-06
-0.0111 0 0.00123237 0.00124985 -0.116767 -0.000107571
0.0111015 -6.97231e-21 0.00123258 -2.03021e-05 -0.00122338 -3.41372e-06
-0.0109856 8.27181e-25 0.00261204 2.94138e-09 -4.65921e-07 -4.82429e-10
0.0109947 0 0.00261423 -4.9622e-10 -2.77555e-08 -2.16342e-10
-0.0114284 2.71051e-20 0.000305075 0.000927193 -0.0600907 -3.2856e-05
0.0114286 0 0.000305108 -1.70862e-07 -8.63421e-06 -3.63306e-08
-0.0112129 2.93467e-20 0.00232217 0.00064831 -0.0760849 -0.000119045
0.0112195 -3.7018e-20 0.00232367 -1.70994e-05 -0.00086041 -6.9663e-06
-0.0114246 0 0.00092111 0.00176268 -0.122494 -0.000145831
0.0114256 0 0.00092126 -2.4007e-05 -0.00122997 -5.44985e-07
-0.0113817 2.71051e-20 0.0015635 0.0015518 -0.135197 -0.000236666
0.0113839 2.71051e-20 0.00156383 -3.34291e-05 -0.00165237 -8.43347e-06
-0.0111731 -8.27181e-25 0.0027119 0 0 0
-0.0114068 0 0.00210155 0.00121492 -0.111965 -0.00024639
0.011411 2.71051e-20 0.00210244 -2.96178e-05 -0.00138268 -1.11104e-05
-0.0113382 2.71051e-20 0.00256301 0.000329304 -0.0554614 -7.96955e-06
0.0113467 5.42101e-20 0.00256544 -1.20318e-05 -0.000594883 -5.48777e-06
0.0117295 8.27181e-25 6.31228e-09 -2.06594e-12 -9.04406e-11 -3.94031e-13
-0.0117295 0 4.80147e-09 8.10133e-09 -4.34461e-07 -3.44057e-10
-0.0117405 0 0.000519436 0.00140973 -0.0817694 -0.00018219
-0.0117423 0 0.00060318 0.00163701 -0.0949522 -0.000211562
0.0117428 -2.8802e-20 0.000603251 -1.60545e-05 -0.000676048 -4.30992e-07
-0.0115321 0 0.00238301 0.000962699 -0.0867208 -0.000282757
-0.0117315 0 0.00123297 0.00206942 -0.134968 -0.000517684
0.0117329 -2.51446e-20 0.00123324 -3.97405e-05 -0.00162761 -5.70964e-06
-0.0114582 0 0.00286379 7.19254e-09 -7.77629e-07 -1.21084e-09
0.011472 -6.61744e-24 0.00286721 -1.2009e-09 -4.59949e-08 -5.03004e-10
-0.0117202 0 0.00185692 0.00181067 -0.130693 -0.000634388
0.0117223 -1.95545e-21 0.00185737 -4.48925e-05 -0.00178076 -1.29671e-05
-0.0116915 1.03398e-25 0.00211241 0.00147467 -0.112228 -0.000501188
-0.0116585 -1.22998e-20 0.00240709 0.00108714 -0.0909306 -0.000347557
0.0116635 -1.73079e-20 0.00240865 -3.08316e-05 -0.00119574 -1.1725e-05
-0.0120571 -2.71051e-20 0.000300839 0.00138005 -0.0650894 -6.62686e-05
0.0120573 0 0.000300897 -2.33962e-07 -8.70262e-06 -2.6557e-08
-0.0120651 -2.71051e-20 0.000916399 0.00250154 -0.133624 -0.000608873
0.0120657 0 0.000916727 -4.05373e-05 -0.00148737 -1.13461e-06
-0.012009 0 0.00187022 0.00217917 -0.13508 -0.00131323
-0.0120608 2.71051e-20 0.00155099 0.0024549 -0.148947 -0.0010816
0.0120609 -2.71051e-20 0.00155169 -6.12358e-05 -0.00215279 -1.29554e-05
-0.0118568 -2.71051e-20 0.00273895 0.000830185 -0.0726247 -0.000180006
0.0118619 2.71051e-20 0.00274195 -2.73671e-05 -0.00091376 -1.14931e-05
0.012035 -2.71051e-20 0.00219403 -5.69497e-05 -0.00197584 -1.96353e-05
-0.0120372 0 0.00219395 0.00208421 -0.128381 -0.00101894
-0.0119121 0 0.00310559 2.26205e-08 -1.85727e-06 -1.15379e-08
0.0119304 0 0.00311016 -2.03375e-09 -6.30853e-08 -8.75644e-10
0.0123683 4.1359e-25 2.71643e-09 -1.55206e-12 -4.91627e-11 -2.07387e-13
-0.0123683 4.1359e-25 2.66988e-09 7.64151e-09 -3.61944e-07 -7.87512e-10
-0.0123892 1.29247e-25 0.000564544 0.0018911 -0.0970297 -0.000621557
-0.0123904 2.68541e-20 0.00059722 0.00200056 -0.102646 -0.000657533
0.0123907 -3.57756e-21 0.000597448 -2.45985e-05 -0.000794441 -6.15409e-07
-0.0123962 0 0.00122692 0.00264174 -0.144489 -0.00166514
0.0123962 -2.56881e-20 0.00122803 -6.2899e-05 -0.00198805 -8.48927e-06
-0.0123949 0 0.00129018 0.0026431 -0.144132 -0.00171555
0.0123792 -8.31151e-21 0.00188965 -7.60192e-05 -0.002343 -2.06968e-05
-0.0123827 -2.48876e-20 0.00188742 0.00265597 -0.140757 -0.00219156
-0.0125417 -5.16988e-26 0.00059593 0.00189586 -0.104362 -0.000863129
0.0123193 -2.34258e-20 0.00260601 -5.54472e-05 -0.00164531 -2.14856e-05
-0.0123305 3.27564e-22 0.00260668 0.00195966 -0.0976154 -0.00162029
-0.012569 0 0.00122537 0.00255766 -0.146051 -0.00223223
0.0122774 0 0.00301148 -3.03966e-05 -0.000883464 -1.40945e-05
-0.0122788 2.71051e-20 0.00300901 0.000815816 -0.0622881 -0.000661698
-0.0127075 2.71051e-20 0.00029719 0.00149366 -0.0710195 -0.000222766
0.0127075 0 0.000297361 -3.12128e-07 -8.76194e-06 -3.119e-08
0.0127224 0 0.000910669 -5.83993e-05 -0.00170795 -1.29538e-06
-0.0127228 0 0.000909514 0.00265132 -0.142351 -0.00175424
-0.0123477 0 0.00333768 3.9187e-08 -2.07111e-06 -2.65778e-08
0.0123698 0 0.00334298 -2.30593e-09 -6.34717e-08 -1.07829e-09
0.0127185 2.71051e-20 0.0015595 -9.17431e-05 -0.00261427 -1.87661e-05
-0.0127224 -2.71051e-20 0.00155586 0.00296021 -0.153234 -0.00322692
0.0126865 0 0.00223766 -9.44966e-05 -0.00263536 -3.14121e-05
-0.0127017 0 0.00223253 0.00313489 -0.132648 -0.00346736
0.0125633 -1.3182e-20 0.00303647 -4.4265e-05 -0.00120997 -2.02535e-05
-0.0125873 3.51717e-21 0.00304271 0.00174802 -0.0695815 -0.00146464
-0.0130258 4.1359e-25 2.56512e-09 5.87996e-09 -4.07338e-07 -2.15303e-09
0.0130258 0 1.94236e-09 -1.51118e-12 -3.67205e-11 -1.11665e-13
0.0127297 2.71051e-20 0.00279908 -7.25797e-05 -0.00196157 -3.17777e-05
0.0130472 8.45006e-21 0.000592235 -3.36243e-05 -0.000900786 -8.01298e-07
-0.0130474 -1.70556e-20 0.000591621 0.001546 -0.110095 -0.00155014
-0.0127816 0 0.0028142 0.00315933 -0.0993729 -0.0029931
0.0126842 0 0.00327272 -3.0435e-05 -0.000802627 -1.51217e-05
0.0130549 -6.2357e-21 0.00122427 -8.75525e-05 -0.00231664 -1.17092e-05
-0.0130573 -2.05999e-21 0.00122099 0.00231999 -0.150464 -0.00383522
-0.0127078 2.71051e-20 0.00328029 0.0012792 -0.0481384 -0.000764231
0.0130409 -1.47246e-20 0.00189497 -0.0001119 -0.00290835 -3.02626e-05
-0.0130523 -2.09264e-20 0.00188526 0.00307111 -0.145959 -0.00549567
-0.0127679 -3.30872e-24 0.0035615 7.05668e-08 -2.03183e-06 -6.08567e-08
0.0130294 1.08774e-20 0.00254415 -0.000103396 -0.00263974 -3.99244e-05
0.0127922 0 0.0035676 -3.36861e-09 -7.79423e-08 -1.71628e-09
-0.0130668 9.5895e-21 0.00252843 0.00391667 -0.122053 -0.0057252
0.0129755 2.4468e-20 0.00310441 -6.65569e-05 -0.0016359 -3.14573e-05
0.0133645 -2.71051e-20 0.000294678 -3.80712e-07 -8.79646e-06 -1.81545e-08
-0.0133647 0 0.0002943 0.000653749 -0.0782404 -0.000569488
0.013377 2.71051e-20 0.000905403 -7.66636e-05 -0.00191141 -1.89e-06
-0.0133788 -2.71051e-20 0.000902908 0.00141219 -0.150012 -0.00369369
-0.0130842 5.05407e-21 0.00316077 0.00340252 -0.0772891 -0.00401871
0.0133744 -5.42101e-20 0.00155542 -0.000123741 -0.00304633 -2.51868e-05
-0.0133828 2.71051e-20 0.00154643 0.00227798 -0.156355 -0.00666581
-0.013073 5.42101e-20 0.00349728 0.00195024 -0.044546 -0.00202853
0.0133614 0 0.00222042 -0.000136794 -0.00332345 -4.54585e-05
-0.0133875 2.71051e-20 0.0021975 0.00389558 -0.141242 -0.00851889
0.0131593 0 0.00342851 -5.59527e-05 -0.00120552 -2.96287e-05
0.0133331 2.71051e-20 0.0028787 -0.00011307 -0.00271386 -5.1805e-05
-0.0136859 -4.1359e-25 1.99115e-09 -1.93452e-09 -3.47879e-07 -3.0537e-09
0.0136859 0 1.20838e-09 -1.09202e-12 -2.30985e-11 -1.39561e-14
-0.0133972 -2.71051e-20 0.00283002 0.00550269 -0.117244 -0.00809038
-0.0131766 3.30872e-24 0.00377904 1.19562e-07 -1.99055e-06 -1.19842e-07
0.0137005 -5.48721e-21 0.000588479 -4.23439e-05 -0.000998534 -1.01998e-06
-0.0137012 1.14934e-20 0.000587422 -0.000295538 -0.11707 -0.00254576
0.0132008 -6.61744e-24 0.00378645 -4.37703e-09 -9.30571e-08 -2.44498e-09
0.0137066 1.74041e-20 0.00121712 -0.000111579 -0.00262158 -1.48507e-05
-0.0137113 1.59916e-20 0.00121149 0.000484985 -0.157411 -0.00621073
-0.0133317 1.63285e-20 0.00353346 0.00352527 -0.0565862 -0.00396267
0.0136964 -3.48053e-20 0.00188403 -0.000147705 -0.00344918 -4.01061e-05
-0.0137136 -3.89168e-21 0.00186546 0.0024072 -0.156317 -0.00929796
-0.0134741 -5.42101e-20 0.00333584 0.0055271 -0.0863523 -0.00680745
0.0136686 1.01933e-20 0.00256373 -0.000146955 -0.00340188 -5.82185e-05
-0.0137152 1.19267e-20 0.00251516 0.00513211 -0.142414 -0.0107975
-0.0134565 -2.71051e-20 0.0037461 0.00305358 -0.0384501 -0.00299511
0.0136041 1.29173e-20 0.00329192 -9.90473e-05 -0.00222654 -5.14481e-05
0.0140177 2.71051e-20 0.000293139 -4.3059e-07 -8.80708e-06 -8.97269e-10
-0.0140182 2.71051e-20 0.000292601 -0.00157223 -0.0841013 -0.000857217
0.0135422 -2.71051e-20 0.0036961 -5.58124e-05 -0.00118179 -3.36721e-05
0.0140256 -5.42101e-20 0.000900278 -9.3371e-05 -0.0021002 -2.20665e-06
-0.0140284 -2.71051e-20 0.000896824 -0.00164575 -0.157079 -0.00512101
-0.0137342 1.02215e-20 0.00311436 0.00714156 -0.117924 -0.0103953
0.014023 0 0.00154615 -0.000153192 -0.00344779 -3.05727e-05
-0.0140338 0 0.00153371 -4.33442e-05 -0.166209 -0.00939501
-0.0135654 0 0.00401386 2.66702e-07 -2.622e-06 -2.7926e-07
0.0135836 0 0.00402855 -4.54401e-09 -9.41392e-08 -2.8944e-09
0.0140057 0 0.00221874 -0.000176749 -0.00397299 -5.90594e-05
-0.0137123 2.46334e-21 0.00361961 0.00630569 -0.0751943 -0.00744084
-0.0140348 -5.42101e-20 0.00218502 0.00349525 -0.161305 -0.0125737
0.0139704 0 0.00290901 -0.000162117 -0.00361493 -7.65237e-05
-0.0140398 0 0.00281908 0.00757909 -0.15015 -0.013995
0.0138292 3.21873e-20 0.00373726 -7.56804e-05 -0.00163696 -4.66112e-05
-0.0143389 0 2.44464e-09 -1.52472e-08 -4.49696e-07 -4.04419e-09
0.0143389 -2.06795e-25 1.44847e-09 -1.48814e-12 -2.91026e-11 5.83587e-14
0.0143466 -2.56822e-20 0.000586141 -4.98168e-05 -0.00108938 -1.09428e-06
-0.0143476 -8.67712e-22 0.00058495 -0.00318193 -0.122024 -0.00282248
0.0143501 2.12546e-20 0.00121019 -0.000132493 -0.00290586 -1.75787e-05
-0.0143553 -8.05881e-22 0.00120417 -0.00253407 -0.165594 -0.00699995
-0.0138945 2.71051e-20 0.00393317 0.00693232 -0.0594746 -0.00746294
-0.0140375 -2.71051e-20 0.00343143 0.0102068 -0.122427 -0.0131913
0.0140303 0 0.00350658 -0.000118668 -0.00266092 -6.97588e-05
0.0143403 -5.89904e-21 0.00187312 -0.000180357 -0.0039597 -4.89634e-05
-0.0143565 0 0.00185406 0.000511023 -0.170668 -0.0107883
0.0139282 -2.71051e-20 0.00399009 -5.42886e-05 -0.00110986 -3.72685e-05
0.0143175 -4.96474e-21 0.00255235 -0.000191539 -0.00419258 -7.59695e-05
-0.0139239 -6.61744e-24 0.00428422 4.92924e-07 -4.19251e-06 -5.4513e-07
-0.0143528 9.42903e-21 0.00250721 0.00512238 -0.165782 -0.0134618
0.0139403 0 0.00429658 -4.88389e-09 -1.01249e-07 -3.46457e-09
0.0146631 -5.42101e-20 0.000292462 -4.69617e-07 -8.8001e-06 2.9677e-08
-0.0146635 -2.71051e-20 0.000291927 -0.00420172 -0.0857673 -0.000668514
0.0143152 -4.84066e-21 0.00320649 -0.000166175 -0.00364312 -8.6472e-05
-0.0143427 1.98358e-20 0.00314905 0.00961549 -0.151127 -0.01455
0.0146669 0 0.000896444 -0.000106688 -0.00227705 -2.23812e-06
-0.0146697 -2.71051e-20 0.00089329 -0.00529704 -0.162308 -0.00470993
0.014725 -1.03398e-25 3.73197e-16 0 0 0
0.0146638 -2.71051e-20 0.00153733 -0.000177749 -0.00382328 -3.58705e-05
-0.014673 0 0.00152674 -0.00308308 -0.176891 -0.00884914
-0.0142998 -2.49858e-20 0.00383371 0.0105862 -0.106628 -0.0121398
0.0146505 2.71051e-20 0.00220325 -0.000213436 -0.00459065 -7.04351e-05
0.0143063 -8.42401e-21 0.0038743 -0.000101565 -0.00221708 -6.49608e-05
0.0148155 1.29247e-26 0.000585312 -5.39938e-05 -0.00115169 -1.07802e-06
-0.0146709 -5.42101e-20 0.00217815 0.00169671 -0.178144 -0.0123443
-0.0142437 2.71051e-20 0.00422231 0.00820496 -0.069105 -0.00926547
-0.0147463 0 0.00185052 -0.000898055 -0.177302 -0.00952746
0.014255 2.71051e-20 0.00424396 -5.29503e-05 -0.00111744 -3.92705e-05
0.0148484 -1.29247e-26 0.00120616 -0.000145371 -0.00311266 -1.94572e-05
0.0146399 2.71051e-20 0.00286477 -0.000212705 -0.00456849 -9.74357e-05
-0.0147123 5.16988e-26 0.00250555 0.00436714 -0.17453 -0.0123129
-0.0146627 -5.42101e-20 0.00282903 0.00763042 -0.173806 -0.0149043
-0.0149819 0 3.19382e-09 -3.51238e-08 -5.84446e-07 -2.82316e-09
0.0149819 2.06795e-25 9.62822e-10 -1.02804e-12 -1.92832e-11 9.69877e-14
-0.0142803 0 0.00455271 7.6907e-07 -5.28828e-06 -7.4933e-07
0.0149853 -1.27435e-20 0.000585012 -5.5507e-05 -0.00117426 -1.07213e-06
-0.0149861 1.96592e-20 0.000584127 -0.00587046 -0.123237 -0.00206345
0.0142938 0 0.00456274 -5.15361e-09 -1.07256e-07 -3.82877e-09
0.0149869 0 0.00120504 -0.000148948 -0.00317012 -1.99791e-05
-0.0149906 1.37441e-21 0.00120094 -0.00550406 -0.171429 -0.00548339
0.014925 1.29247e-26 0.00186093 -0.000205336 -0.00439172 -5.58239e-05
-0.0146412 -2.71051e-20 0.00348482 0.0130091 -0.159733 -0.0161832
0.0146341 2.71051e-20 0.00351739 -0.000175256 -0.0038112 -0.00010326
-0.0149904 2.58494e-26 0.00167368 -0.00278444 -0.178749 -0.00786041
0.0149806 1.29247e-26 0.00185977 -0.00020771 -0.00443279 -5.64762e-05
0.0149792 3.87741e-26 0.00193517 -0.000210391 -0.00448918 -6.03264e-05
-0.0149903 -2.58494e-26 0.00184831 -0.00177982 -0.181452 -0.00873846
-0.0145147 1.37312e-21 0.00427467 0.011632 -0.0890765 -0.0115291
0.0145233 -1.78406e-20 0.00429208 -7.50811e-05 -0.0016252 -5.35543e-05
0.0149685 1.03398e-25 0.00252404 -0.000231325 -0.00492961 -9.0397e-05
-0.0149829 0 0.0025043 0.00379861 -0.181116 -0.011448
-0.0149776 0 0.00274965 0.00600062 -0.178633 -0.0122532
-0.0147025 -2.71051e-20 0.0040589 0.0151751 -0.132269 -0.01542
0.0147084 0 0.00408023 -0.000120858 -0.00270764 -8.29095e-05
0.0149582 -7.37183e-21 0.00317892 -0.00021944 -0.00469043 -0.000111652
-0.0146099 2.71051e-20 0.0045237 0.0115729 -0.0668745 -0.00998661
-0.0149688 -1.03398e-25 0.00315684 0.00965515 -0.174513 -0.0135895
0.0153005 0 0.000292235 -4.63597e-07 -8.78491e-06 6.38717e-08
-0.0153009 2.71051e-20 0.000291878 -0.00592576 -0.0827643 -0.000140021
0.0146196 -2.71051e-20 0.00453529 -5.24634e-05 -0.00107509 -3.9141e-05
0.0153021 0 0.000894041 -0.000116279 -0.00244214 -2.18269e-06
-0.0153039 -2.71051e-20 0.000892113 -0.00807492 -0.163323 -0.00278853
0.0153002 -2.71051e-20 0.00152928 -0.000196412 -0.00416749 -4.03057e-05
-0.0153052 0 0.00152357 -0.00550548 -0.183446 -0.00565887
-0.0146355 -6.61744e-24 0.0048202 1.11503e-06 -6.63514e-06 -9.6587e-07
0.0146456 6.61744e-24 0.00482779 -5.45107e-09 -1.11834e-07 -4.22765e-09
-0.0149723 2.49378e-20 0.00378401 0.0144015 -0.159215 -0.0148259
0.0149713 -3.61147e-21 0.00380144 -0.000176842 -0.00382791 -0.000109898
0.0152929 2.71051e-20 0.00218496 -0.000243259 -0.00515111 -7.95645e-05
-0.0153015 2.71051e-20 0.00217419 -0.000195253 -0.187284 -0.00813958
0.0152835 0 0.00284024 -0.000255425 -0.0053987 -0.000113907
-0.0152919 -2.71051e-20 0.00282667 0.00602919 -0.185215 -0.0103992
-0.0149633 1.65767e-21 0.00442183 0.0150102 -0.116116 -0.013149
0.014969 -2.689e-20 0.00443194 -0.000103754 -0.0022293 -7.4706e-05
-0.0156169 0 3.92127e-09 -5.13379e-08 -6.76204e-07 8.01432e-10
0.0156169 -2.06795e-25 1.59541e-09 -1.51669e-12 -2.95613e-11 2.16409e-13
0.0156181 0 0.000584603 -5.93616e-05 -0.00125297 -1.16245e-06
-0.0156185 -2.68137e-20 0.000584185 -0.00729844 -0.11991 -0.00075622
0.0156191 -2.58494e-26 0.0012017 -0.000161028 -0.00341366 -2.20026e-05
-0.0156207 -8.07576e-21 0.00119995 -0.00729036 -0.172493 -0.00263084
0.0154665 0 0.00250914 -0.000257857 -0.00544138 -9.94414e-05
-0.0149261 2.71051e-20 0.00477675 0.0129812 -0.0793607 -0.0112625
0.0152816 0 0.00347878 -0.000234031 -0.00497627 -0.000131629
-0.0152852 -2.71051e-20 0.00346631 0.0119337 -0.179141 -0.0128718
0.0149333 5.42101e-20 0.00478413 -5.27541e-05 -0.00107327 -4.21627e-05
-0.0156201 0 0.00172314 -0.00403393 -0.18377 -0.00416585
0.0156163 0 0.00184941 -0.000229733 -0.00486337 -6.24726e-05
-0.0156199 0 0.00184524 -0.00327397 -0.186402 -0.00452408
-0.015472 0 0.00314795 0.00860129 -0.180921 -0.00924353
0.0156092 -2.58494e-26 0.00250487 -0.00026546 -0.00558803 -0.000102033
-0.0156138 0 0.00249847 0.00244569 -0.187344 -0.00624982
-0.0152764 2.71051e-20 0.00409542 0.0173632 -0.168206 -0.0147721
0.0152785 5.42101e-20 0.00410448 -0.000182916 -0.00393078 -0.000124314
0.015608 2.58494e-26 0.00259813 -0.000265727 -0.00559288 -0.00010644
-0.0149898 0 0.00508713 1.38195e-06 -8.34029e-06 -1.11913e-06
0.0149968 0 0.00509235 -5.49266e-09 -1.16341e-07 -4.49702e-09
0.0156006 -9.3368e-22 0.00315251 -0.000267312 -0.00562173 -0.000132638
-0.0151689 2.0931e-20 0.00482334 0.0150741 -0.1019 -0.012172
-0.0156039 0 0.00314562 0.00832497 -0.182601 -0.00810403
0.0151743 3.30674e-20 0.00482866 -7.42807e-05 -0.00158546 -5.82135e-05
-0.0156032 2.58494e-26 0.00318287 0.00864618 -0.182187 -0.00820957
0.0159322 2.71051e-20 0.000292222 -4.20224e-07 -8.74079e-06 6.80804e-08
-0.0159323 5.42101e-20 0.000292065 -0.00610363 -0.0759839 0.000333279
0.0159282 1.29247e-26 0.000584568 -6.06536e-05 -0.00128846 -1.35693e-06
0.0159329 0 0.000892712 -0.000122255 -0.00259381 -2.6397e-06
-0.0159336 2.71051e-20 0.000891952 -0.00912896 -0.158837 -0.000456689
0.0159836 -1.03398e-25 2.31451e-21 0 0 0
-0.0153229 0 0.00461704 0.0185201 -0.144506 -0.0149057
0.0159322 5.42101e-20 0.00152399 -0.00021062 -0.00448231 -4.35868e-05
-0.015934 5.42101e-20 0.00152204 -0.0064074 -0.184724 -0.00166335
0.0153273 2.71051e-20 0.00462278 -0.000123584 -0.00267028 -9.38143e-05
-0.015592 2.63953e-20 0.00378396 0.0138288 -0.175506 -0.0099125
0.0155918 -2.09955e-20 0.0037897 -0.000237442 -0.00501637 -0.000144149
0.0159284 -2.71051e-20 0.00217342 -0.000268856 -0.00565731 -8.67352e-05
-0.0159311 0 0.00217013 -0.000955549 -0.190162 -0.00267404
-0.0152682 0 0.00505663 0.013763 -0.0823198 -0.0103735
0.0152733 -2.71051e-20 0.00506088 -4.70678e-05 -0.00102569 -3.90769e-05
-0.0160396 0 0.00184385 -0.00338783 -0.18607 -0.00173848
0.0159217 2.71051e-20 0.00282271 -0.000293916 -0.00613775 -0.00012784
-0.0159241 -2.71051e-20 0.00281877 0.0049068 -0.186714 -0.00382643
-0.0155885 -1.51771e-20 0.00438984 0.0176472 -0.1636 -0.011523
0.0155908 1.1468e-20 0.00439405 -0.000181052 -0.00385404 -0.00012848
-0.0162467 0 4.50343e-09 -5.45073e-08 -7.04262e-07 3.82258e-09
0.0162467 0 1.14466e-09 -9.52589e-13 -2.12136e-11 1.58234e-13
0.0162034 -4.84676e-27 0.00120022 -0.000169805 -0.00362052 -2.39342e-05
-0.0153431 6.61744e-24 0.00535315 1.79563e-06 -1.14795e-05 -1.222e-06
0.0153477 6.61744e-24 0.00535654 -7.50187e-09 -1.53055e-07 -6.25848e-09
0.0162471 -2.58494e-26 0.000584533 -6.19822e-05 -0.00132495 -1.55691e-06
-0.0162472 -1.19921e-20 0.00058442 -0.00716452 -0.112743 0.000364118
0.0159122 0 0.00346529 -0.000285822 -0.0059732 -0.00015692
-0.0159131 0 0.00346161 0.0103918 -0.179393 -0.005306
0.0162478 -7.61631e-21 0.00120011 -0.000170472 -0.00363624 -2.4081e-05
-0.0162481 2.60955e-21 0.00119968 -0.00748291 -0.168282 0.000104181
-0.0155338 -1.73873e-20 0.00491869 0.0171519 -0.12717 -0.0113898
0.0162477 -6.46235e-27 0.00123764 -0.000175057 -0.00373052 -2.66196e-05
0.0155374 -1.64179e-20 0.00492201 -0.000105056 -0.00221228 -8.24834e-05
0.0162469 0 0.00184409 -0.00024914 -0.00525388 -6.76361e-05
-0.0162477 -2.70651e-20 0.00184316 -0.00344431 -0.185905 -0.000356826
-0.0162472 6.46235e-27 0.00193862 -0.00262462 -0.186054 -0.000429324
-0.015901 0 0.00409355 0.0155566 -0.175342 -0.00664278
0.0159019 -2.71051e-20 0.00409655 -0.000247754 -0.00520021 -0.000163816
0.0162431 0 0.00249417 -0.000296957 -0.00617649 -0.000112056
-0.016244 -5.16988e-26 0.00249283 0.00213437 -0.186919 -0.000850232
0.0162387 0 0.00283727 -0.000304771 -0.00631841 -0.000132632
0.0162348 -2.01597e-21 0.0031392 -0.000311648 -0.0064433 -0.000150738
-0.0162354 0 0.00313774 0.00778467 -0.180463 -0.0013865
-0.0156894 5.42101e-20 0.00525034 0.0177383 -0.119558 -0.0110351
0.0156925 0 0.00525277 -8.1112e-05 -0.00157095 -6.72173e-05
-0.0162334 0 0.00321894 0.00844458 -0.179665 -0.00143324
-0.0158705 2.71051e-20 0.0047214 0.0190418 -0.168947 -0.00929164
0.0158727 -2.71051e-20 0.00472386 -0.000177718 -0.00377449 -0.000136749
0.0165604 -2.71051e-20 0.000292258 -3.95776e-07 -8.73446e-06 6.50967e-08
-0.0165604 -2.71051e-20 0.000292218 -0.00500385 -0.0680568 0.000449659
0.0165607 0 0.000892189 -0.000126863 -0.00273136 -3.77335e-06
-0.0165609 -2.71051e-20 0.000892028 -0.00847333 -0.149382 0.00112934
0.0165606 2.71051e-20 0.00152156 -0.000223621 -0.00476859 -4.7e-05
-0.016561 2.71051e-20 0.00152113 -0.00588331 -0.180628 0.00139525
-0.0162196 3.04857e-21 0.00378044 0.0130079 -0.174143 -0.00175648
0.0162198 2.77449e-20 0.00378182 -0.000293896 -0.00608801 -0.000174286
-0.0156952 -1.32349e-23 0.00561829 1.98658e-06 -1.43314e-05 -1.03015e-06
0.0156978 0 0.00562028 -9.57116e-09 -1.90512e-07 -8.21308e-09
0.0165588 2.71051e-20 0.00216766 -0.000293731 -0.00611281 -9.34736e-05
-0.0165593 0 0.00216703 -0.000506951 -0.188145 0.00149557
-0.0161896 -2.80348e-20 0.00442818 0.0169872 -0.171133 -0.00321569
0.0161906 -4.58093e-21 0.00442953 -0.000244129 -0.00508691 -0.000171398
0.0165536 2.71051e-20 0.00281397 -0.000331072 -0.00679374 -0.000140132
-0.016554 -2.71051e-20 0.00281321 0.00509111 -0.182684 0.00157234
-0.0168738 -8.27181e-25 4.79187e-09 -4.43268e-08 -6.77242e-07 3.65167e-09
0.0168738 0 1.76193e-09 -1.46902e-12 -3.34825e-11 2.25146e-13
-0.0168739 -2.6385e-20 0.00058458 -0.00588819 -0.10427 0.000825285
0.0168739 -3.30665e-21 0.000584593 -6.46806e-05 -0.00138986 -2.29482e-06
-0.0165426 -2.71051e-20 0.00345663 0.0107428 -0.173108 0.00197409
0.0165425 -5.42101e-20 0.00345738 -0.00033547 -0.00686283 -0.000177919
-0.0161125 -3.23891e-20 0.00513741 0.0169141 -0.148341 -0.00541492
0.0161142 -1.91343e-20 0.00513878 -0.000146544 -0.00303488 -0.000118328
0.0168742 2.32584e-20 0.00119965 -0.000180185 -0.00383705 -2.65695e-05
-0.0168743 -1.13973e-20 0.0011996 -0.00634007 -0.15994 0.00170417
-0.0160304 0 0.00554246 0.014949 -0.116911 -0.0058757
0.0168741 -3.23117e-27 0.00173829 -0.000254469 -0.00531929 -6.52364e-05
0.0160322 2.71051e-20 0.00554379 -7.47129e-05 -0.00150887 -6.57306e-05
-0.0168741 2.59606e-20 0.00184202 -0.0024497 -0.179559 0.00247286
0.0168741 -3.23117e-27 0.00184212 -0.000268789 -0.00560502 -7.26901e-05
-0.0165205 0 0.00410417 0.015306 -0.168714 0.00299749
0.0165209 2.71051e-20 0.00410496 -0.000307132 -0.00632662 -0.000198493
-0.0168728 0 0.00226207 0.00117323 -0.179627 0.00314511
0.016872 0 0.00248968 -0.000328099 -0.00670039 -0.000121239
-0.0168721 0 0.00248953 0.00313505 -0.179664 0.00350913
-0.0160456 0 0.00588237 1.71913e-06 -1.48731e-05 -6.24909e-07
0.0160471 1.32349e-23 0.0058834 -9.53076e-09 -1.86359e-07 -8.59938e-09
0.0168085 3.23117e-27 0.00313289 -0.000350696 -0.00710576 -0.000165224
-0.0168654 0 0.00313207 0.00901661 -0.172171 0.00521326
0.0168654 0 0.00313226 -0.000354567 -0.00717143 -0.00016666
-0.0164772 0 0.00477307 0.0179755 -0.171485 0.000385968
0.0168651 0 0.00314347 -0.000354463 -0.00716943 -0.000167259
0.0164781 -2.71051e-20 0.00477392 -0.000246776 -0.00510234 -0.000188017
-0.0168631 0 0.003224 0.00973606 -0.171431 0.00550105
0.0171867 0 0.000292305 -3.86616e-07 -8.72103e-06 5.71447e-08
-0.0171867 -2.71051e-20 0.000292302 -0.00347226 -0.0622071 0.000248515
0.0171869 -5.42101e-20 0.000892117 -0.000133137 -0.0028549 -5.60343e-06
-0.0171869 5.42101e-20 0.000892093 -0.00665637 -0.13868 0.00148884
0.0171304 -3.23117e-27 0.0018419 -0.000277263 -0.00573247 -7.45778e-05
-0.0163088 3.81827e-21 0.00559077 0.0141701 -0.135884 -0.00357413
0.01631 -2.74889e-20 0.00559165 -0.000105726 -0.00214614 -9.30278e-05
0.0171869 0 0.00152074 -0.000238622 -0.00502465 -5.05591e-05
-0.0171869 0 0.00152071 -0.00431288 -0.171551 0.00281389
-0.0168494 1.65635e-20 0.00377631 0.0140587 -0.166982 0.00723014
0.0168495 2.06795e-25 0.00377656 -0.000348602 -0.00705643 -0.000201088
0.017186 0 0.00216542 -0.000319423 -0.0065188 -9.99097e-05
-0.0171861 0 0.00216535 0.000920698 -0.177963 0.00418317
-0.016518 0 0.00536714 0.0151142 -0.170708 -0.000662811
0.016519 0 0.00536792 -0.000168818 -0.00356706 -0.000145729
-0.0168212 -2.7426e-20 0.00443102 0.0169424 -0.167815 0.00790069
0.0168216 -7.55629e-21 0.00443137 -0.000311789 -0.00634758 -0.000215004
-0.0163928 0 0.00584542 0.0125203 -0.121654 -0.00406452
0.0163937 -2.71051e-20 0.00584612 -7.66989e-05 -0.00143257 -7.01419e-05
0.0171824 -5.42101e-20 0.0028096 -0.000367958 -0.00737285 -0.000151363
-0.0171824 2.71051e-20 0.00280953 0.0070213 -0.169932 0.00675726
-0.0174996 8.27181e-25 4.65707e-09 -2.92364e-08 -6.20525e-07 4.98254e-10
0.0174996 0 2.44541e-09 -2.01663e-12 -4.6416e-11 2.74487e-13
-0.0163956 1.32349e-23 0.00614428 1.29202e-06 -1.50699e-05 -1.4962e-07
-0.0174996 -2.87625e-20 0.000584661 -0.00420864 -0.097922 0.00056542
0.0174996 1.82335e-20 0.00058466 -6.80938e-05 -0.00144739 -3.12399e-06
0.0163962 0 0.00614484 -9.47616e-09 -1.80772e-07 -9.25518e-09
-0.0171728 2.71051e-20 0.00345119 0.0132061 -0.162991 0.0104858
0.0171728 2.71051e-20 0.00345131 -0.000383435 -0.00765073 -0.000197167
-0.0174998 8.83636e-22 0.0011996 -0.0042835 -0.149932 0.00190321
0.0174998 -3.5115e-20 0.0011996 -0.000191477 -0.00401525 -2.90804e-05
-0.0168072 5.71251e-21 0.00507468 0.0159972 -0.17112 0.00643228
0.0168078 6.49833e-21 0.00507511 -0.000245285 -0.00506194 -0.000198132
-0.0174997 1.28346e-20 0.00184159 -9.01045e-05 -0.166528 0.00409611
0.0174997 0 0.00184159 -0.000289473 -0.0059161 -7.72977e-05
-0.0174392 -1.29247e-26 0.00248806 0.00600192 -0.166092 0.00741568
0.0174993 0 0.00212676 -0.000320122 -0.00646576 -0.00010014
-0.0171543 -2.71051e-20 0.00409713 0.0169971 -0.163078 0.0134004
0.0171545 2.71051e-20 0.00409729 -0.000367852 -0.00737597 -0.000230587
0.0174987 0 0.00248791 -0.000358936 -0.00716184 -0.000129067
-0.0174987 3.00084e-20 0.00248791 0.00630249 -0.164669 0.00782525
-0.0174983 -8.07794e-27 0.0025547 0.00698877 -0.16419 0.00834351
-0.0167741 -1.40819e-20 0.00574438 0.0111382 -0.152194 0.00369808
0.0167746 -2.89381e-20 0.00574481 -0.000142761 -0.00294854 -0.000133263
-0.0174944 0 0.00312778 0.0128768 -0.160078 0.01279
0.0174944 0 0.00312779 -0.000395627 -0.00781047 -0.000179778
-0.0171359 0 0.00474309 0.0175533 -0.168007 0.0145872
0.0171362 2.71051e-20 0.00474333 -0.000323798 -0.00655293 -0.000241917
-0.0167048 2.71051e-20 0.00611288 0.00839156 -0.123596 0.00170295
0.0167053 0 0.00611327 -7.57683e-05 -0.00145804 -7.7998e-05
0.0174921 0 0.00326562 -0.000396719 -0.00783373 -0.000189133
-0.017491 0 0.00332932 0.0143344 -0.160226 0.0142295
0.0178123 0 0.000292339 -3.76749e-07 -8.72107e-06 4.5704e-08
-0.0178123 2.71051e-20 0.000292339 -0.00226727 -0.0606919 -0.000160113
-0.0178123 2.71051e-20 0.000892127 -0.00448151 -0.131272 0.000701096
0.0178123 0 0.000892128 -0.000140637 -0.00296315 -7.09677e-06
-0.0178123 2.71051e-20 0.00152058 -0.001647 -0.158666 0.0026328
0.0178123 2.71051e-20 0.00152058 -0.000255098 -0.00525052 -5.37244e-05
-0.0174836 0 0.00376687 0.0174988 -0.160545 0.0173544
0.0174836 -2.85326e-20 0.00376691 -0.000400687 -0.00791833 -0.000223159
-0.0167191 0 0.00643605 6.51375e-07 -1.56807e-05 5.40894e-07
0.0167195 -1.32349e-23 0.0064363 -9.41283e-09 -1.86472e-07 -1.0215e-08
-0.0178119 -2.71051e-20 0.00216457 0.00469081 -0.157964 0.00675937
0.0178119 0 0.00216457 -0.000344964 -0.00687452 -0.000105137
-0.017115 2.71051e-20 0.00539431 0.0134532 -0.174197 0.0120249
0.0171154 -2.71051e-20 0.0053946 -0.000248296 -0.00515196 -0.000220957
-0.0174667 2.24863e-20 0.00441055 0.0186903 -0.165676 0.0200869
0.0174668 -1.13948e-20 0.00441062 -0.000376425 -0.0075037 -0.000252041
-0.0178098 0 0.00280703 0.0125437 -0.152883 0.0135662
0.0178098 2.71051e-20 0.00280703 -0.000403172 -0.00787763 -0.000159729
-0.0169664 -1.63517e-20 0.00617963 0.00559824 -0.1423 0.00647539
0.0169667 -3.2174e-20 0.00617988 -0.000103343 -0.00214714 -0.000108808
-0.0181249 0 4.21997e-09 -1.92823e-08 -5.57683e-07 -3.44309e-09