# UMean  POINT_DATA 30764
# x  y  z  UMean_x  UMean_y  UMean_z
0.01 -1.57772e-30 8.31199e-08 -2.29901e-15 1.91611e-15 -7.1249e-16
-0.01 -7.88861e-31 8.31199e-08 3.90999e-17 -2.60632e-13 -1.18935e-15
-0.01 -4.1359e-25 0.000678316 3.31134e-10 -2.28071e-07 -9.44188e-10
0.01 1.29247e-26 0.00067832 -3.66415e-11 -2.83926e-12 1.02955e-11
0.0100335 -7.75482e-26 0.000675741 -5.74722e-06 -1.42837e-05 4.2149e-07
-0.01 -1.65436e-24 0.00137373 2.08504e-09 -1.12612e-06 -1.74219e-09
0.01 -2.06795e-25 0.00137372 -2.82032e-10 -7.58635e-10 6.31011e-10
-0.01 3.30872e-24 0.00208696 8.82316e-09 -2.54383e-06 1.67479e-09
0.01 0 0.002087 5.47297e-16 -8.50755e-15 5.48044e-15
0.0101863 -2.06795e-25 0.00133474 -3.62908e-05 -0.000223755 4.9365e-05
-0.0102702 0 0.000327905 9.48002e-06 -0.0319254 -0.000140547
0.0102702 -2.71051e-20 0.000327954 -0.000209509 0.000189086 -6.35804e-05
-0.0102616 -2.71051e-20 0.000986823 0.000124273 -0.0548329 -0.000221539
0.0102619 2.71051e-20 0.000986956 -0.000166832 -0.000255141 0.000170546
-0.0102382 -5.42101e-20 0.00161862 7.1704e-05 -0.0462929 7.39411e-05
0.0102389 2.71051e-20 0.00161883 -4.44322e-05 -0.000386295 0.00034151
-0.0105473 0 0.000241058 0.000109449 -0.0224893 -8.42268e-05
-0.0105508 0 8.49672e-08 5.08474e-10 -1.60149e-07 -5.81989e-10
0.0105508 -2.06795e-25 8.59948e-08 -3.73138e-11 5.65869e-11 -1.71571e-10
-0.0105415 -1.37544e-20 0.00063654 0.000289075 -0.0593984 -0.000222458
0.0105418 3.30411e-20 0.00063661 -9.29472e-05 -0.000231004 6.81655e-06
-0.0105237 1.65436e-24 0.00126378 0.000406672 -0.0760894 -0.00018322
0.0105246 -3.7066e-21 0.00126397 -0.000102169 -0.000629933 0.000138976
-0.0105066 1.32217e-20 0.00172222 0.000317354 -0.0662192 -3.64489e-05
0.0105082 1.07327e-20 0.00172263 8.22688e-06 -0.000654865 0.000212734
-0.0104981 0 0.00202328 0.000256521 -0.0527804 1.16257e-05
0.0105003 2.71051e-20 0.00202395 0.000103702 -0.000518528 0.0002554
-0.0104973 -3.30872e-24 0.00235191 1.07725e-08 -1.7232e-06 -1.98813e-09
0.0105018 -1.65436e-24 0.00235298 4.72485e-09 -1.43196e-08 6.71585e-09
-0.0108324 5.42101e-20 0.000312949 0.000238572 -0.0509619 -0.00016218
0.0108326 0 0.000313002 0.000169402 -8.9005e-05 -0.000106721
-0.0108211 0 0.000935918 0.000772047 -0.0992346 -0.000363047
0.0108219 0 0.000936095 -0.000159391 -0.00076433 3.19418e-05
-0.0107987 2.71051e-20 0.00152672 0.000655301 -0.102849 -0.00021079
0.0108006 -2.71051e-20 0.00152718 -3.69964e-05 -0.00109965 2.40736e-05
0.0111231 0 1.4102e-08 2.42451e-09 -2.02128e-09 -1.35251e-09
-0.0111231 0 1.1833e-08 8.68668e-09 -1.13321e-06 -2.47219e-09
-0.0111217 2.06795e-25 0.000543659 0.000708779 -0.0721106 -0.000217355
-0.0109001 -2.71051e-20 0.00228558 0.000410328 -0.0589325 -0.000112326
-0.0111215 0 0.000612314 0.000798284 -0.0812167 -0.000244803
0.011122 2.32467e-20 0.00061238 -4.9121e-05 -0.000494431 -1.85761e-05
0.0109057 -5.42101e-20 0.00228695 0.000244966 -0.0005309 0.00024426
-0.0109929 0 0.00190209 0.000796315 -0.0899244 -0.000248214
0.0109964 -1.6355e-20 0.00190279 9.94325e-05 -0.00106172 7.81225e-05
-0.0111 0 0.00123237 0.00112871 -0.112206 -0.000365633
0.0111015 -6.97231e-21 0.00123258 -0.000127324 -0.00118747 -6.40483e-06
-0.0109856 8.27181e-25 0.00261204 3.36615e-09 -4.50871e-07 -6.55922e-10
0.0109947 0 0.00261423 9.93634e-09 -2.45746e-08 6.98344e-09
-0.0114284 2.71051e-20 0.000305075 0.000564023 -0.0579438 -8.82975e-05
0.0114286 0 0.000305108 1.05161e-05 -2.4969e-06 6.10061e-06
-0.0112129 2.93467e-20 0.00232217 0.000679871 -0.0735535 -0.000185644
0.0112195 -3.7018e-20 0.00232367 0.000222713 -0.000830192 7.3228e-05
-0.0114246 0 0.00092111 0.00163191 -0.117686 -0.000369009
0.0114256 0 0.00092126 -0.000223948 -0.00113502 -2.68111e-06
-0.0113817 2.71051e-20 0.0015635 0.0014922 -0.129936 -0.000523112
0.0113839 2.71051e-20 0.00156383 -9.158e-05 -0.00177005 -8.12053e-05
-0.0111731 -8.27181e-25 0.0027119 0 0 0
-0.0114068 0 0.00210155 0.00123205 -0.108135 -0.000426031
0.011411 2.71051e-20 0.00210244 0.00025526 -0.00145857 -6.58597e-05
-0.0113382 2.71051e-20 0.00256301 0.000398406 -0.0538183 -2.20367e-05
0.0113467 5.42101e-20 0.00256544 0.000170371 -0.000500453 4.83405e-05
0.0117295 8.27181e-25 6.31228e-09 7.72675e-10 -2.42575e-10 3.47958e-11
-0.0117295 0 4.80147e-09 5.39133e-09 -4.17365e-07 -6.34748e-10
-0.0117405 0 0.000519436 0.00118097 -0.078451 -0.000262898
-0.0117423 0 0.00060318 0.00137137 -0.0910988 -0.000305282
0.0117428 -2.8802e-20 0.000603251 -3.30835e-05 -0.000672909 -6.15325e-05
-0.0115321 0 0.00238301 0.00103254 -0.0842595 -0.000304515
-0.0117315 0 0.00123297 0.00200601 -0.129611 -0.000658188
0.0117329 -2.51446e-20 0.00123324 -0.000111145 -0.00176459 -0.000179051
-0.0114582 0 0.00286379 8.54228e-09 -7.59949e-07 -9.95197e-10
0.011472 -6.61744e-24 0.00286721 5.38184e-09 -3.85516e-08 5.05121e-10
-0.0117202 0 0.00185692 0.00183456 -0.126264 -0.000713259
0.0117223 -1.95545e-21 0.00185737 1.67553e-05 -0.00198272 -0.000196708
-0.0116915 1.03398e-25 0.00211241 0.00152694 -0.108726 -0.000545294
-0.0116585 -1.22998e-20 0.00240709 0.00117213 -0.0884971 -0.000351566
0.0116635 -1.73079e-20 0.00240865 9.41447e-05 -0.00119517 -7.68819e-05
-0.0120571 -2.71051e-20 0.000300839 0.00094299 -0.0623747 -0.00010135
0.0120573 0 0.000300897 0.000134404 1.57268e-05 -2.03564e-06
-0.0120651 -2.71051e-20 0.000916399 0.00237589 -0.127813 -0.000672156
0.0120657 0 0.000916727 -5.76877e-05 -0.00160098 -0.000250585
-0.012009 0 0.00187022 0.00225575 -0.130987 -0.00115969
-0.0120608 2.71051e-20 0.00155099 0.00251928 -0.143385 -0.00107287
0.0120609 -2.71051e-20 0.00155169 -6.72168e-05 -0.00257041 -0.000383777
-0.0118568 -2.71051e-20 0.00273895 0.00100718 -0.0713567 -0.00014928
0.0118619 2.71051e-20 0.00274195 -8.7177e-06 -0.000739456 -3.84552e-05
0.012035 -2.71051e-20 0.00219403 -5.12816e-05 -0.00218567 -0.000270296
-0.0120372 0 0.00219395 0.00216012 -0.125282 -0.000862574
-0.0119121 0 0.00310559 2.45085e-08 -1.84292e-06 -7.24355e-09
0.0119304 0 0.00311016 -2.0083e-09 -4.98679e-08 -4.85643e-09
0.0123683 4.1359e-25 2.71643e-09 1.36384e-09 -2.85802e-10 -8.90268e-11
-0.0123683 4.1359e-25 2.66988e-09 5.4545e-09 -3.44121e-07 -9.11893e-10
-0.0123892 1.29247e-25 0.000564544 0.00166681 -0.0923973 -0.000577127
-0.0123904 2.68541e-20 0.00059722 0.00176329 -0.0977453 -0.000610532
0.0123907 -3.57756e-21 0.000597448 0.000150248 -0.000936464 -0.000154953
-0.0123962 0 0.00122692 0.00271011 -0.13855 -0.00140685
0.0123962 -2.56881e-20 0.00122803 1.19557e-07 -0.00243282 -0.000355705
-0.0123949 0 0.00129018 0.00271879 -0.138411 -0.0014385
0.0123792 -8.31151e-21 0.00188965 -0.000103453 -0.00285659 -0.000362723
-0.0123827 -2.48876e-20 0.00188742 0.00280073 -0.137099 -0.00173732
-0.0125417 -5.16988e-26 0.00059593 0.00172209 -0.0991378 -0.000753038
0.0123193 -2.34258e-20 0.00260601 -0.000126228 -0.00171431 -0.000181882
-0.0123305 3.27564e-22 0.00260668 0.00195384 -0.0970624 -0.00118717
-0.012569 0 0.00122537 0.00272681 -0.139978 -0.00179091
0.0122774 0 0.00301148 -6.4072e-05 -0.000654898 -0.000106619
-0.0122788 2.71051e-20 0.00300901 0.000800981 -0.0625837 -0.000389139
-0.0127075 2.71051e-20 0.00029719 0.00107045 -0.0671312 -0.000240461
0.0127075 0 0.000297361 0.000344075 -7.41148e-05 -3.66259e-05
0.0127224 0 0.000910669 0.00017477 -0.00212637 -0.000336369
-0.0127228 0 0.000909514 0.00269668 -0.135099 -0.00144693
-0.0123477 0 0.00333768 3.38107e-08 -2.10647e-06 -1.28558e-08
0.0123698 0 0.00334298 -6.71758e-09 -4.11407e-08 -6.65513e-09
0.0127185 2.71051e-20 0.0015595 -5.09307e-05 -0.00344802 -0.000453764
-0.0127224 -2.71051e-20 0.00155586 0.00325254 -0.148116 -0.00244376
0.0126865 0 0.00223766 -0.000244052 -0.00323502 -0.00034494
-0.0127017 0 0.00223253 0.00328369 -0.13179 -0.00258988
0.0125633 -1.3182e-20 0.00303647 -0.000151601 -0.00100614 -0.000116947
-0.0125873 3.51717e-21 0.00304271 0.00152245 -0.070911 -0.000931875
-0.0130258 4.1359e-25 2.56512e-09 4.50162e-09 -3.81588e-07 -1.99714e-09
0.0130258 0 1.94236e-09 1.91029e-09 -7.39794e-10 -1.66735e-10
0.0127297 2.71051e-20 0.00279908 -0.000269364 -0.00197149 -0.000170564
0.0130472 8.45006e-21 0.000592235 0.000369847 -0.00130465 -0.000169037
-0.0130474 -1.70556e-20 0.000591621 0.00158442 -0.103791 -0.00122923
-0.0127816 0 0.0028142 0.00275113 -0.10137 -0.00212344
0.0126842 0 0.00327272 -0.000122926 -0.000417133 -7.53626e-05
0.0130549 -6.2357e-21 0.00122427 0.00012521 -0.00321881 -0.000346052
-0.0130573 -2.05999e-21 0.00122099 0.00277401 -0.144015 -0.0028765
-0.0127078 2.71051e-20 0.00328029 0.00103028 -0.049799 -0.000308254
0.0130409 -1.47246e-20 0.00189497 -0.000179117 -0.00398337 -0.000354377
-0.0130523 -2.09264e-20 0.00188526 0.00345486 -0.14322 -0.00403106
-0.0127679 -3.30872e-24 0.0035615 4.70459e-08 -2.11484e-06 -3.35827e-08
0.0130294 1.08774e-20 0.00254415 -0.000346718 -0.00324077 -0.000230784
0.0127922 0 0.0035676 -1.27974e-08 -4.45207e-08 -4.45915e-09
-0.0130668 9.5895e-21 0.00252843 0.00371809 -0.122992 -0.00416256
0.0129755 2.4468e-20 0.00310441 -0.000266389 -0.00151905 -0.000107187
0.0133645 -2.71051e-20 0.000294678 0.000562265 -0.000257252 -5.26001e-05
-0.0133647 0 0.0002943 0.00053295 -0.0727278 -0.000499035
0.013377 2.71051e-20 0.000905403 0.000392625 -0.00280188 -0.000255086
-0.0133788 -2.71051e-20 0.000902908 0.0020728 -0.141406 -0.00275996
-0.0130842 5.05407e-21 0.00316077 0.00266767 -0.0796949 -0.00277875
0.0133744 -5.42101e-20 0.00155542 -2.24172e-05 -0.00451325 -0.000342298
-0.0133828 2.71051e-20 0.00154643 0.00309211 -0.15159 -0.00485515
-0.013073 5.42101e-20 0.00349728 0.00114517 -0.0467372 -0.00123809
0.0133614 0 0.00222042 -0.000396439 -0.00470652 -0.000276926
-0.0133875 2.71051e-20 0.0021975 0.00417191 -0.141047 -0.00616191
0.0131593 0 0.00342851 -0.000214291 -0.000697902 -5.04465e-05
0.0133331 2.71051e-20 0.0028787 -0.000483882 -0.00319422 -0.000138505
-0.0136859 -4.1359e-25 1.99115e-09 -7.80074e-10 -3.21423e-07 -2.42984e-09
0.0136859 0 1.20838e-09 1.68917e-09 -9.53144e-10 -1.12769e-10
-0.0133972 -2.71051e-20 0.00283002 0.00472682 -0.119899 -0.00590313
-0.0131766 3.30872e-24 0.00377904 7.20926e-08 -2.10145e-06 -7.37359e-08
0.0137005 -5.48721e-21 0.000588479 0.000537818 -0.00173564 -0.000114435
-0.0137012 1.14934e-20 0.000587422 0.000437578 -0.109426 -0.00188456
0.0132008 -6.61744e-24 0.00378645 -9.00482e-09 -5.74012e-08 -1.67933e-09
0.0137066 1.74041e-20 0.00121712 0.000198275 -0.00407225 -0.000204202
-0.0137113 1.59916e-20 0.00121149 0.00173257 -0.150074 -0.00452024
-0.0133317 1.63285e-20 0.00353346 0.00238703 -0.0593457 -0.0026386
0.0136964 -3.48053e-20 0.00188403 -0.000239293 -0.00522086 -0.0001882
-0.0137136 -3.89168e-21 0.00186546 0.00327256 -0.15269 -0.00675509
-0.0134741 -5.42101e-20 0.00333584 0.00409061 -0.0899391 -0.00478065
0.0136686 1.01933e-20 0.00256373 -0.000495628 -0.00474738 -8.97505e-05
-0.0137152 1.19267e-20 0.00251516 0.00492037 -0.141788 -0.00788422
-0.0134565 -2.71051e-20 0.0037461 0.00188933 -0.0409339 -0.00185545
0.0136041 1.29173e-20 0.00329192 -0.000345177 -0.00243778 -2.41346e-06
0.0140177 2.71051e-20 0.000293139 0.000716962 -0.000463818 -4.2799e-05
-0.0140182 2.71051e-20 0.000292601 -0.000951667 -0.0773084 -0.000638103
0.0135422 -2.71051e-20 0.0036961 -3.34367e-05 -0.000724396 -1.49825e-05
0.0140256 -5.42101e-20 0.000900278 0.000474091 -0.00346559 -0.000110008
-0.0140284 -2.71051e-20 0.000896824 0.000134487 -0.147377 -0.00368379
-0.0137342 1.02215e-20 0.00311436 0.00570757 -0.119271 -0.00754519
0.014023 0 0.00154615 -6.05844e-05 -0.00553138 -0.00011374
-0.0140338 0 0.00153371 0.00167825 -0.160018 -0.00680623
-0.0135654 0 0.00401386 1.7639e-07 -2.75425e-06 -1.87005e-07
0.0135836 0 0.00402855 -4.15486e-09 -5.8306e-08 5.04855e-09
0.0140057 0 0.00221874 -0.000476965 -0.00611986 -2.17485e-05
-0.0137123 2.46334e-21 0.00361961 0.0044889 -0.0774728 -0.00521325
-0.0140348 -5.42101e-20 0.00218502 0.00414363 -0.15797 -0.00916854
0.0139704 0 0.00290901 -0.000624237 -0.00501222 7.98023e-05
-0.0140398 0 0.00281908 0.00660825 -0.148486 -0.0102931
0.0138292 3.21873e-20 0.00373726 -0.000181614 -0.0014341 7.1842e-05
-0.0143389 0 2.44464e-09 -9.32621e-09 -4.131e-07 -2.71474e-09
0.0143389 -2.06795e-25 1.44847e-09 2.4416e-09 -1.77443e-09 -5.73501e-11
0.0143466 -2.56822e-20 0.000586141 0.000598617 -0.00212555 -2.8413e-05
-0.0143476 -8.67712e-22 0.00058495 -0.0014308 -0.113553 -0.00198731
0.0143501 2.12546e-20 0.00121019 0.000175776 -0.00484245 -2.95452e-05
-0.0143553 -8.05881e-22 0.00120417 -0.000213873 -0.156918 -0.00502867
-0.0138945 2.71051e-20 0.00393317 0.0047298 -0.0619584 -0.0051495
-0.0140375 -2.71051e-20 0.00343143 0.00764678 -0.12294 -0.00959243
0.0140303 0 0.00350658 -0.000429856 -0.00298264 0.000116938
0.0143403 -5.89904e-21 0.00187312 -0.000328794 -0.00636196 3.65998e-05
-0.0143565 0 0.00185406 0.00211522 -0.164491 -0.00786185
0.0139282 -2.71051e-20 0.00399009 -9.05611e-05 -0.000657697 0.000113475
0.0143175 -4.96474e-21 0.00255235 -0.000600768 -0.00641389 0.000164184
-0.0139239 -6.61744e-24 0.00428422 3.36463e-07 -4.26248e-06 -3.81502e-07
-0.0143528 9.42903e-21 0.00250721 0.00516698 -0.161344 -0.00990906
0.0139403 0 0.00429658 3.17086e-09 -6.37713e-08 1.8499e-08
0.0146631 -5.42101e-20 0.000292462 0.000749879 -0.000615756 1.21538e-06
-0.0146635 -2.71051e-20 0.000291927 -0.00261351 -0.0787788 -0.000388506
0.0143152 -4.84066e-21 0.00320649 -0.000572275 -0.00504769 0.000288952
-0.0143427 1.98358e-20 0.00314905 0.00778155 -0.148254 -0.0107363
0.0146669 0 0.000896444 0.000448667 -0.0040101 3.70219e-05
-0.0146697 -2.71051e-20 0.00089329 -0.0022685 -0.151861 -0.00328751
0.014725 -1.03398e-25 3.73197e-16 0 0 0
0.0146638 -2.71051e-20 0.00153733 -0.000169553 -0.00639712 6.64151e-05
-0.014673 0 0.00152674 -0.000347483 -0.16859 -0.0063934
-0.0142998 -2.49858e-20 0.00383371 0.00768529 -0.10562 -0.00882443
0.0146505 2.71051e-20 0.00220325 -0.000609957 -0.00738714 0.000213106
0.0143063 -8.42401e-21 0.0038743 -0.000194963 -0.0024636 0.000335682
0.0148155 1.29247e-26 0.000585312 0.000577954 -0.00236053 3.81513e-05
-0.0146709 -5.42101e-20 0.00217815 0.00300066 -0.171291 -0.00908536
-0.0142437 2.71051e-20 0.00422231 0.00561718 -0.068774 -0.00656006
-0.0147463 0 0.00185052 0.00117229 -0.169726 -0.00699774
0.014255 2.71051e-20 0.00424396 0.000131489 -0.000732381 0.000271621
0.0148484 -1.29247e-26 0.00120616 0.000109735 -0.00535815 8.74831e-05
0.0146399 2.71051e-20 0.00286477 -0.00069256 -0.00708306 0.000379966
-0.0147123 5.16988e-26 0.00250555 0.0047185 -0.168352 -0.00914831
-0.0146627 -5.42101e-20 0.00282903 0.00686055 -0.167857 -0.0110665
-0.0149819 0 3.19382e-09 -2.12008e-08 -5.38973e-07 -1.09615e-09
0.0149819 2.06795e-25 9.62822e-10 1.5524e-09 -1.47146e-09 5.49583e-11
-0.0142803 0 0.00455271 5.40287e-07 -5.23398e-06 -5.37233e-07
0.0149853 -1.27435e-20 0.000585012 0.000570468 -0.00244566 6.22649e-05
-0.0149861 1.96592e-20 0.000584127 -0.0031251 -0.11478 -0.00136455
0.0142938 0 0.00456274 1.79307e-08 -7.10119e-08 3.32007e-08
0.0149869 0 0.00120504 9.13872e-05 -0.00550143 0.000119996
-0.0149906 1.37441e-21 0.00120094 -0.00219704 -0.161716 -0.00392384
0.014925 1.29247e-26 0.00186093 -0.000476363 -0.00728085 0.000206252
-0.0146412 -2.71051e-20 0.00348482 0.0100155 -0.155147 -0.0120555
0.0146341 2.71051e-20 0.00351739 -0.0005548 -0.00529126 0.000587897
-0.0149904 2.58494e-26 0.00167368 -0.000167481 -0.169958 -0.00577367
0.0149806 1.29247e-26 0.00185977 -0.000490392 -0.00736821 0.00022238
0.0149792 3.87741e-26 0.00193517 -0.000523584 -0.00743692 0.000242035
-0.0149903 -2.58494e-26 0.00184831 0.000582232 -0.173002 -0.00645699
-0.0145147 1.37312e-21 0.00427467 0.00827067 -0.0874431 -0.00838779
0.0145233 -1.78406e-20 0.00429208 7.87823e-05 -0.00153447 0.000427627
0.0149685 1.03398e-25 0.00252404 -0.000782817 -0.0079736 0.000395536
-0.0149829 0 0.0025043 0.00438089 -0.173627 -0.00857563
-0.0149776 0 0.00274965 0.00577918 -0.171489 -0.00918586
-0.0147025 -2.71051e-20 0.0040589 0.0109379 -0.128742 -0.0114133
0.0147084 0 0.00408023 -0.000102278 -0.00317904 0.000626033
0.0149582 -7.37183e-21 0.00317892 -0.000743482 -0.00726553 0.000598083
-0.0146099 2.71051e-20 0.0045237 0.00829876 -0.0657935 -0.00725497
-0.0149688 -1.03398e-25 0.00315684 0.00809982 -0.167941 -0.0101986
0.0153005 0 0.000292235 0.000683661 -0.000724937 5.37248e-05
-0.0153009 2.71051e-20 0.000291878 -0.00352224 -0.0766857 6.83137e-05
0.0146196 -2.71051e-20 0.00453529 0.000202467 -0.000728803 0.000388648
0.0153021 0 0.000894041 0.000395006 -0.00449144 0.000157832
-0.0153039 -2.71051e-20 0.000892113 -0.00409412 -0.152945 -0.00188944
0.0153002 -2.71051e-20 0.00152928 -0.000320512 -0.00715017 0.000218042
-0.0153052 0 0.00152357 -0.00203449 -0.173747 -0.00418005
-0.0146355 -6.61744e-24 0.0048202 8.01169e-07 -6.38006e-06 -7.04339e-07
0.0146456 6.61744e-24 0.00482779 3.66364e-08 -8.08014e-08 5.07478e-08
-0.0149723 2.49378e-20 0.00378401 0.0108687 -0.153485 -0.011065
0.0149713 -3.61147e-21 0.00380144 -0.000412832 -0.00541264 0.000757368
0.0152929 2.71051e-20 0.00218496 -0.000863216 -0.00853462 0.000391296
-0.0153015 2.71051e-20 0.00217419 0.00173252 -0.178354 -0.00619651
0.0152835 0 0.00284024 -0.000963303 -0.00886867 0.000595569
-0.0152919 -2.71051e-20 0.00282667 0.00590694 -0.176992 -0.00794991
-0.0149633 1.65767e-21 0.00442183 0.0109083 -0.111255 -0.00969854
0.014969 -2.689e-20 0.00443194 0.00014764 -0.00263706 0.000711453
-0.0156169 0 3.92127e-09 -2.91231e-08 -6.31853e-07 2.12342e-09
0.0156169 -2.06795e-25 1.59541e-09 2.05097e-09 -2.5811e-09 2.21485e-10
0.0156181 0 0.000584603 0.000477444 -0.0027388 0.000138549
-0.0156185 -2.68137e-20 0.000584185 -0.00391992 -0.112462 -0.000420107
0.0156191 -2.58494e-26 0.0012017 -3.77577e-05 -0.00612202 0.000260222
-0.0156207 -8.07576e-21 0.00119995 -0.00339583 -0.162719 -0.00195101
0.0154665 0 0.00250914 -0.000997906 -0.00908162 0.000557283
-0.0149261 2.71051e-20 0.00477675 0.00937537 -0.0747875 -0.00825471
0.0152816 0 0.00347878 -0.000764353 -0.00780468 0.000826366
-0.0152852 -2.71051e-20 0.00346631 0.00960176 -0.171629 -0.00972334
0.0149333 5.42101e-20 0.00478413 0.0004741 -0.000855925 0.000573811
-0.0156201 0 0.00172314 -0.000981608 -0.174216 -0.00325954
0.0156163 0 0.00184941 -0.00071087 -0.00831921 0.000408012
-0.0156199 0 0.00184524 -0.000418189 -0.1769 -0.00356491
-0.015472 0 0.00314795 0.0075795 -0.173403 -0.00712754
0.0156092 -2.58494e-26 0.00250487 -0.00105954 -0.00939913 0.000603633
-0.0156138 0 0.00249847 0.0035824 -0.178593 -0.00497426
-0.0152764 2.71051e-20 0.00409542 0.0128797 -0.160724 -0.0110348
0.0152785 5.42101e-20 0.00410448 -0.000264433 -0.00560459 0.000998628
0.015608 2.58494e-26 0.00259813 -0.00105065 -0.00938618 0.000633832
-0.0149898 0 0.00508713 1.00786e-06 -7.79392e-06 -8.19991e-07
0.0149968 0 0.00509235 5.33804e-08 -8.94044e-08 6.68719e-08
0.0156006 -9.3368e-22 0.00315251 -0.000997761 -0.00930921 0.00081335
-0.0151689 2.0931e-20 0.00482334 0.0109964 -0.0956961 -0.00894991
-0.0156039 0 0.00314562 0.00744307 -0.174835 -0.00632231
0.0151743 3.30674e-20 0.00482866 0.000435012 -0.00165352 0.000738502
-0.0156032 2.58494e-26 0.00318287 0.00764192 -0.174448 -0.00639205
0.0159322 2.71051e-20 0.000292222 0.000547964 -0.000823507 8.71666e-05
-0.0159323 5.42101e-20 0.000292065 -0.00331929 -0.0717011 0.00042243
0.0159282 1.29247e-26 0.000584568 0.000397109 -0.00288383 0.000164149
0.0159329 0 0.000892712 0.000278925 -0.00498044 0.000257558
-0.0159336 2.71051e-20 0.000891952 -0.00476003 -0.14971 -0.000302867
0.0159836 -1.03398e-25 2.31451e-21 0 0 0
-0.0153229 0 0.00461704 0.0134816 -0.136498 -0.011002
0.0159322 5.42101e-20 0.00152399 -0.00051703 -0.00791232 0.000408179
-0.015934 5.42101e-20 0.00152204 -0.00266006 -0.174833 -0.00146692
0.0153273 2.71051e-20 0.00462278 0.00035793 -0.00331764 0.00101839
-0.015592 2.63953e-20 0.00378396 0.0108504 -0.168203 -0.00751722
0.0155918 -2.09955e-20 0.0037897 -0.000616615 -0.0079699 0.0010124
0.0159284 -2.71051e-20 0.00217342 -0.00114527 -0.00968262 0.00061413
-0.0159311 0 0.00217013 0.00131168 -0.180678 -0.00244488
-0.0152682 0 0.00505663 0.0101635 -0.076262 -0.00761258
0.0152733 -2.71051e-20 0.00506088 0.000472062 -0.00080686 0.000626997
-0.0160396 0 0.00184385 -0.000447855 -0.176724 -0.00169681
0.0159217 2.71051e-20 0.00282271 -0.00126394 -0.0104945 0.000812201
-0.0159241 -2.71051e-20 0.00281877 0.00537818 -0.178348 -0.00333412
-0.0155885 -1.51771e-20 0.00438984 0.0131349 -0.155509 -0.00850513
0.0155908 1.1468e-20 0.00439405 2.4484e-05 -0.00564796 0.0011349
-0.0162467 0 4.50343e-09 -2.75007e-08 -6.72651e-07 4.36537e-09
0.0162467 0 1.14466e-09 1.13849e-09 -2.17192e-09 2.23299e-10
0.0162034 -4.84676e-27 0.00120022 -0.000222243 -0.0066952 0.000387283
-0.0153431 6.61744e-24 0.00535315 1.33061e-06 -1.05727e-05 -8.88685e-07
0.0153477 6.61744e-24 0.00535654 7.83346e-08 -1.43133e-07 9.89423e-08
0.0162471 -2.58494e-26 0.000584533 0.000314501 -0.00303297 0.000190473
-0.0162472 -1.19921e-20 0.00058442 -0.00365306 -0.1072 0.000308389
0.0159122 0 0.00346529 -0.00100155 -0.0100666 0.00101836
-0.0159131 0 0.00346161 0.00886098 -0.172417 -0.00427421
0.0162478 -7.61631e-21 0.00120011 -0.000236262 -0.00673876 0.000396939
-0.0162481 2.60955e-21 0.00119968 -0.00349791 -0.159658 -0.000150946
-0.0155338 -1.73873e-20 0.00491869 0.0126605 -0.118832 -0.00829852
0.0162477 -6.46235e-27 0.00123764 -0.000278726 -0.00688567 0.00040925
0.0155374 -1.64179e-20 0.00492201 0.000522932 -0.00275647 0.000995333
0.0162469 0 0.00184409 -0.000964796 -0.00925918 0.000608157
-0.0162477 -2.70651e-20 0.00184316 -0.000462569 -0.176637 -0.00077024
-0.0162472 6.46235e-27 0.00193862 0.000133614 -0.176901 -0.000843531
-0.015901 0 0.00409355 0.0120177 -0.168104 -0.00499783
0.0159019 -2.71051e-20 0.00409655 -0.000443878 -0.00843634 0.00120542
0.0162431 0 0.00249417 -0.00133608 -0.0107401 0.0008163
-0.016244 -5.16988e-26 0.00249283 0.00359496 -0.178428 -0.00126905
0.0162387 0 0.00283727 -0.00129055 -0.0109634 0.000919645
0.0162348 -2.01597e-21 0.0031392 -0.00125048 -0.0111599 0.00101059
-0.0162354 0 0.00313774 0.00746479 -0.17357 -0.00158155
-0.0156894 5.42101e-20 0.00525034 0.0132131 -0.109622 -0.00797279
0.0156925 0 0.00525277 0.000855951 -0.00167655 0.00105518
-0.0162334 0 0.00321894 0.00788306 -0.172886 -0.00158268
-0.0158705 2.71051e-20 0.0047214 0.0141215 -0.159288 -0.00662989
0.0158727 -2.71051e-20 0.00472386 0.000407101 -0.00554912 0.00133496
0.0165604 -2.71051e-20 0.000292258 0.00036446 -0.000944016 8.48441e-05
-0.0165604 -2.71051e-20 0.000292218 -0.00229475 -0.065925 0.000461042
0.0165607 0 0.000892189 6.23377e-05 -0.00545359 0.000335683
-0.0165609 -2.71051e-20 0.000892028 -0.00426576 -0.142675 0.000648779
0.0165606 2.71051e-20 0.00152156 -0.000781759 -0.00865631 0.000589075
-0.016561 2.71051e-20 0.00152113 -0.00227602 -0.171831 0.000504174
-0.0162196 3.04857e-21 0.00378044 0.0107754 -0.168156 -0.00159055
0.0162198 2.77449e-20 0.00378182 -0.000815879 -0.010395 0.00120208
-0.0156952 -1.32349e-23 0.00561829 1.47134e-06 -1.30857e-05 -7.24736e-07
0.0156978 0 0.00562028 1.18064e-07 -2.04481e-07 1.34223e-07
0.0165588 2.71051e-20 0.00216766 -0.00141769 -0.0107916 0.000821476
-0.0165593 0 0.00216703 0.00179132 -0.179245 0.000312553
-0.0161896 -2.80348e-20 0.00442818 0.0131017 -0.163842 -0.00232276
0.0161906 -4.58093e-21 0.00442953 -0.00010487 -0.00833936 0.00137227
0.0165536 2.71051e-20 0.00281397 -0.00151594 -0.0119817 0.00101629
-0.016554 -2.71051e-20 0.00281321 0.00589453 -0.175462 0.000368272
-0.0168738 -8.27181e-25 4.79187e-09 -1.77549e-08 -6.64272e-07 3.6206e-09
0.0168738 0 1.76193e-09 1.11793e-09 -3.89123e-09 2.91143e-10
-0.0168739 -2.6385e-20 0.00058458 -0.00266248 -0.10103 0.000491808
0.0168739 -3.30665e-21 0.000584593 8.93305e-05 -0.00330352 0.00020995
-0.0165426 -2.71051e-20 0.00345663 0.00971751 -0.168085 0.000884562
0.0165425 -5.42101e-20 0.00345738 -0.00121967 -0.012084 0.00119503
-0.0161125 -3.23891e-20 0.00513741 0.0125947 -0.138314 -0.00369257
0.0161142 -1.91343e-20 0.00513878 0.000735878 -0.00444654 0.00133201
0.0168742 2.32584e-20 0.00119965 -0.000501785 -0.00730107 0.000493576
-0.0168743 -1.13973e-20 0.0011996 -0.00268484 -0.153452 0.000746419
-0.0160304 0 0.00554246 0.0110249 -0.106249 -0.003928
0.0168741 -3.23117e-27 0.00173829 -0.00110982 -0.00968791 0.000712104
0.0160322 2.71051e-20 0.00554379 0.00107131 -0.00169572 0.00111943
-0.0168741 2.59606e-20 0.00184202 0.000336429 -0.171821 0.00100528
0.0168741 -3.23117e-27 0.00184212 -0.00122703 -0.010148 0.000754229
-0.0165205 0 0.00410417 0.0124894 -0.164016 0.00205627
0.0165209 2.71051e-20 0.00410496 -0.000604693 -0.0110164 0.00138946
-0.0168728 0 0.00226207 0.00310016 -0.172551 0.00142955
0.016872 0 0.00248968 -0.00157233 -0.0119816 0.000965257
-0.0168721 0 0.00248953 0.00459671 -0.172946 0.00165929
-0.0160456 0 0.00588237 1.25751e-06 -1.34049e-05 -4.05707e-07
0.0160471 1.32349e-23 0.0058834 1.4559e-07 -2.08322e-07 1.53102e-07
0.0168085 3.23117e-27 0.00313289 -0.00143961 -0.0126694 0.00112529
-0.0168654 0 0.00313207 0.00885916 -0.167511 0.00303263
0.0168654 0 0.00313226 -0.00145836 -0.012819 0.00113666
-0.0164772 0 0.00477307 0.0137526 -0.164027 0.000503541
0.0168651 0 0.00314347 -0.00145035 -0.0128153 0.00113951
0.0164781 -2.71051e-20 0.00477392 0.000203326 -0.00847729 0.0015625
-0.0168631 0 0.003224 0.00933506 -0.166912 0.00328763
0.0171867 0 0.000292305 0.000156785 -0.001076 5.42957e-05
-0.0171867 -2.71051e-20 0.000292302 -0.00110332 -0.0618897 0.000227365
0.0171869 -5.42101e-20 0.000892117 -0.000231619 -0.00581389 0.000369486
-0.0171869 5.42101e-20 0.000892093 -0.00301719 -0.134812 0.000634834
0.0171304 -3.23117e-27 0.0018419 -0.00131892 -0.0104834 0.000769256
-0.0163088 3.81827e-21 0.00559077 0.0103757 -0.123954 -0.00217818
0.01631 -2.74889e-20 0.00559165 0.00113218 -0.0029068 0.00134432
0.0171869 0 0.00152074 -0.00106834 -0.00933018 0.000684227
-0.0171869 0 0.00152071 -0.00115339 -0.164934 0.00120058
-0.0168494 1.65635e-20 0.00377631 0.0121943 -0.163308 0.00481973
0.0168495 2.06795e-25 0.00377656 -0.000998026 -0.0126046 0.00130063
0.017186 0 0.00216542 -0.00164223 -0.0118207 0.000922833
-0.0171861 0 0.00216535 0.00299623 -0.171317 0.00200099
-0.016518 0 0.00536714 0.0110792 -0.15852 -6.94553e-06
0.016519 0 0.00536792 0.00106454 -0.00548573 0.00163355
-0.0168212 -2.7426e-20 0.00443102 0.0137078 -0.162877 0.00572262
0.0168216 -7.55629e-21 0.00443137 -0.00031131 -0.0112151 0.00147908
-0.0163928 0 0.00584542 0.0090791 -0.108728 -0.00251134
0.0163937 -2.71051e-20 0.00584612 0.00125537 -0.00166494 0.00129216
0.0171824 -5.42101e-20 0.0028096 -0.00171251 -0.0133248 0.00109999
-0.0171824 2.71051e-20 0.00280953 0.00769233 -0.165812 0.00393562
-0.0174996 8.27181e-25 4.65707e-09 -7.39383e-09 -6.21732e-07 2.88325e-10
0.0174996 0 2.44541e-09 5.94838e-10 -5.92761e-09 2.33346e-10
-0.0163956 1.32349e-23 0.00614428 9.16674e-07 -1.34215e-05 -3.56995e-08
-0.0174996 -2.87625e-20 0.000584661 -0.00151762 -0.0965959 0.000116014
0.0174996 1.82335e-20 0.00058466 -0.000142757 -0.00349773 0.000204847
0.0163962 0 0.00614484 1.66499e-07 -2.17687e-07 1.6978e-07
-0.0171728 2.71051e-20 0.00345119 0.0121234 -0.160706 0.0068973
0.0171728 2.71051e-20 0.00345131 -0.0013837 -0.0138729 0.00123567
-0.0174998 8.83636e-22 0.0011996 -0.00126687 -0.145933 0.000592148
0.0174998 -3.5115e-20 0.0011996 -0.000766243 -0.00777519 0.00052097
-0.0168072 5.71251e-21 0.00507468 0.0122851 -0.162597 0.00502309
0.0168078 6.49833e-21 0.00507511 0.000511818 -0.00863993 0.0016544
-0.0174997 1.28346e-20 0.00184159 0.00213932 -0.161743 0.0019282
0.0174997 0 0.00184159 -0.00145133 -0.0109667 0.000790909
-0.0174392 -1.29247e-26 0.00248806 0.00694077 -0.162539 0.00435174
0.0174993 0 0.00212676 -0.00158331 -0.0119157 0.000872838
-0.0171543 -2.71051e-20 0.00409713 0.0144528 -0.160391 0.00939827
0.0171545 2.71051e-20 0.00409729 -0.000780582 -0.0134236 0.00138364
0.0174987 0 0.00248791 -0.00175045 -0.0131176 0.000976592
-0.0174987 3.00084e-20 0.00248791 0.00718653 -0.161448 0.00463402
-0.0174983 -8.07794e-27 0.0025547 0.00770285 -0.161134 0.00502682
-0.0167741 -1.40819e-20 0.00574438 0.00809048 -0.139355 0.00331492
0.0167746 -2.89381e-20 0.00574481 0.00121112 -0.00462144 0.00161166
-0.0174944 0 0.00312778 0.0121327 -0.15844 0.00839689
0.0174944 0 0.00312779 -0.00160888 -0.0143043 0.00109602
-0.0171359 0 0.00474309 0.0141683 -0.163041 0.0107651
0.0171362 2.71051e-20 0.00474333 -5.20657e-05 -0.0118693 0.00158169
-0.0167048 2.71051e-20 0.00611288 0.00573644 -0.109669 0.00200057
0.0167053 0 0.00611327 0.00143046 -0.00189166 0.00140323
0.0174921 0 0.00326562 -0.00150906 -0.0143629 0.00111765
-0.017491 0 0.00332932 0.0131357 -0.158548 0.00952645
0.0178123 0 0.000292339 -1.99521e-05 -0.00112348 3.83149e-05
-0.0178123 2.71051e-20 0.000292339 -0.000341691 -0.0612801 -0.000177094
-0.0178123 2.71051e-20 0.000892127 -0.00163373 -0.129517 -0.000218106
0.0178123 0 0.000892128 -0.000482956 -0.00605416 0.000362356
-0.0178123 2.71051e-20 0.00152058 0.000766846 -0.154872 0.000762782
0.0178123 2.71051e-20 0.00152058 -0.00129386 -0.00995602 0.000672341
-0.0174836 0 0.00376687 0.0153132 -0.158782 0.0119788
0.0174836 -2.85326e-20 0.00376691 -0.00114605 -0.0145761 0.00119633
-0.0167191 0 0.00643605 4.22639e-07 -1.38625e-05 5.14302e-07
0.0167195 -1.32349e-23 0.0064363 1.85352e-07 -2.45429e-07 1.86107e-07
-0.0178119 -2.71051e-20 0.00216457 0.00595741 -0.155875 0.00375178
0.0178119 0 0.00216457 -0.00180223 -0.0127664 0.000884938
-0.017115 2.71051e-20 0.00539431 0.0102727 -0.165028 0.00925788
0.0171154 -2.71051e-20 0.0053946 0.000782894 -0.00899614 0.001838
-0.0174667 2.24863e-20 0.00441055 0.0156752 -0.162093 0.0143325
0.0174668 -1.13948e-20 0.00441062 -0.000499697 -0.0138856 0.00133383
-0.0178098 0 0.00280703 0.0120739 -0.152839 0.00882224
0.0178098 2.71051e-20 0.00280703 -0.00184429 -0.0145509 0.000998717
-0.0169664 -1.63517e-20 0.00617963 0.00373112 -0.127452 0.00566703
0.0169667 -3.2174e-20 0.00617988 0.00145339 -0.00324526 0.00160172
-0.0181249 0 4.21997e-09 -3.40855e-09 -5.64495e-07 -3.49069e-09
0.0181249 4.1359e-25 2.86614e-09 -1.18493e-10 -6.98846e-09 2.21926e-10
-0.0178039 0 0.00344471 0.0166228 -0.154417 0.0138897
0.0178039 0 0.00344474 -0.00149343 -0.015459 0.00105145
-0.0181249 -3.85977e-20 0.000584697 -0.000692132 -0.0941374 -0.000570935