# UMean  POINT_DATA 7061
# x  y  z  UMean_x  UMean_y  UMean_z
3.89618e-26 -0.079 8.5914e-08 1.08888e-15 1.57684e-15 7.53423e-16
0 -0.079 0.000550926 2.75025e-09 5.32795e-10 9.35037e-10
0 -0.079 0.0011232 4.1149e-08 2.84711e-09 1.56322e-08
0 -0.079 0.00172954 9.67975e-09 -4.36131e-11 4.38859e-09
-2.06795e-25 -0.079 0.0023683 4.47913e-09 -2.80888e-10 2.51222e-09
0 -0.079 0.00302578 1.72651e-09 -2.60374e-10 1.4235e-09
1.03398e-25 -0.079 0.00316768 0 0 0
-4.1359e-25 -0.079 0.00368597 -1.00656e-09 -1.15318e-09 1.74748e-09
4.1359e-25 -0.079 0.00433887 -6.60911e-09 -1.28775e-09 -2.09282e-10
0 -0.079 0.00498192 -1.18368e-08 -1.24e-09 -2.55445e-09
0 -0.079 0.0056169 -1.63624e-08 -1.13464e-09 -5.34307e-09
8.27181e-25 -0.079 0.00624674 -1.95769e-08 -1.12931e-09 -8.36513e-09
2.71051e-20 -0.079254 0.000278027 0.000229901 0.000238789 0.000111722
-2.71051e-20 -0.0792534 0.000845552 0.00189624 0.00024814 0.000638997
-5.42101e-20 -0.0792519 0.00144222 0.00234756 5.72687e-05 0.000952663
-2.71051e-20 -0.0792508 0.00206883 0.00200439 -8.50901e-05 0.000964118
2.71051e-20 -0.0792502 0.00271551 0.00125773 -0.000139677 0.000802146
0 -0.079 0.00687383 -2.0749e-08 -1.23328e-09 -1.11259e-08
-2.71051e-20 -0.07925 0.00336932 0.000420979 -0.000161089 0.000556996
-5.42101e-20 -0.0792504 0.00402046 -0.000422392 -0.000194049 0.000273889
-8.27181e-25 -0.079 0.00749963 -1.97246e-08 -1.34852e-09 -1.33294e-08
-5.16988e-26 -0.0793284 0.00304732 0.00084857 -0.000266103 5.72301e-05
5.42101e-20 -0.0792509 0.00466442 -0.00115798 -0.000206763 -4.44981e-05
0 -0.079 0.00812489 -1.68548e-08 -1.38835e-09 -1.47332e-08
2.71051e-20 -0.0792514 0.00530113 -0.0016627 -0.000180048 -0.000379854
0 -0.0792518 0.00593244 -0.00188185 -0.000149315 -0.000676391
0 -0.079 0.00874998 -1.28506e-08 -1.29453e-09 -1.48193e-08
0 -0.0794672 0.00240658 0.00206212 -0.000271349 0.000394002
0 -0.0795066 8.13086e-08 1.63189e-09 9.81987e-10 1.73253e-10
2.06795e-25 -0.0795065 0.000303907 0.000891053 0.000137102 0.000126771
-1.57212e-20 -0.0795065 0.000561025 0.00164511 0.000253125 0.000234053
2.06795e-25 -0.0795027 0.00114835 0.00293291 0.000116344 0.000523917
0 -0.0795014 0.00176809 0.00291857 -0.00011572 0.000592082
0 -0.0792519 0.00656044 -0.00189189 -0.00013319 -0.000918148
0 -0.0795013 0.00233667 0.0022928 -0.00027128 0.000441982
0 -0.0795013 0.00240938 0.00221278 -0.000291173 0.000422787
-4.1359e-25 -0.079 0.009375 -8.52518e-09 -1.04092e-09 -1.32846e-08
-2.20454e-20 -0.0795014 0.00305867 0.00129577 -0.000406341 8.73906e-05
-5.42101e-20 -0.079252 0.00718675 -0.0018302 -0.000135816 -0.00114041
1.01336e-20 -0.0795017 0.00370691 0.000411405 -0.000498073 -0.000338269
-2.06795e-25 -0.0796091 6.307e-08 0 0 0
1.31859e-20 -0.0795024 0.00434988 -0.00034578 -0.000558242 -0.000824594
0 -0.079 0.01 -4.88432e-09 -7.22713e-10 -1.05637e-08
0 -0.079252 0.00781225 -0.00171878 -0.00014418 -0.00139362
3.05354e-21 -0.079503 0.00498679 -0.000913634 -0.00055586 -0.00135903
-2.06795e-25 -0.079 0.0103106 0 0 0
5.42101e-20 -0.079252 0.00843743 -0.00156791 -0.000157117 -0.00168965
1.7025e-20 -0.0795035 0.00561869 -0.0012338 -0.000502698 -0.00189267
0 -0.079 0.010625 -2.9254e-09 -7.41422e-10 -1.31546e-08
1.60804e-20 -0.0795039 0.00624726 -0.00130863 -0.000448888 -0.00237762
2.71051e-20 -0.0792521 0.00906248 -0.00139646 -0.00016789 -0.00202787
0 -0.0797726 0.000282959 0.000987958 0.00029558 -2.1599e-05
-2.71051e-20 -0.0797727 0.000861182 0.00352451 0.000229561 0.000204846
5.42101e-20 -0.0797711 0.00146986 0.00401412 -7.64728e-05 0.000284578
0 -0.079 0.01125 -2.23557e-09 -9.12064e-10 -1.75898e-08
-2.71051e-20 -0.079771 0.00210389 0.00333402 -0.000367705 0.000146226
1.32663e-20 -0.079504 0.00687391 -0.00125143 -0.000432985 -0.00282712
-2.71051e-20 -0.0797714 0.00274903 0.00226966 -0.000581712 -0.000242036
-2.71051e-20 -0.0792521 0.0096875 -0.00119531 -0.000173779 -0.00242106
0 -0.0797718 0.00339467 0.00124765 -0.000751965 -0.000787003
1.50059e-20 -0.0795041 0.00749961 -0.0011718 -0.000448308 -0.00329493
0 -0.0797726 0.00403626 0.000413874 -0.00089433 -0.00141845
0 -0.079 0.011875 -9.60286e-10 -9.99371e-10 -2.04688e-08
-2.71051e-20 -0.0797735 0.00467288 -0.000200795 -0.000948108 -0.00213705
-1.68838e-20 -0.0795041 0.00812487 -0.00109495 -0.0004724 -0.00381049
-2.71051e-20 -0.0792521 0.0103125 -0.000955676 -0.000176196 -0.00287069
0 -0.0797742 0.00530505 -0.00061569 -0.000900173 -0.00291213
0 -0.079 0.0125 4.61865e-10 -1.04559e-09 -2.2391e-08
-1.92946e-20 -0.0795041 0.00874996 -0.00101968 -0.000501593 -0.00437381
-2.71051e-20 -0.0797748 0.00593404 -0.00075566 -0.000793081 -0.00365047
0 -0.0792521 0.0109375 -0.000710309 -0.000186816 -0.00337097
0 -0.0800346 -3.72863e-10 1.42579e-08 1.34543e-09 -9.92628e-10
0 -0.079 0.0128484 0 0 0
4.1359e-25 -0.0800404 0.000568646 0.00200142 0.000103938 -8.00054e-05
0 -0.0797751 0.00656102 -0.000683888 -0.000731239 -0.0043235
0 -0.0800382 0.00116603 0.00331875 2.78504e-07 -0.000105888
-4.94199e-21 -0.0795041 0.00937499 -0.000931156 -0.000539763 -0.00499028
0 -0.0800391 0.00179599 0.00305979 -0.000263154 -0.000266792
1.9387e-26 -0.0800406 0.00227145 0.00243741 -0.000481061 -0.000548349
0 -0.0800412 0.00244118 0.00221524 -0.000558848 -0.000648858
0 -0.079 0.013125 7.39514e-10 -8.91601e-10 -1.96269e-08
-2.71051e-20 -0.0792521 0.0115625 -0.000459536 -0.000203041 -0.00391831
2.71051e-20 -0.0797752 0.00718692 -0.000576711 -0.000742971 -0.00499438
-2.48611e-20 -0.0800427 0.00308639 0.00137193 -0.000818547 -0.00121984
3.45859e-20 -0.0800437 0.00372651 0.000737519 -0.00103521 -0.00188271
-1.06736e-20 -0.0795041 0.01 -0.000809163 -0.000581963 -0.00566806
-5.42101e-20 -0.0797753 0.00781229 -0.000538581 -0.000781996 -0.0057285
-1.13965e-21 -0.0800446 0.00436171 0.000341714 -0.00119268 -0.00259677
1.29247e-26 -0.0795041 0.0104105 -0.000710382 -0.000606777 -0.00614284
0 -0.0792521 0.0121875 -0.000165704 -0.000222103 -0.0045004
-4.1359e-25 -0.079 0.01375 2.11582e-09 -9.34178e-10 -2.39268e-08
2.49791e-20 -0.0800454 0.00499307 0.000100302 -0.00126006 -0.00336394
0 -0.0795041 0.010625 -0.000658759 -0.000619744 -0.00639095
2.71051e-20 -0.0797753 0.00843744 -0.000533525 -0.000818634 -0.00651715
-1.97324e-20 -0.0800459 0.00562167 -3.18472e-05 -0.00122734 -0.00415959
0 -0.0792521 0.0128125 0.000147432 -0.000238659 -0.00510193
-2.71051e-20 -0.0797753 0.00906248 -0.000563066 -0.00087575 -0.00735712
-4.31985e-21 -0.0800463 0.00624853 -3.29632e-05 -0.00115662 -0.00494853
0 -0.0795042 0.01125 -0.000500561 -0.000646763 -0.00712097
4.1359e-25 -0.079 0.014375 3.61223e-09 -8.84106e-10 -2.83783e-08
2.71051e-20 -0.0803223 0.000287068 0.000662769 -0.000101352 -0.000150486
0 -0.0803283 0.00087395 0.00286457 -1.42816e-05 -0.000363369
-1.62618e-20 -0.0800464 0.0068744 3.94e-05 -0.00114419 -0.00573994
2.71051e-20 -0.0803303 0.00149111 0.00284373 -0.000145011 -0.000575336
0 -0.0797753 0.00968749 -0.00055577 -0.000955814 -0.00826138
-2.71051e-20 -0.0803332 0.00213043 0.002005 -0.000468378 -0.000955138
0 -0.0792521 0.0134375 0.0004652 -0.000244285 -0.00569695
2.71051e-20 -0.0803356 0.00277473 0.00123352 -0.000822598 -0.00157385
5.16988e-26 -0.0795042 0.011875 -0.000335359 -0.000660904 -0.00782216
8.05736e-21 -0.0800465 0.00749977 7.73083e-05 -0.00119638 -0.0065841
-2.71051e-20 -0.080337 0.00341474 0.000734717 -0.0011239 -0.00230187
-4.1359e-25 -0.079 0.015 5.02887e-09 -8.40388e-10 -3.28449e-08
0 -0.0797754 0.0103125 -0.000519663 -0.00103771 -0.00923529
2.71051e-20 -0.0803381 0.00404944 0.000560423 -0.00137846 -0.00304948
1.51777e-21 -0.0800465 0.00812492 5.88909e-05 -0.00126621 -0.00749823
2.71051e-20 -0.080339 0.00468044 0.000608337 -0.00156081 -0.0038111
0 -0.0795042 0.0125 -0.000158255 -0.000663726 -0.00847819
0 -0.0792521 0.0140625 0.000772004 -0.000221368 -0.00622975
2.71051e-20 -0.0803397 0.00530896 0.000632953 -0.00164571 -0.00462844
-2.71051e-20 -0.0797754 0.0109375 -0.000442681 -0.00109513 -0.0102127
-2.05544e-20 -0.0800466 0.00874998 -1.728e-05 -0.00134266 -0.00846555
0 -0.079 0.015625 5.85236e-09 -8.50538e-10 -3.42973e-08
-2.71051e-20 -0.0803402 0.00593584 0.000640454 -0.00158756 -0.00548517
0 -0.0795042 0.0130673 1.62248e-05 -0.000647514 -0.00902409
6.46235e-27 -0.0795042 0.013125 3.39571e-05 -0.000645867 -0.00907957
3.14335e-20 -0.0800466 0.00937499 -0.000140563 -0.00142916 -0.00947004
0 -0.0805982 4.55363e-09 4.18238e-09 -2.4753e-09 -1.18919e-09
0 -0.0792521 0.0146875 0.00101525 -0.000190432 -0.00665941
-2.71051e-20 -0.0803404 0.00656179 0.000698565 -0.00153269 -0.00637842
2.71051e-20 -0.0797754 0.0115625 -0.000386497 -0.00111933 -0.0111147
0 -0.0806135 0.000576473 0.00123668 -0.000225158 -0.000339803
0 -0.0806183 0.00118217 0.00189164 -6.33819e-05 -0.000648762
0 -0.0806237 0.00181858 0.00126971 -0.000207557 -0.00103405
0 -0.079 0.01625 5.10825e-09 -7.54021e-10 -2.73519e-08
2.71051e-20 -0.0803405 0.00718721 0.000750929 -0.00158892 -0.00731383
-1.61559e-27 -0.0806282 0.00243043 0.000603624 -0.000544703 -0.00160976
0 -0.0806285 0.00246498 0.000566013 -0.00056374 -0.00164227
1.83129e-20 -0.0800466 0.01 -0.000281211 -0.00150615 -0.0104856
9.72501e-21 -0.0795042 0.01375 0.000243809 -0.000583956 -0.00960196
2.09896e-20 -0.0806311 0.00310603 0.000226102 -0.000929692 -0.00241239
-2.71051e-20 -0.0797754 0.0121875 -0.000330569 -0.00111628 -0.0118934
-4.1359e-25 -0.079 0.0165368 0 0 0
-2.71051e-20 -0.0792521 0.0153125 0.0011901 -0.000181192 -0.0069573
-3.22479e-20 -0.0806325 0.00373992 0.000243766 -0.00124415 -0.00320824
0 -0.0803405 0.00781239 0.000703497 -0.00169208 -0.00835721
-6.46235e-27 -0.0800232 0.010625 -0.000447959 -0.00150043 -0.0112471
3.90328e-20 -0.0800466 0.010625 -0.000438462 -0.0015401 -0.0114659
-1.58698e-20 -0.0806333 0.0043697 0.000475175 -0.00151174 -0.00398616
-3.23117e-27 -0.0800466 0.0107289 -0.000468469 -0.00153507 -0.0116118
0 -0.0797049 0.013125 -0.000462903 -0.000835285 -0.0108984
4.1359e-25 -0.079 0.016875 7.54467e-09 -9.88451e-10 -3.33613e-08
2.71051e-20 -0.0803406 0.00843746 0.00063237 -0.00179421 -0.00945521
-1.79369e-21 -0.0806339 0.00499735 0.000716118 -0.00172833 -0.00477767
-2.75031e-20 -0.0795042 0.014375 0.000449104 -0.000479128 -0.010017
2.71051e-20 -0.0797754 0.0128125 -0.000289882 -0.00109443 -0.0125577
0 -0.080825 5.74177e-10 0 0 0
-2.25055e-21 -0.0806343 0.00562377 0.000866263 -0.00184825 -0.00561433
0 -0.0800466 0.01125 -0.000618989 -0.00150982 -0.0123434
0 -0.0792521 0.0159375 0.00134298 -0.000199271 -0.00717258
2.71051e-20 -0.0803406 0.00906249 0.000420164 -0.00190545 -0.0106048
3.59812e-20 -0.0806345 0.00624947 0.000927731 -0.00188124 -0.00650231
2.71051e-20 -0.0797754 0.0134375 -0.000197339 -0.00102156 -0.0131025
-1.04078e-20 -0.0795042 0.015 0.000608044 -0.000367583 -0.0102989
0 -0.0809079 0.000289884 0.00015181 -0.000640606 -0.000203095
4.1359e-25 -0.079 0.0175 9.31017e-09 -9.70984e-10 -3.74501e-08
-2.71051e-20 -0.0803406 0.0096875 0.000156213 -0.00200389 -0.0117353
6.46235e-27 -0.0800466 0.011875 -0.000837161 -0.00142268 -0.0130631
2.71051e-20 -0.0809209 0.000883698 0.00127238 -0.000141025 -0.000653592
-7.28943e-21 -0.0806346 0.00687478 0.000917009 -0.00193529 -0.00743883
0 -0.0809342 0.000579086 0.000694057 -0.000363361 -0.000332442
0 -0.0809282 0.00150678 0.000531202 5.1038e-05 -0.00101685
5.42101e-20 -0.0809342 0.00214884 -0.000344707 -0.000265149 -0.00160212
2.71051e-20 -0.0792521 0.0165625 0.00150172 -0.000220762 -0.00731145
4.17938e-21 -0.0806346 0.00749992 0.000863759 -0.00204964 -0.00844319
-5.42101e-20 -0.080938 0.00279164 -0.000648101 -0.000694579 -0.00244498
0 -0.079 0.0178786 0 0 0
-2.71051e-20 -0.0803406 0.0103125 -0.000193497 -0.00205128 -0.0127925
-2.71051e-20 -0.0797754 0.0140625 -7.89652e-05 -0.000862047 -0.0135178
-2.71051e-20 -0.0809399 0.0034273 -0.000425004 -0.00107444 -0.00333394
0 -0.0800466 0.0125 -0.00108836 -0.00130252 -0.013611
3.41429e-21 -0.0795042 0.015625 0.000708189 -0.000278418 -0.0104292
0 -0.0809409 0.00405742 9.92391e-05 -0.00139827 -0.00415513
-4.41813e-21 -0.0806346 0.00812497 0.000799232 -0.0021787 -0.00950686
0 -0.079 0.018125 5.82888e-09 -4.45349e-10 -2.27506e-08
0 -0.0809416 0.00468493 0.000630824 -0.00170995 -0.00493937
0 -0.0803406 0.0109375 -0.000595987 -0.0019987 -0.0137054
-2.71051e-20 -0.0792521 0.0171875 0.00166353 -0.00021466 -0.00733621
2.58494e-26 -0.0810975 0.00119034 0.000269331 6.63254e-05 -0.000670573
6.46493e-21 -0.0806346 0.00874999 0.000658287 -0.00229097 -0.0105891
-6.46235e-27 -0.0800466 0.013125 -0.00130868 -0.00115772 -0.0139945
2.71051e-20 -0.080942 0.00531125 0.000995109 -0.0020001 -0.00574426
-2.71051e-20 -0.0797754 0.0146875 7.1125e-05 -0.000653115 -0.0137978
2.33329e-20 -0.0795042 0.01625 0.000785388 -0.000205877 -0.0104126
-2.71051e-20 -0.0809422 0.00593694 0.00120286 -0.00216612 -0.00661347
-6.46235e-26 -0.0795042 0.0163268 0.000797152 -0.000195316 -0.0103919
0 -0.0803406 0.0115625 -0.00106047 -0.00184517 -0.0144201
-1.6484e-20 -0.0806346 0.009375 0.00037355 -0.00236666 -0.0116348
0 -0.0811445 0.00247654 -0.00123804 -0.000353888 -0.00190064
-1.61559e-27 -0.0800204 0.01375 -0.001396 -0.000952447 -0.0140021
4.1359e-25 -0.079 0.01875 7.57245e-09 -3.76225e-10 -2.64688e-08
0 -0.0811987 6.05348e-09 -1.4234e-10 -1.25961e-08 -1.91672e-09
0 -0.0809424 0.00656226 0.00117624 -0.00224765 -0.00754761
0 -0.0800466 0.01375 -0.00147916 -0.000971133 -0.0142253
1.13684e-20 -0.0812193 0.00058141 0.000211813 -0.000486185 -0.0003259
-2.71051e-20 -0.0792521 0.0178125 0.00180763 -0.000168226 -0.00719006
0 -0.0797754 0.0153125 0.000136775 -0.000452546 -0.0139144
2.49301e-20 -0.0812305 0.00119261 -0.000180756 0.000102311 -0.000676624
1.61559e-27 -0.0800466 0.0138832 -0.00150429 -0.000919616 -0.0142449
-2.47833e-20 -0.0806346 0.01 -4.14003e-05 -0.00237543 -0.0125794
0 -0.0812385 0.00177788 -0.00109463 0.000116355 -0.0011112
-2.71051e-20 -0.0803406 0.0121875 -0.00159378 -0.00162438 -0.0148979
0 -0.0812393 0.00183257 -0.00118003 0.000117668 -0.00115181
-2.71051e-20 -0.0809424 0.00718741 0.00104777 -0.00238258 -0.00853213
0 -0.0795042 0.016875 0.000881076 -0.000119964 -0.0102447
0 -0.0812453 0.0024788 -0.00159041 -0.000312899 -0.0019511
0 -0.0812455 0.00251508 -0.00157192 -0.000339426 -0.00200693
3.23117e-27 -0.0812481 0.00311668 -0.00126535 -0.000779275 -0.00293264
0 -0.0809424 0.00781246 0.000956797 -0.00254681 -0.00958705
6.46235e-27 -0.0800466 0.014375 -0.00159707 -0.000729431 -0.0143175
3.46873e-22 -0.0806346 0.010625 -0.000563503 -0.00228264 -0.0133786
1.93434e-21 -0.0812492 0.0037467 -0.000539067 -0.00117419 -0.00387872
0 -0.079 0.019375 9.16542e-09 -3.39045e-10 -2.77089e-08
2.71051e-20 -0.0797754 0.0159375 0.000141537 -0.000284037 -0.013801
2.71051e-20 -0.0803406 0.0128125 -0.00217607 -0.00138433 -0.0151607
-8.98331e-22 -0.0812497 0.00437348 0.00023113 -0.0015449 -0.00474163
-3.63507e-27 -0.0805866 0.01125 -0.00112039 -0.00203451 -0.0138523
0 -0.0792521 0.0184375 0.00191379 -0.000118538 -0.00689528
-2.71051e-20 -0.0809424 0.00843749 0.000908091 -0.00269438 -0.0106454
0 -0.0813716 0.00183379 -0.00176037 0.000246224 -0.000998164
3.27682e-20 -0.08125 0.00499929 0.000779479 -0.00191956 -0.00557841
-1.03398e-25 -0.0795041 0.0175 0.000995887 -5.93177e-06 -0.00990264
1.4188e-20 -0.0806346 0.01125 -0.00116496 -0.00208116 -0.0139864
-1.00974e-28 -0.0813987 0.00248015 -0.00216553 -0.000219132 -0.00180261
-1.0671e-20 -0.0800466 0.015 -0.00166805 -0.000451522 -0.0142798
6.47292e-21 -0.0812501 0.00562469 0.00107144 -0.00224317 -0.00643482
5.42101e-20 -0.0809424 0.0090625 0.000676384 -0.00278271 -0.0116672
4.03897e-28 -0.0806346 0.0114856 -0.00142824 -0.00197297 -0.0141319
0 -0.0803406 0.0134375 -0.0026219 -0.00113529 -0.0152126
-3.23117e-27 -0.0798284 0.01625 -0.000774031 -3.06843e-05 -0.0123925
0 -0.0797754 0.0165625 0.000130956 -0.000119281 -0.0134865
2.02756e-20 -0.0812502 0.00624987 0.00111091 -0.00245686 -0.00732165
0 -0.079 0.02 1.1693e-08 -3.07577e-10 -2.95525e-08
1.55096e-25 -0.0794513 0.018125 0.000982461 9.60204e-05 -0.00842085
-8.07794e-28 -0.0806346 0.011875 -0.00186336 -0.00179416 -0.0143724
0 -0.0792521 0.0190625 0.00204584 -9.79315e-05 -0.00649574
0 -0.0809424 0.0096875 0.000243938 -0.00278664 -0.0125453
5.42101e-20 -0.0815221 0.000290974 -7.67395e-05 -0.001122 -6.71327e-05
-1.79118e-21 -0.0812502 0.00687495 0.00095976 -0.00261064 -0.00823628
2.71051e-20 -0.0815381 0.000888595 -0.000517621 -2.40814e-05 -0.000383038
-2.58494e-26 -0.0795042 0.018125 0.00109769 0.000107282 -0.00940851
-3.78018e-20 -0.0800466 0.015625 -0.0017389 -0.000175007 -0.0140893
2.71051e-20 -0.0803406 0.0140625 -0.00308196 -0.000867029 -0.0151115
-2.71051e-20 -0.0815484 0.0015151 -0.00205103 0.00053431 -0.000653962
5.42101e-20 -0.0815556 0.00215845 -0.00286909 0.000152431 -0.00133329
1.07515e-20 -0.0812502 0.00749998 0.000830449 -0.00276279 -0.00918293
-2.71051e-20 -0.0809424 0.0103125 -0.000372919 -0.00267008 -0.0132535
0 -0.0806346 0.0125 -0.00264141 -0.00145496 -0.0145464
-2.71051e-20 -0.0797754 0.0171875 0.000201298 7.85817e-05 -0.0129564
2.71051e-20 -0.0815595 0.00280008 -0.00250103 -0.000440111 -0.00241691
0 -0.0795042 0.0185135 0.00115657 0.000154806 -0.00904314
2.71051e-20 -0.0815612 0.00343325 -0.00149122 -0.000904606 -0.00352803
-6.46235e-27 -0.0800466 0.0160256 -0.00179328 -6.92718e-06 -0.013856
0 -0.079 0.020625 1.4926e-08 -2.06631e-10 -3.11412e-08
1.26305e-20 -0.0812502 0.00812499 0.000776642 -0.00290015 -0.0101294
5.42101e-20 -0.0792521 0.0196875 0.00224955 -8.35188e-05 -0.00602375
-2.71051e-20 -0.0815618 0.00406097 -0.000342982 -0.00131778 -0.00449488
-2.71051e-20 -0.0803406 0.0146875 -0.00337393 -0.000534201 -0.0148741
0 -0.0809424 0.0109375 -0.00109655 -0.00241806 -0.0137666
-6.46235e-27 -0.0800466 0.01625 -0.00182375 8.7247e-05 -0.0137253
0 -0.0795042 0.01875 0.00119241 0.000183732 -0.00882076
0 -0.0806346 0.013125 -0.00337727 -0.00110236 -0.0145311
0 -0.0815621 0.00468683 0.000535616 -0.00175291 -0.0053767
-3.47448e-22 -0.0812502 0.00875 0.000651622 -0.00298067 -0.011004
-2.71051e-20 -0.0815623 0.00531219 0.000955694 -0.00221547 -0.00625415
0 -0.0797754 0.0178125 0.000282614 0.000287719 -0.0122295
-2.71051e-20 -0.0809424 0.0115625 -0.00191669 -0.00206737 -0.0140512
0 -0.0815624 0.00593736 0.00113174 -0.00259228 -0.00712901
2.71051e-20 -0.0803406 0.0153125 -0.00359008 -0.000161429 -0.0145531
-4.25134e-20 -0.0812502 0.009375 0.000324636 -0.00296346 -0.0117395
0 -0.0806346 0.01375 -0.00405153 -0.000756421 -0.0143564
2.58494e-26 -0.0800466 0.016875 -0.00188179 0.000353609 -0.0131867
0 -0.079 0.02125 1.65378e-08 -1.1298e-10 -2.82984e-08
-2.71051e-20 -0.0792521 0.0203125 0.00246665 -4.91328e-05 -0.00547313
-4.1359e-25 -0.0818256 2.85353e-09 -6.32044e-10 -8.08945e-09 3.25387e-10
2.71051e-20 -0.0815624 0.00656245 0.000932103 -0.0028236 -0.00799837
5.1523e-22 -0.0795042 0.019375 0.00133441 0.000236799 -0.00815814
-2.58453e-21 -0.0818444 0.000583063 -0.000791882 -0.000405041 3.8337e-05
2.71051e-20 -0.0809424 0.0121875 -0.0028982 -0.00164147 -0.0141121
3.25814e-20 -0.0812502 0.01 -0.000208749 -0.0028214 -0.0123007
-2.82443e-20 -0.0818572 0.00119679 -0.00252618 0.000659527 -4.4854e-05
0 -0.0806346 0.0141611 -0.0044435 -0.000521885 -0.0141551
-2.71051e-20 -0.0797754 0.0184375 0.000357578 0.000437748 -0.0114096
0 -0.0815624 0.00718748 0.000681544 -0.00299142 -0.00886867
6.46235e-27 -0.0818662 0.00183835 -0.00392946 0.00072672 -0.000423902
9.19561e-21 -0.0806346 0.014375 -0.0046474 -0.000399885 -0.0140504
0 -0.0803406 0.0159375 -0.0037328 0.000207139 -0.0140996
2.87476e-20 -0.0818715 0.00248433 -0.00393789 6.983e-05 -0.001345
-7.79045e-21 -0.0818737 0.0031207 -0.00283044 -0.000589915 -0.00256565
0 -0.0815624 0.00781249 0.000634088 -0.00313314 -0.00974497
0 -0.0800466 0.0175 -0.00189571 0.000624984 -0.0124763
2.76504e-20 -0.0812502 0.010625 -0.000897125 -0.00254633 -0.0126901
0 -0.0809424 0.0128125 -0.00391972 -0.00116821 -0.014001
-2.63996e-20 -0.0818743 0.00374909 -0.00134346 -0.00109634 -0.00372697
0 -0.0792521 0.0209375 0.00264507 -1.92037e-05 -0.00485371
0 -0.079 0.021875 1.59177e-08 -1.14922e-10 -2.20691e-08
-1.79896e-20 -0.0795042 0.02 0.00151488 0.000301494 -0.00741219
-1.04875e-20 -0.0818745 0.00437472 -7.53303e-05 -0.00156699 -0.00474562
2.71051e-20 -0.0815624 0.0084375 0.000606137 -0.0032289 -0.0105401
-4.03897e-28 -0.0811347 0.011875 -0.00253306 -0.00173213 -0.0131789
6.46235e-27 -0.0798282 0.01875 -0.000654558 0.000674061 -0.00997582
-1.61559e-20 -0.0806346 0.015 -0.00511493 -7.56465e-06 -0.013647
2.71051e-20 -0.0797754 0.0190625 0.000422317 0.000524816 -0.0105638
-1.94913e-20 -0.0812502 0.01125 -0.00171313 -0.00216629 -0.0128944
1.06144e-20 -0.0818746 0.00499988 0.000668825 -0.00207171 -0.00568864
2.71051e-20 -0.0803406 0.0165625 -0.00392755 0.000558853 -0.0135181
0 -0.0809424 0.0134375 -0.00482004 -0.00071701 -0.0137311
0 -0.0815624 0.0090625 0.000414563 -0.00321895 -0.0111619
-1.05933e-20 -0.0818746 0.00562495 0.000932028 -0.00255528 -0.0065867
-2.58494e-26 -0.0800466 0.018125 -0.00189801 0.000852918 -0.0116427
4.68695e-21 -0.0818746 0.00624998 0.00082484 -0.00290792 -0.00743311
2.11536e-20 -0.0812502 0.011875 -0.00268779 -0.0017178 -0.0129031
4.03897e-28 -0.0820795 0.00248483 -0.00489149 0.000224884 -0.000900592
5.42101e-20 -0.0792521 0.0215625 0.00280533 -1.13908e-05 -0.0042073
3.04943e-20 -0.0806346 0.015625 -0.00546061 0.000417304 -0.0131668
-2.71051e-20 -0.0815624 0.0096875 -3.76096e-05 -0.0030672 -0.0115803
-2.3959e-20 -0.0795042 0.020625 0.00169051 0.000369982 -0.00660148
1.00974e-28 -0.0812502 0.0120364 -0.00297317 -0.00158824 -0.0128641
4.1359e-25 -0.079 0.0225 1.49022e-08 -1.75115e-10 -1.65076e-08
2.71051e-20 -0.0821529 0.000291161 -0.000103151 -0.00112196 0.000199565
2.71051e-20 -0.0809424 0.0140625 -0.00571733 -0.000299191 -0.0133467
-2.71051e-20 -0.0803406 0.0171875 -0.00402879 0.000913986 -0.0127842
-1.37183e-20 -0.0818746 0.00687499 0.000550892 -0.003114 -0.00824234
0 -0.0797754 0.0196875 0.000588808 0.000616355 -0.00962192
5.42101e-20 -0.0821667 0.00089009 -0.00250798 0.000674297 0.000408526
0 -0.0806346 0.0158836 -0.00557493 0.000596042 -0.0129338
-2.71051e-20 -0.0821764 0.00151811 -0.00506358 0.00146459 0.000450617
0 -0.0812502 0.0125 -0.00379305 -0.00121602 -0.012752
-2.71051e-20 -0.0821826 0.00216199 -0.00573117 0.000753534 -0.000159101
-2.06795e-25 -0.0822113 2.26144e-13 0 0 0
-2.71051e-20 -0.0815624 0.0103125 -0.000669757 -0.00276258 -0.0118182
0 -0.0800466 0.01875 -0.00189986 0.00100466 -0.0107546
2.79591e-20 -0.0818746 0.0075 0.000413791 -0.0032318 -0.00902826
-2.71051e-20 -0.0821857 0.00280307 -0.0046493 -0.000182487 -0.00146389
0 -0.0806346 0.01625 -0.00573686 0.000849209 -0.0126037
0 -0.0821868 0.00343525 -0.0026853 -0.000829585 -0.00284764
2.71051e-20 -0.0809424 0.0146875 -0.00645791 0.000109681 -0.0128415
7.55388e-21 -0.0818746 0.008125 0.00040472 -0.00328867 -0.00973569
-2.71051e-20 -0.0821871 0.00406209 -0.000857197 -0.00133225 -0.00403494
0 -0.0822699 0.00183944 -0.00605361 0.00132399 0.000415063
-2.71051e-20 -0.0803406 0.0178125 -0.00413914 0.00124056 -0.0119296
2.71051e-20 -0.0815624 0.0109375 -0.0014508 -0.00233465 -0.0119144
3.76138e-20 -0.0795042 0.02125 0.00186391 0.000411335 -0.005758
2.71051e-20 -0.0792521 0.0221875 0.00296067 -2.04872e-05 -0.0035659
0 -0.0812502 0.013125 -0.00491304 -0.000693666 -0.0124793
0 -0.0799981 0.019375 -0.00157288 0.0010437 -0.0096735
0 -0.079 0.023125 1.48855e-08 -2.5692e-10 -1.31088e-08
0 -0.0821872 0.00468738 0.000362443 -0.00186458 -0.00507514
-2.71051e-20 -0.0797754 0.0203125 0.000722283 0.000736331 -0.00859356
-2.46722e-20 -0.0818746 0.00875 0.000333893 -0.00326155 -0.0102735
0 -0.0800466 0.019375 -0.00185852 0.00112298 -0.00982238
-2.71051e-20 -0.0821872 0.00531245 0.00082136 -0.00245374 -0.00604816
-2.71051e-20 -0.0815624 0.0115625 -0.00239041 -0.00184437 -0.0118356
-2.71051e-20 -0.0809424 0.0153125 -0.00708555 0.000565646 -0.0122882
1.29247e-26 -0.0806346 0.016875 -0.00597902 0.00127439 -0.0119412
-2.71051e-20 -0.0821872 0.00593748 0.000819204 -0.00295969 -0.00691525
0 -0.0812502 0.01375 -0.00600393 -0.000186831 -0.0121014
2.38835e-20 -0.0818746 0.009375 5.78735e-05 -0.00311266 -0.0106032
1.00974e-28 -0.0823544 0.00312146 -0.00434592 -0.000491963 -0.00167127
3.23117e-27 -0.0800466 0.0196607 -0.00182258 0.00118431 -0.00937033
0 -0.0824248 0.000583335 -0.00184167 0.000250404 0.000551961
0 -0.0803406 0.0184375 -0.00419807 0.00146883 -0.010994
0 -0.0824396 0.00119784 -0.00509574 0.00169232 0.000911061
0 -0.079 0.0235965 0 0 0
2.71051e-20 -0.0821872 0.00656249 0.000416154 -0.00325627 -0.00768962
-1.11448e-20 -0.0795042 0.021875 0.00205305 0.000417829 -0.00490891
4.1359e-25 -0.0824642 1.87153e-09 -7.09504e-10 -2.59069e-09 1.5108e-09
0 -0.0815624 0.0121875 -0.00354849 -0.00131669 -0.0116025
2.01948e-28 -0.0812502 0.014131 -0.00662951 0.000113964 -0.0118105
0 -0.0792521 0.0228125 0.0031048 -3.75906e-05 -0.00295479
-2.71051e-20 -0.0797754 0.0209375 0.000894937 0.000827382 -0.00754049
1.29247e-26 -0.0824772 0.00058336 -0.00193642 0.000309564 0.000598319
3.29045e-20 -0.0818746 0.01 -0.000441523 -0.00282447 -0.0107501
1.03398e-25 -0.079 0.02375 5.04205e-09 -8.66794e-11 -3.15436e-09
3.23117e-27 -0.0824876 0.00119793 -0.00530766 0.0017775 0.000989901
-5.42101e-20 -0.0809424 0.0159375 -0.00748665 0.0010694 -0.0116925
0 -0.0821872 0.0071875 0.000173539 -0.00338492 -0.00841252
0 -0.0800466 0.02 -0.0017799 0.00125715 -0.00883345
0 -0.0806346 0.0175 -0.00619181 0.00167309 -0.0111717
-1.11715e-20 -0.0812502 0.014375 -0.00703004 0.000306545 -0.0116243
0 -0.0824946 0.00184004 -0.00723582 0.0016564 0.00088199
-8.07794e-28 -0.0824982 0.00248583 -0.00681059 0.000536924 -6.22926e-06
-2.71051e-20 -0.0821873 0.0078125 0.000165764 -0.00341789 -0.00908658
0 -0.0824996 0.00312169 -0.00480348 -0.000462389 -0.00140123
-1.96955e-20 -0.0818746 0.010625 -0.00111384 -0.00240773 -0.0107638
2.71051e-20 -0.0815624 0.0128125 -0.0048094 -0.00073594 -0.0112802
2.71051e-20 -0.0803406 0.0190625 -0.0042897 0.00161203 -0.0100402
0 -0.0824998 0.00355979 -0.00314971 -0.000933834 -0.0023736
0 -0.0824999 0.00374962 -0.00243312 -0.00113812 -0.00279493
1.47172e-20 -0.0824999 0.00437498 -0.000601534 -0.0017038 -0.00401143
2.71051e-20 -0.0821873 0.0084375 0.000212688 -0.00337486 -0.0095707
-2.71051e-20 -0.0809424 0.0165625 -0.00785625 0.00157509 -0.0110692
-1.67729e-20 -0.0812502 0.015 -0.00794662 0.000809984 -0.0110684
-3.26415e-20 -0.0795042 0.0225 0.00225345 0.000399236 -0.00407823
2.71051e-20 -0.0797754 0.0215625 0.00107735 0.000864869 -0.00647747
5.45921e-21 -0.0818746 0.01125 -0.00198014 -0.00190698 -0.0106506
0 -0.0792521 0.0234375 0.00323228 -5.6517e-05 -0.00238842
0 -0.0806346 0.018125 -0.00638542 0.00199305 -0.0103207
3.49445e-20 -0.0824999 0.00499999 0.000367975 -0.00229015 -0.00509151
2.28807e-20 -0.0800466 0.020625 -0.00168323 0.00138457 -0.00781576
-2.71051e-20 -0.0815624 0.0134375 -0.00610808 -0.000151168 -0.0108917
2.58494e-26 -0.079 0.024375 1.41155e-09 -3.1271e-11 -6.73475e-10
-3.36042e-25 -0.079 0.0244069 0 0 0
0 -0.0821872 0.0090625 0.000102018 -0.00322353 -0.00982093
2.12023e-20 -0.0824999 0.005625 0.000587243 -0.00286242 -0.00603089
-2.71051e-20 -0.0803406 0.0196875 -0.00426745 0.00176488 -0.00905088
-9.88622e-21 -0.0818746 0.011875 -0.00308582 -0.00136544 -0.0103983
-1.31451e-20 -0.0824999 0.00625 0.00032635 -0.00328131 -0.00682237
-1.49056e-20 -0.0812502 0.015625 -0.00870788 0.00134431 -0.0104649
-2.71051e-20 -0.0809424 0.0171875 -0.00816205 0.00206539 -0.0103581
0 -0.0821872 0.0096875 -0.000247602 -0.00294093 -0.00984912
0 -0.0815624 0.0140625 -0.00737719 0.000423059 -0.0104225
-4.57392e-21 -0.0824999 0.006875 4.35998e-06 -0.00347282 -0.00752696
0 -0.0806346 0.01875 -0.00655225 0.00221092 -0.00942591
2.71051e-20 -0.0827889 0.00029129 -0.000223467 -0.00039705 0.000475852
2.52435e-29 -0.0818746 0.0122925 -0.00395916 -0.000978544 -0.0101615
0 -0.0812502 0.0159052 -0.00898108 0.00159496 -0.0101833
2.58494e-26 -0.0791259 0.024375 0.000678493 7.54083e-05 -0.000456658
1.03398e-25 -0.0793188 0.02375 0.00164638 0.000211302 -0.00160179
-2.34902e-20 -0.0795042 0.023125 0.00244435 0.000368196 -0.00328325
1.61559e-27 -0.0803482 0.02 -0.00430841 0.00191725 -0.00820394
5.42101e-20 -0.0827983 0.00089054 -0.00497112 0.00211419 0.00131955
2.71051e-20 -0.0797754 0.0221875 0.00133711 0.000854915 -0.00542408
1.53083e-20 -0.0800466 0.02125 -0.0015415 0.00146054 -0.00679189
0 -0.0828054 0.00151904 -0.0087275 0.00286371 0.00178406
0 -0.0818746 0.0125 -0.00439314 -0.000786286 -0.0100438
0 -0.0792521 0.0240625 0.00331493 -7.47705e-05 -0.00187966
0 -0.0821872 0.0103125 -0.000811205 -0.0025271 -0.00975205
-2.71051e-20 -0.0828097 0.00216304 -0.00941325 0.0015393 0.00145008
-2.5916e-20 -0.0824999 0.0075 -7.71102e-05 -0.00348569 -0.00816697
-5.42101e-20 -0.0828117 0.00280384 -0.00745154 4.36085e-05 0.000153889
0 -0.0812502 0.01625 -0.00931731 0.00190345 -0.00983674
8.27181e-25 -0.079 0.025 2.63237e-08 -8.34265e-10 -1.02704e-08
2.71051e-20 -0.0803406 0.0203125 -0.00427856 0.00193853 -0.00805446
-2.71051e-20 -0.0815624 0.0146875 -0.00857656 0.000996397 -0.00987289
0 -0.0809424 0.0178125 -0.00849896 0.00248984 -0.00958008
2.71051e-20 -0.0828123 0.0034357 -0.00443678 -0.000877486 -0.00144172
6.24928e-21 -0.0824999 0.008125 7.13813e-06 -0.00339175 -0.00866163
-5.04871e-29 -0.082822 0.00374965 -0.00330209 -0.00119303 -0.00198944
-2.71051e-20 -0.0821872 0.0109375 -0.00152364 -0.00200647 -0.00956937
0 -0.0828124 0.00406232 -0.00175611 -0.00151212 -0.00285397
0 -0.0818746 0.013125 -0.00581271 -0.000172381 -0.00963586
0 -0.0806346 0.019375 -0.00665689 0.00237864 -0.00851446
2.71051e-20 -0.0828124 0.00468749 -0.00015558 -0.00210601 -0.00408153
-2.64998e-21 -0.0824999 0.00875 3.70759e-05 -0.0032152 -0.00892533
2.71051e-20 -0.0797754 0.0228125 0.00158141 0.000816483 -0.00439943
-1.39319e-20 -0.0795042 0.02375 0.00260384 0.000334186 -0.00253332
-2.4683e-20 -0.0800466 0.021875 -0.00133462 0.00147545 -0.00577173
0 -0.0828124 0.0053125 0.000443714 -0.00273619 -0.00516127
3.23117e-27 -0.0812502 0.016875 -0.00984158 0.00245916 -0.00918366
0 -0.0815624 0.0153125 -0.00967747 0.00157264 -0.00925699
0 -0.0821873 0.0115625 -0.00255574 -0.00144226 -0.00928176
5.42101e-20 -0.0792521 0.0246875 0.00333653 -9.34869e-05 -0.00142957